Linux g42 2.6.38.6-client #1 SMP Tue Jun 12 11:27:21 CEST 2012 x86_64 GNU/Linux
Thu Jan 16 21:46:47 CET 2014

 Entering Gaussian System, Link 0=/usr/local/programs/common/gaussian/gaussian09_d01/arch/amd64-pgi_10.4.0-acml/g09/g09
 Initial command:
 /usr/local/programs/common/gaussian/gaussian09_d01/arch/amd64-pgi_10.4.0-acml/g09/l1.exe "/scratch/kolar/g09_17602/Gau-2200.inp" -scrdir="/scratch/kolar/g09_17602/"
 Entering Link 1 = /usr/local/programs/common/gaussian/gaussian09_d01/arch/amd64-pgi_10.4.0-acml/g09/l1.exe PID=      2210.
  
 Copyright (c) 1988,1990,1992,1993,1995,1998,2003,2009,2013,
            Gaussian, Inc.  All Rights Reserved.
  
 This is part of the Gaussian(R) 09 program.  It is based on
 the Gaussian(R) 03 system (copyright 2003, Gaussian, Inc.),
 the Gaussian(R) 98 system (copyright 1998, Gaussian, Inc.),
 the Gaussian(R) 94 system (copyright 1995, Gaussian, Inc.),
 the Gaussian 92(TM) system (copyright 1992, Gaussian, Inc.),
 the Gaussian 90(TM) system (copyright 1990, Gaussian, Inc.),
 the Gaussian 88(TM) system (copyright 1988, Gaussian, Inc.),
 the Gaussian 86(TM) system (copyright 1986, Carnegie Mellon
 University), and the Gaussian 82(TM) system (copyright 1983,
 Carnegie Mellon University). Gaussian is a federally registered
 trademark of Gaussian, Inc.
  
 This software contains proprietary and confidential information,
 including trade secrets, belonging to Gaussian, Inc.
  
 This software is provided under written license and may be
 used, copied, transmitted, or stored only in accord with that
 written license.
  
 The following legend is applicable only to US Government
 contracts under FAR:
  
                    RESTRICTED RIGHTS LEGEND
  
 Use, reproduction and disclosure by the US Government is
 subject to restrictions as set forth in subparagraphs (a)
 and (c) of the Commercial Computer Software - Restricted
 Rights clause in FAR 52.227-19.
  
 Gaussian, Inc.
 340 Quinnipiac St., Bldg. 40, Wallingford CT 06492
  
  
 ---------------------------------------------------------------
 Warning -- This program may not be used in any manner that
 competes with the business of Gaussian, Inc. or will provide
 assistance to any competitor of Gaussian, Inc.  The licensee
 of this program is prohibited from giving any competitor of
 Gaussian, Inc. access to this program.  By using this program,
 the user acknowledges that Gaussian, Inc. is engaged in the
 business of creating and licensing software in the field of
 computational chemistry and represents and warrants to the
 licensee that it is not a competitor of Gaussian, Inc. and that
 it will not use this program in any manner prohibited above.
 ---------------------------------------------------------------
  

 Cite this work as:
 Gaussian 09, Revision D.01,
 M. J. Frisch, G. W. Trucks, H. B. Schlegel, G. E. Scuseria, 
 M. A. Robb, J. R. Cheeseman, G. Scalmani, V. Barone, B. Mennucci, 
 G. A. Petersson, H. Nakatsuji, M. Caricato, X. Li, H. P. Hratchian, 
 A. F. Izmaylov, J. Bloino, G. Zheng, J. L. Sonnenberg, M. Hada, 
 M. Ehara, K. Toyota, R. Fukuda, J. Hasegawa, M. Ishida, T. Nakajima, 
 Y. Honda, O. Kitao, H. Nakai, T. Vreven, J. A. Montgomery, Jr., 
 J. E. Peralta, F. Ogliaro, M. Bearpark, J. J. Heyd, E. Brothers, 
 K. N. Kudin, V. N. Staroverov, T. Keith, R. Kobayashi, J. Normand, 
 K. Raghavachari, A. Rendell, J. C. Burant, S. S. Iyengar, J. Tomasi, 
 M. Cossi, N. Rega, J. M. Millam, M. Klene, J. E. Knox, J. B. Cross, 
 V. Bakken, C. Adamo, J. Jaramillo, R. Gomperts, R. E. Stratmann, 
 O. Yazyev, A. J. Austin, R. Cammi, C. Pomelli, J. W. Ochterski, 
 R. L. Martin, K. Morokuma, V. G. Zakrzewski, G. A. Voth, 
 P. Salvador, J. J. Dannenberg, S. Dapprich, A. D. Daniels, 
 O. Farkas, J. B. Foresman, J. V. Ortiz, J. Cioslowski, 
 and D. J. Fox, Gaussian, Inc., Wallingford CT, 2013.
 
 ******************************************
 Gaussian 09:  AM64L-G09RevD.01 24-Apr-2013
                16-Jan-2014 
 ******************************************
 %mem=1800mb
 -----------------------------------------
 # hf/gen pop=mk iop(6/33=2,6/41=5,6/42=2)
 -----------------------------------------
 1/38=1/1;
 2/12=2,17=6,18=5,40=1/2;
 3/5=7,11=9,16=1,25=1,30=1/1,2,3;
 4//1;
 5/5=2,38=5/2;
 6/7=2,8=2,9=2,10=2,15=8,20=1,28=1,33=2,41=5,42=2/1,2;
 99/5=1,9=1/99;
 -------
 na resp
 -------
 Symbolic Z-matrix:
 Charge =  0 Multiplicity = 1
 6                    -0.54823  -2.14295   0.0509 
 6                     0.8126   -1.83069   0.05275 
 6                     1.2189   -0.49792   0.00023 
 6                     0.2705    0.52215  -0.04243 
 6                    -1.09174   0.20481  -0.04504 
 6                    -1.50929  -1.12658  -0.00445 
 8                    -2.85635  -1.37202  -0.01768 
 6                    -1.94075   1.45299  -0.11894 
 6                    -0.93679   2.57689   0.24601 
 6                     0.46443   2.02011  -0.11558 
 17                    2.94061  -0.11396  -0.00719 
 1                    -0.85969  -3.18505   0.09352 
 1                     1.5536   -2.62181   0.09613 
 1                    -3.00271  -2.32961   0.0293 
 1                    -2.33953   1.58353  -1.1355 
 1                    -2.80586   1.41802   0.55172 
 1                    -1.15761   3.52233  -0.25852 
 1                    -0.98166   2.76413   1.32517 
 1                     1.25269   2.37877   0.55428 
 1                     0.76348   2.31025  -1.13322 
 
                          Input orientation:                          
 ---------------------------------------------------------------------
 Center     Atomic      Atomic             Coordinates (Angstroms)
 Number     Number       Type             X           Y           Z
 ---------------------------------------------------------------------
      1          6           0       -0.548228   -2.142951    0.050903
      2          6           0        0.812595   -1.830693    0.052747
      3          6           0        1.218899   -0.497918    0.000232
      4          6           0        0.270500    0.522153   -0.042425
      5          6           0       -1.091736    0.204811   -0.045037
      6          6           0       -1.509293   -1.126584   -0.004452
      7          8           0       -2.856352   -1.372018   -0.017684
      8          6           0       -1.940745    1.452993   -0.118942
      9          6           0       -0.936785    2.576885    0.246010
     10          6           0        0.464425    2.020111   -0.115579
     11         17           0        2.940607   -0.113957   -0.007185
     12          1           0       -0.859692   -3.185053    0.093522
     13          1           0        1.553596   -2.621811    0.096134
     14          1           0       -3.002711   -2.329613    0.029300
     15          1           0       -2.339526    1.583531   -1.135496
     16          1           0       -2.805855    1.418022    0.551718
     17          1           0       -1.157610    3.522328   -0.258518
     18          1           0       -0.981662    2.764133    1.325170
     19          1           0        1.252688    2.378770    0.554276
     20          1           0        0.763479    2.310253   -1.133223
 ---------------------------------------------------------------------
                    Distance matrix (angstroms):
                    1          2          3          4          5
     1  C    0.000000
     2  C    1.396190   0.000000
     3  C    2.414837   1.394321   0.000000
     4  C    2.789589   2.416363   1.393494   0.000000
     5  C    2.411761   2.789142   2.415556   1.398714   0.000000
     6  C    1.399897   2.426974   2.799692   2.426404   1.395928
     7  O    2.434436   3.698177   4.167978   3.655913   2.366645
     8  C    3.859892   4.288701   3.715320   2.400400   1.511369
     9  C    4.739820   4.745990   3.763216   2.400553   2.394881
    10  C    4.287688   3.870174   2.631181   1.512229   2.392055
    11  Cl   4.036355   2.734814   1.764018   2.745059   4.045100
    12  H    1.088486   2.152324   3.398520   3.878040   3.400621
    13  H    2.156158   1.084819   2.152241   3.398536   3.873952
    14  H    2.461665   3.847861   4.601950   4.341846   3.175005
    15  H    4.301507   4.796323   4.276061   3.022179   2.155678
    16  H    4.245966   4.888384   4.491504   3.258765   2.183163
    17  H    5.706354   5.712568   4.677299   3.329751   3.325031
    18  H    5.088329   5.094197   4.151976   2.909416   2.905118
    19  H    4.893122   4.262017   2.929751   2.183523   3.252937
    20  H    4.791008   4.307711   3.062344   2.151783   3.009794
                    6          7          8          9         10
     6  C    0.000000
     7  O    1.369299   0.000000
     8  C    2.617914   2.971410   0.000000
     9  C    3.755819   4.398648   1.550567   0.000000
    10  C    3.716127   4.748019   2.471129   1.550527   0.000000
    11  Cl   4.563664   5.931910   5.127906   4.726405   3.270699
    12  H    2.160758   2.699280   4.767105   5.764471   5.375011
    13  H    3.409855   4.585039   5.372216   5.766359   4.772689
    14  H    1.917998   0.969854   3.931648   5.328108   5.564362
    15  H    3.051765   3.201856   1.099749   2.205220   3.015456
    16  H    2.909539   2.847998   1.095182   2.220325   3.391538
    17  H    4.669113   5.186362   2.216964   1.094155   2.215420
    18  H    4.145355   4.735553   2.173566   1.096203   2.172670
    19  H    4.497580   5.592831   3.392389   2.219926   1.094852
    20  H    4.272173   5.282681   3.012721   2.205510   1.099643
                   11         12         13         14         15
    11  Cl   0.000000
    12  H    4.887131   0.000000
    13  H    2.867718   2.478146   0.000000
    14  H    6.342988   2.308340   4.566156   0.000000
    15  H    5.659890   5.141963   5.861588   4.136334   0.000000
    16  H    5.973371   5.018545   5.960924   3.788989   1.758280
    17  H    5.484626   6.723217   6.725092   6.142675   2.434122
    18  H    5.044082   6.076565   6.078360   5.631178   3.048359
    19  H    3.062352   5.969135   5.030532   6.368115   4.048671
    20  H    3.447411   5.859861   5.144012   6.088021   3.186969
                   16         17         18         19         20
    16  H    0.000000
    17  H    2.793080   0.000000
    18  H    2.395396   1.764620   0.000000
    19  H    4.170709   2.788888   2.394807   0.000000
    20  H    4.046634   2.434095   3.048806   1.758315   0.000000
 Stoichiometry    C9H9ClO
 Framework group  C1[X(C9H9ClO)]
 Deg. of freedom    54
 Full point group                 C1      NOp   1
 Largest Abelian subgroup         C1      NOp   1
 Largest concise Abelian subgroup C1      NOp   1
                         Standard orientation:                         
 ---------------------------------------------------------------------
 Center     Atomic      Atomic             Coordinates (Angstroms)
 Number     Number       Type             X           Y           Z
 ---------------------------------------------------------------------
      1          6           0        0.548228   -2.142951   -0.050903
      2          6           0       -0.812595   -1.830693   -0.052747
      3          6           0       -1.218899   -0.497918   -0.000232
      4          6           0       -0.270500    0.522153    0.042425
      5          6           0        1.091736    0.204811    0.045037
      6          6           0        1.509293   -1.126584    0.004452
      7          8           0        2.856352   -1.372019    0.017684
      8          6           0        1.940745    1.452993    0.118942
      9          6           0        0.936786    2.576885   -0.246010
     10          6           0       -0.464425    2.020111    0.115579
     11         17           0       -2.940607   -0.113956    0.007185
     12          1           0        0.859691   -3.185053   -0.093522
     13          1           0       -1.553597   -2.621811   -0.096134
     14          1           0        3.002710   -2.329614   -0.029300
     15          1           0        2.339526    1.583531    1.135496
     16          1           0        2.805855    1.418021   -0.551718
     17          1           0        1.157611    3.522328    0.258518
     18          1           0        0.981663    2.764133   -1.325170
     19          1           0       -1.252687    2.378770   -0.554276
     20          1           0       -0.763478    2.310253    1.133223
 ---------------------------------------------------------------------
 Rotational constants (GHZ):      1.3797635      0.8437790      0.5304441
 General basis read from cards:  (5D, 7F)
 There are   187 symmetry adapted cartesian basis functions of A   symmetry.
 There are   176 symmetry adapted basis functions of A   symmetry.
   176 basis functions,   368 primitive gaussians,   187 cartesian basis functions
    44 alpha electrons       44 beta electrons
       nuclear repulsion energy       669.4548782952 Hartrees.
 NAtoms=   20 NActive=   20 NUniq=   20 SFac= 1.00D+00 NAtFMM=   60 NAOKFM=F Big=F
 Integral buffers will be    131072 words long.
 Raffenetti 1 integral format.
 Two-electron integral symmetry is turned on.
 One-electron integrals computed using PRISM.
 NBasis=   176 RedAO= T EigKep=  3.79D-04  NBF=   176
 NBsUse=   176 1.00D-06 EigRej= -1.00D+00 NBFU=   176
 ExpMin= 1.43D-01 ExpMax= 2.52D+04 ExpMxC= 3.78D+03 IAcc=1 IRadAn=         1 AccDes= 0.00D+00
 Harris functional with IExCor=  205 and IRadAn=       1 diagonalized for initial guess.
 HarFok:  IExCor=  205 AccDes= 0.00D+00 IRadAn=         1 IDoV= 1 UseB2=F ITyADJ=14
 ICtDFT=  3500011 ScaDFX=  1.000000  1.000000  1.000000  1.000000
 FoFCou: FMM=F IPFlag=           0 FMFlag=      100000 FMFlg1=           0
         NFxFlg=           0 DoJE=T BraDBF=F KetDBF=T FulRan=T
         wScrn=  0.000000 ICntrl=     500 IOpCl=  0 I1Cent=   200000004 NGrid=           0
         NMat0=    1 NMatS0=      1 NMatT0=    0 NMatD0=    1 NMtDS0=    0 NMtDT0=    0
 Petite list used in FoFCou.
 Keep R1 ints in memory in canonical form, NReq=124761898.
 Requested convergence on RMS density matrix=1.00D-08 within 128 cycles.
 Requested convergence on MAX density matrix=1.00D-06.
 Requested convergence on             energy=1.00D-06.
 No special actions if energy rises.
 SCF Done:  E(RHF) =  -880.397258339     A.U. after   14 cycles
            NFock= 14  Conv=0.59D-08     -V/T= 2.0003

 **********************************************************************

            Population analysis using the SCF density.

 **********************************************************************

 Orbital symmetries:
 BldTbl:  Degeneracy threshold= 1.00D-02
       Occupied  (A) (A) (A) (A) (A) (A) (A) (A) (A) (A) (A) (A)
                 (A) (A) (A) (A) (A) (A) (A) (A) (A) (A) (A) (A)
                 (A) (A) (A) (A) (A) (A) (A) (A) (A) (A) (A) (A)
                 (A) (A) (A) (A) (A) (A) (A) (A)
       Virtual   (A) (A) (A) (A) (A) (A) (A) (A) (A) (A) (A) (A)
                 (A) (A) (A) (A) (A) (A) (A) (A) (A) (A) (A) (A)
                 (A) (A) (A) (A) (A) (A) (A) (A) (A) (A) (A) (A)
                 (A) (A) (A) (A) (A) (A) (A) (A) (A) (A) (A) (A)
                 (A) (A) (A) (A) (A) (A) (A) (A) (A) (A) (A) (A)
                 (A) (A) (A) (A) (A) (A) (A) (A) (A) (A) (A) (A)
                 (A) (A) (A) (A) (A) (A) (A) (A) (A) (A) (A) (A)
                 (A) (A) (A) (A) (A) (A) (A) (A) (A) (A) (A) (A)
                 (A) (A) (A) (A) (A) (A) (A) (A) (A) (A) (A) (A)
                 (A) (A) (A) (A) (A) (A) (A) (A) (A) (A) (A) (A)
                 (A) (A) (A) (A) (A) (A) (A) (A) (A) (A) (A) (A)
 The electronic state is 1-A.
 Alpha  occ. eigenvalues -- -104.81369 -20.59864 -11.30985 -11.29177 -11.25288
 Alpha  occ. eigenvalues --  -11.25091 -11.24321 -11.23654 -11.23108 -11.22798
 Alpha  occ. eigenvalues --  -11.22636 -10.55181  -8.02038  -8.01717  -8.01710
 Alpha  occ. eigenvalues --   -1.40708  -1.18853  -1.12427  -1.08862  -1.00011
 Alpha  occ. eigenvalues --   -0.98545  -0.94191  -0.83619  -0.81834  -0.78618
 Alpha  occ. eigenvalues --   -0.71506  -0.69061  -0.64663  -0.63417  -0.61388
 Alpha  occ. eigenvalues --   -0.59084  -0.58119  -0.56576  -0.55913  -0.52256
 Alpha  occ. eigenvalues --   -0.51275  -0.50326  -0.48975  -0.48253  -0.48205
 Alpha  occ. eigenvalues --   -0.44506  -0.44154  -0.33113  -0.30901
 Alpha virt. eigenvalues --    0.13359   0.14229   0.19851   0.21868   0.23989
 Alpha virt. eigenvalues --    0.27052   0.27817   0.29388   0.31680   0.31869
 Alpha virt. eigenvalues --    0.32119   0.36123   0.36400   0.37694   0.39975
 Alpha virt. eigenvalues --    0.43121   0.44382   0.45761   0.47941   0.52415
 Alpha virt. eigenvalues --    0.53040   0.57392   0.60837   0.62152   0.64745
 Alpha virt. eigenvalues --    0.65646   0.69969   0.72062   0.73284   0.74629
 Alpha virt. eigenvalues --    0.75545   0.75740   0.78775   0.81844   0.82552
 Alpha virt. eigenvalues --    0.83202   0.84161   0.86775   0.86944   0.89041
 Alpha virt. eigenvalues --    0.91724   0.93374   0.96066   0.96994   1.00274
 Alpha virt. eigenvalues --    1.01691   1.02391   1.03219   1.04416   1.09549
 Alpha virt. eigenvalues --    1.11283   1.12583   1.12783   1.13483   1.13832
 Alpha virt. eigenvalues --    1.15091   1.15260   1.16457   1.18117   1.21836
 Alpha virt. eigenvalues --    1.22355   1.22759   1.23335   1.24717   1.25775
 Alpha virt. eigenvalues --    1.27535   1.31278   1.32804   1.35562   1.37949
 Alpha virt. eigenvalues --    1.41636   1.44180   1.48045   1.49933   1.54912
 Alpha virt. eigenvalues --    1.58343   1.62550   1.64055   1.65514   1.67508
 Alpha virt. eigenvalues --    1.72873   1.73455   1.81883   1.83579   1.90523
 Alpha virt. eigenvalues --    1.97254   2.00315   2.01756   2.04964   2.05207
 Alpha virt. eigenvalues --    2.08261   2.09618   2.12189   2.15942   2.17942
 Alpha virt. eigenvalues --    2.21605   2.24164   2.25005   2.27327   2.29509
 Alpha virt. eigenvalues --    2.31454   2.31704   2.35087   2.42091   2.45063
 Alpha virt. eigenvalues --    2.46799   2.50609   2.52952   2.56049   2.59086
 Alpha virt. eigenvalues --    2.61414   2.63424   2.65234   2.66687   2.69809
 Alpha virt. eigenvalues --    2.77554   2.78892   2.83493   2.88070   2.90701
 Alpha virt. eigenvalues --    2.94291   2.99681   3.00501   3.04903   3.05449
 Alpha virt. eigenvalues --    3.12736   3.17137   3.24191   3.27342   3.35632
 Alpha virt. eigenvalues --    3.56155   3.78770
          Condensed to atoms (all electrons):
               1          2          3          4          5          6
     1  C    5.097888   0.501255  -0.042963  -0.035968  -0.061516   0.529846
     2  C    0.501255   4.942725   0.527825  -0.044114  -0.032050  -0.025064
     3  C   -0.042963   0.527825   5.127302   0.507019  -0.042779  -0.036490
     4  C   -0.035968  -0.044114   0.507019   4.887637   0.594673  -0.034985
     5  C   -0.061516  -0.032050  -0.042779   0.594673   4.945663   0.555669
     6  C    0.529846  -0.025064  -0.036490  -0.034985   0.555669   4.442918
     7  O   -0.061996   0.003886   0.000011   0.002107  -0.058883   0.249105
     8  C    0.003888  -0.000197   0.005705  -0.056505   0.312908  -0.038875
     9  C   -0.000125  -0.000127   0.004056  -0.064337  -0.063469   0.004029
    10  C    0.000117   0.002360  -0.041297   0.321074  -0.051846   0.005111
    11  Cl   0.002081  -0.064996   0.216654  -0.067978   0.001505   0.000351
    12  H    0.376460  -0.022056   0.002108   0.000453   0.001945  -0.034274
    13  H   -0.022745   0.377622  -0.025469   0.001370   0.000543   0.000790
    14  H   -0.000973   0.000475  -0.000023  -0.000061   0.005732  -0.036804
    15  H   -0.000095   0.000035  -0.000293  -0.001895  -0.039346  -0.003733
    16  H    0.000050   0.000007  -0.000066   0.001702  -0.039781  -0.001850
    17  H    0.000002   0.000001  -0.000050   0.004342   0.004384  -0.000048
    18  H   -0.000004   0.000002  -0.000325   0.000758   0.000351  -0.000397
    19  H    0.000006   0.000033  -0.002485  -0.038458   0.001889  -0.000044
    20  H    0.000021  -0.000001  -0.002795  -0.038280  -0.003333  -0.000318
               7          8          9         10         11         12
     1  C   -0.061996   0.003888  -0.000125   0.000117   0.002081   0.376460
     2  C    0.003886  -0.000197  -0.000127   0.002360  -0.064996  -0.022056
     3  C    0.000011   0.005705   0.004056  -0.041297   0.216654   0.002108
     4  C    0.002107  -0.056505  -0.064337   0.321074  -0.067978   0.000453
     5  C   -0.058883   0.312908  -0.063469  -0.051846   0.001505   0.001945
     6  C    0.249105  -0.038875   0.004029   0.005111   0.000351  -0.034274
     7  O    8.402684   0.000462   0.000055  -0.000059   0.000001  -0.002554
     8  C    0.000462   5.114381   0.329946  -0.074923  -0.000121  -0.000091
     9  C    0.000055   0.329946   5.150092   0.328935   0.000162   0.000002
    10  C   -0.000059  -0.074923   0.328935   5.131877  -0.001479   0.000005
    11  Cl   0.000001  -0.000121   0.000162  -0.001479  16.920329  -0.000093
    12  H   -0.002554  -0.000091   0.000002   0.000005  -0.000093   0.473698
    13  H   -0.000030   0.000006   0.000002  -0.000086   0.001568  -0.001507
    14  H    0.268922  -0.000206   0.000000   0.000004   0.000000   0.003871
    15  H    0.000742   0.393794  -0.037685   0.001811   0.000003   0.000001
    16  H    0.001384   0.403540  -0.033168   0.004190   0.000002   0.000001
    17  H    0.000000  -0.035062   0.397317  -0.035393  -0.000002   0.000000
    18  H    0.000001  -0.038375   0.396826  -0.039070   0.000000   0.000000
    19  H    0.000000   0.004019  -0.032569   0.402907   0.000345   0.000000
    20  H    0.000001   0.001967  -0.036436   0.392160   0.000700   0.000000
              13         14         15         16         17         18
     1  C   -0.022745  -0.000973  -0.000095   0.000050   0.000002  -0.000004
     2  C    0.377622   0.000475   0.000035   0.000007   0.000001   0.000002
     3  C   -0.025469  -0.000023  -0.000293  -0.000066  -0.000050  -0.000325
     4  C    0.001370  -0.000061  -0.001895   0.001702   0.004342   0.000758
     5  C    0.000543   0.005732  -0.039346  -0.039781   0.004384   0.000351
     6  C    0.000790  -0.036804  -0.003733  -0.001850  -0.000048  -0.000397
     7  O   -0.000030   0.268922   0.000742   0.001384   0.000000   0.000001
     8  C    0.000006  -0.000206   0.393794   0.403540  -0.035062  -0.038375
     9  C    0.000002   0.000000  -0.037685  -0.033168   0.397317   0.396826
    10  C   -0.000086   0.000004   0.001811   0.004190  -0.035393  -0.039070
    11  Cl   0.001568   0.000000   0.000003   0.000002  -0.000002   0.000000
    12  H   -0.001507   0.003871   0.000001   0.000001   0.000000   0.000000
    13  H    0.435856  -0.000007   0.000000   0.000000   0.000000   0.000000
    14  H   -0.000007   0.293971  -0.000014  -0.000029   0.000000   0.000000
    15  H    0.000000  -0.000014   0.528797  -0.029138  -0.002585   0.003542
    16  H    0.000000  -0.000029  -0.029138   0.503033   0.000354  -0.004675
    17  H    0.000000   0.000000  -0.002585   0.000354   0.517666  -0.024878
    18  H    0.000000   0.000000   0.003542  -0.004675  -0.024878   0.527729
    19  H    0.000001   0.000000  -0.000145  -0.000026   0.000399  -0.004616
    20  H    0.000002   0.000000   0.001144  -0.000140  -0.002724   0.003520
              19         20
     1  C    0.000006   0.000021
     2  C    0.000033  -0.000001
     3  C   -0.002485  -0.002795
     4  C   -0.038458  -0.038280
     5  C    0.001889  -0.003333
     6  C   -0.000044  -0.000318
     7  O    0.000000   0.000001
     8  C    0.004019   0.001967
     9  C   -0.032569  -0.036436
    10  C    0.402907   0.392160
    11  Cl   0.000345   0.000700
    12  H    0.000000   0.000000
    13  H    0.000001   0.000002
    14  H    0.000000   0.000000
    15  H   -0.000145   0.001144
    16  H   -0.000026  -0.000140
    17  H    0.000399  -0.002724
    18  H   -0.004616   0.003520
    19  H    0.497836  -0.027972
    20  H   -0.027972   0.520891
 Mulliken charges:
               1
     1  C   -0.285229
     2  C   -0.167622
     3  C   -0.195647
     4  C    0.061446
     5  C   -0.032260
     6  C    0.425061
     7  O   -0.805839
     8  C   -0.326262
     9  C   -0.343508
    10  C   -0.346399
    11  Cl  -0.009032
    12  H    0.202031
    13  H    0.232085
    14  H    0.465142
    15  H    0.185061
    16  H    0.194612
    17  H    0.176276
    18  H    0.179611
    19  H    0.198879
    20  H    0.191592
 Sum of Mulliken charges =   0.00000
 Mulliken charges with hydrogens summed into heavy atoms:
               1
     1  C   -0.083199
     2  C    0.064463
     3  C   -0.195647
     4  C    0.061446
     5  C   -0.032260
     6  C    0.425061
     7  O   -0.340697
     8  C    0.053412
     9  C    0.012379
    10  C    0.044073
    11  Cl  -0.009032
 DipInt: DoE/N= T F RetVal/Mat= T F Init=T NMatP=  1 IDeriv=0 Min/MaxMlt=  0  4
 Entering OneElI...
 OneElI was handed   235837468 working-precision words.
 Multipole integrals L=0 to 4 MinM= 0 MaxM= 0.
 Requested accuracy = 0.1000D-12
 ShPair: Thresh= 1.00D-13 NBox=     0 BxSize= 0.00D+00 RnKept= 1.27D+01
         NSMCal=                 2016 NSMKep=                1880
 PrsmSu:  NPrtUS=   1 ThrOK=F IAlg=1 NPAlg=1 LenDen=           0.
 Prism:   IPart=     0 DynPar=F LinDyn=F Incr=          18.
 PRISM was handed   235660620 working-precision words and  1880 shell-pairs
 IPart=  0 NShTot=        1880 NBatch=          72 AvBLen=        26.1
 PrSmSu:  NxtVal=             19.
 Electronic moments (au):
        -88.00000000          0.69621419         -0.45298336         -0.02651548
      -1154.40694452       -789.64812510        -75.10004950         -2.73007836
         -0.12783981          0.49407408        844.72033188       -588.69833235
         -0.64362039       -902.64423807        546.18214231        -29.48279268
        -30.06899796        -78.04170532         77.44737245         25.84514325
     -31175.24787913     -16434.43951559       -351.89113370       1685.51163975
        -91.31786908       -959.70414276        210.61339081          3.48363452
         18.89967180      -5940.99839869       -874.20571018       -915.75301713
        -21.04962691        133.30973481       -125.64476721
 Electronic spatial extent (au):  <R**2>=           2019.1551
 DipInt: DoE/N= F T RetVal/Mat= T F Init=T NMatP=  1 IDeriv=0 Min/MaxMlt=  0  4
 Nuclear    moments (au):
         88.00000000          0.00000000          0.00000000          0.00000000
       1097.52755539        746.11582731         20.04717851          0.00000000
          0.00002189         -0.00000358       -833.34625326        540.09338650
          1.34270527        929.41662294       -566.43322685         27.11251133
         32.25686520         83.46271269        -78.16001004        -24.67525151
      27225.49337181      13858.79601050         84.31231705      -1850.53389492
         80.06497591        763.86065283       -189.82473022         -3.50862550
        -19.41636074       5009.47724117        168.55575445        381.22604383
         25.84910411       -131.49076421        113.38522683
 Total      moments (au):
          0.00000000          0.69621419         -0.45298336         -0.02651548
        -56.87938912        -43.53229779        -55.05287099         -2.73007836
         -0.12781792          0.49407050         11.37407862        -48.60494585
          0.69908487         26.77238487        -20.25108453         -2.37028135
          2.18786724          5.42100737         -0.71263758          1.16989174
      -3949.75450732      -2575.64350509       -267.57881666       -165.02225517
        -11.25289318       -195.84348994         20.78866059         -0.02499098
         -0.51668895       -931.52115751       -705.64995573       -534.52697329
          4.79947721          1.81897060        -12.25954038
 Traceless Quadrup. (au):
         -5.05786982          8.28922151         -3.23135169         -2.73007836
         -0.12781792          0.49407050
 Charge=              0.0000 electrons
 Dipole moment (field-independent basis, Debye):
    X=              1.7696    Y=             -1.1514    Z=             -0.0674  Tot=              2.1123
 Quadrupole moment (field-independent basis, Debye-Ang):
   XX=            -76.5047   YY=            -58.5524   ZZ=            -74.0480
   XY=             -3.6720   XZ=             -0.1719   YZ=              0.6645
 Traceless Quadrupole moment (field-independent basis, Debye-Ang):
   XX=             -6.8030   YY=             11.1493   ZZ=             -4.3463
   XY=             -3.6720   XZ=             -0.1719   YZ=              0.6645
 Octapole moment (field-independent basis, Debye-Ang**2):
  XXX=              8.0956  YYY=            -34.5951  ZZZ=              0.4976  XYY=             19.0556
  XXY=            -14.4139  XXZ=             -1.6871  XZZ=              1.5572  YZZ=              3.8585
  YYZ=             -0.5072  XYZ=              0.8327
 Hexadecapole moment (field-independent basis, Debye-Ang**3):
 XXXX=          -1487.6668 YYYY=           -970.1108 ZZZZ=           -100.7830 XXXY=            -62.1553
 XXXZ=             -4.2384 YYYX=            -73.7640 YYYZ=              7.8300 ZZZX=             -0.0094
 ZZZY=             -0.1946 XXYY=           -350.8555 XXZZ=           -265.7816 YYZZ=           -201.3285
 XXYZ=              1.8077 YYXZ=              0.6851 ZZXY=             -4.6175
 N-N= 6.694548782952D+02 E-N=-3.416668971337D+03  KE= 8.801306459121D+02
 Entering OneElI...
 OneElI was handed   235858363 working-precision words.
 Calculate electrostatic properties
    NBasis =   176  MinDer = 0  MaxDer = 0
    NGrid  =    20  NMatD  =   1
 Requested accuracy = 0.1000D-12
 ShPair: Thresh= 1.00D-13 NBox=     0 BxSize= 0.00D+00 RnKept= 1.27D+01
         NSMCal=                 2016 NSMKep=                1765
 PrsmSu:  NPrtUS=   1 ThrOK=F IAlg=1 NPAlg=1 LenDen=           0.
 Prism:   IPart=     0 DynPar=F LinDyn=F Incr=         353.
 PRISM was handed   235693695 working-precision words and  1765 shell-pairs
 IPart=  0 NShTot=       35300 NBatch=        1766 AvBLen=        20.0
 PrSmSu:  NxtVal=            354.
 --------------------------------------------------------
       Center         ----      EFG at Nuclei      ----
                      3XX-RR        3YY-RR        3ZZ-RR
 --------------------------------------------------------
     1   Atom        0.128089      0.053264     -0.181353
     2   Atom        0.181399      0.137990     -0.319388
     3   Atom       -0.309296      0.306069      0.003227
     4   Atom        0.193975      0.155282     -0.349258
     5   Atom        0.134276      0.109322     -0.243599
     6   Atom       -0.124125      0.370521     -0.246396
     7   Atom       -0.899921     -0.798413      1.698334
     8   Atom        0.031744     -0.074786      0.043041
     9   Atom       -0.063147      0.018594      0.044553
    10   Atom        0.034305     -0.078723      0.044417
    11   Atom       -3.351775      1.596693      1.755082
    12   Atom        0.096744     -0.269063      0.172319
    13   Atom       -0.065773     -0.099767      0.165540
    14   Atom        0.177968     -0.430966      0.252998
    15   Atom        0.090495      0.135520     -0.226015
    16   Atom       -0.125793      0.144665     -0.018872
    17   Atom        0.128617     -0.183315      0.054698
    18   Atom        0.143156      0.136316     -0.279472
    19   Atom       -0.078090      0.095780     -0.017690
    20   Atom        0.115300      0.111250     -0.226550
 --------------------------------------------------------
                        XY            XZ            YZ
 --------------------------------------------------------
     1   Atom        0.003205      0.004973      0.011622
     2   Atom       -0.001697      0.005054      0.021112
     3   Atom        0.141889      0.006014      0.015260
     4   Atom       -0.011066      0.006075      0.013755
     5   Atom       -0.014557     -0.000077      0.009172
     6   Atom        0.114422      0.005945      0.029258
     7   Atom        0.886036     -0.005037     -0.113811
     8   Atom       -0.019662     -0.011475      0.008184
     9   Atom        0.015042      0.004901      0.012035
    10   Atom       -0.025971      0.012043      0.000919
    11   Atom        1.126541      0.025572      0.002593
    12   Atom        0.124082      0.004648     -0.018142
    13   Atom       -0.224940     -0.012563     -0.014279
    14   Atom        0.098059      0.003619     -0.033674
    15   Atom       -0.019564     -0.144672     -0.048649
    16   Atom        0.008291      0.215558     -0.006921
    17   Atom       -0.077177     -0.041822     -0.180031
    18   Atom       -0.002059      0.017649      0.073708
    19   Atom        0.102906     -0.195674      0.090787
    20   Atom        0.029060      0.108172     -0.106335
 --------------------------------------------------------


 ---------------------------------------------------------------------------------
              Nuclear Quadrupole Coupling Constant in Principal Axis System
 ---------------------------------------------------------------------------------

       Atom             a.u.   MegaHertz   Gauss  10(-4) cm-1        Axes

              Baa    -3.5963   -68.994   -24.619   -23.014  0.9773 -0.2120 -0.0046
    11 Cl(35) Bbb     1.7545    33.659    12.010    11.227 -0.0149 -0.0903  0.9958
              Bcc     1.8418    35.335    12.608    11.786  0.2115  0.9731  0.0915
 

 ---------------------------------------------------------------------------------

 No NMR shielding tensors so no spin-rotation constants.
 Leave Link  601 at Thu Jan 16 21:47:14 2014, MaxMem=   235929600 cpu:         0.3
 FitSet:  NAtFit=    20 NAtPot=    20 NAtFrz=     0 MDM=    24 TotChg=   0.00000
 Merz-Kollman atomic radii used.
 Atom Element Radius
    1     6    1.50
    2     6    1.50
    3     6    1.50
    4     6    1.50
    5     6    1.50
    6     6    1.50
    7     8    1.40
    8     6    1.50
    9     6    1.50
   10     6    1.50
   11    17    1.70
   12     1    1.20
   13     1    1.20
   14     1    1.20
   15     1    1.20
   16     1    1.20
   17     1    1.20
   18     1    1.20
   19     1    1.20
   20     1    1.20
 Generate VDW surfaces: Layer= 5 Dens= 2 Start= 1.400 Inc= 0.179

 **********************************************************************

            Electrostatic Properties Using The SCF Density

 **********************************************************************

       Atomic Center    1 is at   0.548228 -2.142951 -0.050903
       Atomic Center    2 is at  -0.812595 -1.830693 -0.052747
       Atomic Center    3 is at  -1.218899 -0.497918 -0.000232
       Atomic Center    4 is at  -0.270500  0.522153  0.042425
       Atomic Center    5 is at   1.091736  0.204811  0.045037
       Atomic Center    6 is at   1.509293 -1.126584  0.004452
       Atomic Center    7 is at   2.856352 -1.372019  0.017684
       Atomic Center    8 is at   1.940745  1.452993  0.118942
       Atomic Center    9 is at   0.936786  2.576885 -0.246010
       Atomic Center   10 is at  -0.464425  2.020111  0.115579
       Atomic Center   11 is at  -2.940607 -0.113956  0.007185
       Atomic Center   12 is at   0.859691 -3.185053 -0.093522
       Atomic Center   13 is at  -1.553597 -2.621811 -0.096134
       Atomic Center   14 is at   3.002710 -2.329614 -0.029300
       Atomic Center   15 is at   2.339526  1.583531  1.135496
       Atomic Center   16 is at   2.805855  1.418021 -0.551718
       Atomic Center   17 is at   1.157611  3.522328  0.258518
       Atomic Center   18 is at   0.981663  2.764133 -1.325170
       Atomic Center   19 is at  -1.252687  2.378770 -0.554276
       Atomic Center   20 is at  -0.763478  2.310253  1.133223
      ESP Fit Center   21 is at   0.548228 -2.142951  2.049097
      ESP Fit Center   22 is at   1.266470 -2.142951  1.922452
      ESP Fit Center   23 is at   0.189106 -1.520935  1.922452
      ESP Fit Center   24 is at  -0.170015 -2.142951  1.922452
      ESP Fit Center   25 is at   0.189106 -2.764967  1.922452
      ESP Fit Center   26 is at   0.907349 -2.764967  1.922452
      ESP Fit Center   27 is at  -0.335739 -3.163103  1.557790
      ESP Fit Center   28 is at   0.356123 -3.479065  1.557790
      ESP Fit Center   29 is at   1.108977 -3.370821  1.557790
      ESP Fit Center   30 is at   1.683797 -2.872737  1.557790
      ESP Fit Center   31 is at  -0.361099 -3.717951  0.999097
      ESP Fit Center   32 is at  -0.335739 -3.163103 -1.659596
      ESP Fit Center   33 is at   1.683797 -2.872737 -1.659596
      ESP Fit Center   34 is at   1.266470 -2.142951 -2.024257
      ESP Fit Center   35 is at   0.907349 -1.520935 -2.024257
      ESP Fit Center   36 is at   0.189106 -1.520935 -2.024257
      ESP Fit Center   37 is at   0.189106 -2.764967 -2.024257
      ESP Fit Center   38 is at   0.907349 -2.764967 -2.024257
      ESP Fit Center   39 is at   0.548228 -2.142951 -2.150903
      ESP Fit Center   40 is at  -0.812595 -1.830693  2.047253
      ESP Fit Center   41 is at  -0.453474 -1.208677  1.920608
      ESP Fit Center   42 is at  -1.530838 -1.830693  1.920608
      ESP Fit Center   43 is at  -1.171717 -2.452709  1.920608
      ESP Fit Center   44 is at  -0.453474 -2.452709  1.920608
      ESP Fit Center   45 is at  -2.107771 -2.210990  1.555946
      ESP Fit Center   46 is at  -1.004700 -3.166807  1.555946
      ESP Fit Center   47 is at  -2.107771 -2.210990 -1.661440
      ESP Fit Center   48 is at  -1.004700 -3.166807 -1.661440
      ESP Fit Center   49 is at  -0.094353 -1.830693 -2.026101
      ESP Fit Center   50 is at  -0.453474 -1.208677 -2.026101
      ESP Fit Center   51 is at  -1.171717 -1.208677 -2.026101
      ESP Fit Center   52 is at  -1.530838 -1.830693 -2.026101
      ESP Fit Center   53 is at  -1.171717 -2.452709 -2.026101
      ESP Fit Center   54 is at  -0.453474 -2.452709 -2.026101
      ESP Fit Center   55 is at  -0.812595 -1.830693 -2.152747
      ESP Fit Center   56 is at  -1.218899 -0.497918  2.099768
      ESP Fit Center   57 is at  -0.500657 -0.497918  1.973123
      ESP Fit Center   58 is at  -1.578020  0.124098  1.973123
      ESP Fit Center   59 is at  -1.578020 -1.119934  1.973123
      ESP Fit Center   60 is at  -0.859778 -1.119934  1.973123
      ESP Fit Center   61 is at  -0.500657 -0.497918 -1.973586
      ESP Fit Center   62 is at  -0.859778  0.124098 -1.973586
      ESP Fit Center   63 is at  -1.578020  0.124098 -1.973586
      ESP Fit Center   64 is at  -1.578020 -1.119934 -1.973586
      ESP Fit Center   65 is at  -1.218899 -0.497918 -2.100232
      ESP Fit Center   66 is at  -0.270500  0.522153  2.142425
      ESP Fit Center   67 is at   0.088621  1.144169  2.015780
      ESP Fit Center   68 is at  -0.988742  0.522153  2.015780
      ESP Fit Center   69 is at  -0.629621 -0.099863  2.015780
      ESP Fit Center   70 is at   0.088621 -0.099863  2.015780
      ESP Fit Center   71 is at   0.447742  0.522153 -1.930929
      ESP Fit Center   72 is at   0.088621  1.144169 -1.930929
      ESP Fit Center   73 is at  -0.629621  1.144169 -1.930929
      ESP Fit Center   74 is at  -0.988742  0.522153 -1.930929
      ESP Fit Center   75 is at   0.088621 -0.099863 -1.930929
      ESP Fit Center   76 is at  -0.270500  0.522153 -2.057575
      ESP Fit Center   77 is at   1.091736  0.204811  2.145037
      ESP Fit Center   78 is at   1.809978  0.204811  2.018392
      ESP Fit Center   79 is at   0.732615  0.826827  2.018392
      ESP Fit Center   80 is at   0.373494  0.204811  2.018392
      ESP Fit Center   81 is at   0.732615 -0.417205  2.018392
      ESP Fit Center   82 is at   1.450857 -0.417205  2.018392
      ESP Fit Center   83 is at   0.207770 -0.815341  1.653730
      ESP Fit Center   84 is at   1.809978  0.204811 -1.928317
      ESP Fit Center   85 is at   1.450857  0.826827 -1.928317
      ESP Fit Center   86 is at   0.732615  0.826827 -1.928317
      ESP Fit Center   87 is at   0.732615 -0.417205 -1.928317
      ESP Fit Center   88 is at   1.091736  0.204811 -2.054963
      ESP Fit Center   89 is at   1.509293 -1.126584  2.104452
      ESP Fit Center   90 is at   2.227535 -1.126584  1.977807
      ESP Fit Center   91 is at   1.868414 -0.504568  1.977807
      ESP Fit Center   92 is at   0.791050 -1.126584  1.977807
      ESP Fit Center   93 is at   1.150172 -1.748600  1.977807
      ESP Fit Center   94 is at   1.868414 -1.748600  1.977807
      ESP Fit Center   95 is at   2.070042 -2.354455  1.613145
      ESP Fit Center   96 is at   2.070042 -2.354455 -1.604241
      ESP Fit Center   97 is at   2.227535 -1.126584 -1.968902
      ESP Fit Center   98 is at   1.868414 -0.504568 -1.968902
      ESP Fit Center   99 is at   1.150172 -0.504568 -1.968902
      ESP Fit Center  100 is at   0.791050 -1.126584 -1.968902
      ESP Fit Center  101 is at   1.868414 -1.748600 -1.968902
      ESP Fit Center  102 is at   1.509293 -1.126584 -2.095548
      ESP Fit Center  103 is at   2.856352 -1.372019  1.977684
      ESP Fit Center  104 is at   3.606411 -1.372019  1.828488
      ESP Fit Center  105 is at   3.231381 -0.722448  1.828488
      ESP Fit Center  106 is at   2.481322 -0.722448  1.828488
      ESP Fit Center  107 is at   2.481322 -2.021589  1.828488
      ESP Fit Center  108 is at   3.231381 -2.021589  1.828488
      ESP Fit Center  109 is at   4.242281 -1.372019  1.403613
      ESP Fit Center  110 is at   4.056602 -0.679054  1.403613
      ESP Fit Center  111 is at   3.549316 -0.171769  1.403613
      ESP Fit Center  112 is at   4.056602 -2.064983  1.403613
      ESP Fit Center  113 is at   4.667156 -1.372019  0.767744
      ESP Fit Center  114 is at   4.510603 -0.635498  0.767744
      ESP Fit Center  115 is at   4.068016 -0.026329  0.767744
      ESP Fit Center  116 is at   4.510603 -2.108539  0.767744
      ESP Fit Center  117 is at   4.816352 -1.372019  0.017684
      ESP Fit Center  118 is at   4.683997 -0.663985  0.017684
      ESP Fit Center  119 is at   4.304809 -0.051575  0.017684
      ESP Fit Center  120 is at   4.683997 -2.080052  0.017684
      ESP Fit Center  121 is at   4.667156 -1.372019 -0.732375
      ESP Fit Center  122 is at   4.510603 -0.635498 -0.732375
      ESP Fit Center  123 is at   4.068016 -0.026329 -0.732375
      ESP Fit Center  124 is at   4.242281 -1.372019 -1.368245
      ESP Fit Center  125 is at   4.056602 -0.679054 -1.368245
      ESP Fit Center  126 is at   3.549316 -0.171769 -1.368245
      ESP Fit Center  127 is at   4.056602 -2.064983 -1.368245
      ESP Fit Center  128 is at   3.606411 -1.372019 -1.793120
      ESP Fit Center  129 is at   3.231381 -0.722448 -1.793120
      ESP Fit Center  130 is at   2.481322 -2.021589 -1.793120
      ESP Fit Center  131 is at   3.231381 -2.021589 -1.793120
      ESP Fit Center  132 is at   2.856352 -1.372019 -1.942316
      ESP Fit Center  133 is at   3.469087  2.846260  0.483603
      ESP Fit Center  134 is at   2.862575  3.304277  0.483603
      ESP Fit Center  135 is at   0.936786  2.576885  1.853990
      ESP Fit Center  136 is at   2.865228  3.323967 -0.610671
      ESP Fit Center  137 is at  -0.309521  4.227261 -0.610671
      ESP Fit Center  138 is at   2.598208  3.316598 -1.296010
      ESP Fit Center  139 is at   0.027459  4.151885 -1.296010
      ESP Fit Center  140 is at  -1.030386  4.009259  0.480240
      ESP Fit Center  141 is at  -1.710731  3.670488  0.480240
      ESP Fit Center  142 is at  -0.823546  1.398095 -1.857775
      ESP Fit Center  143 is at  -2.940607 -0.113956  2.387185
      ESP Fit Center  144 is at  -2.205147 -0.113956  2.270700
      ESP Fit Center  145 is at  -2.572877  0.522971  2.270700
      ESP Fit Center  146 is at  -3.308337  0.522971  2.270700
      ESP Fit Center  147 is at  -3.676067 -0.113956  2.270700
      ESP Fit Center  148 is at  -3.308337 -0.750884  2.270700
      ESP Fit Center  149 is at  -2.572877 -0.750884  2.270700
      ESP Fit Center  150 is at  -1.729099  0.585508  1.932646
      ESP Fit Center  151 is at  -2.241143  1.097552  1.932646
      ESP Fit Center  152 is at  -2.940607  1.284973  1.932646
      ESP Fit Center  153 is at  -3.640071  1.097552  1.932646
      ESP Fit Center  154 is at  -4.152115  0.585508  1.932646
      ESP Fit Center  155 is at  -4.339536 -0.113956  1.932646
      ESP Fit Center  156 is at  -4.152115 -0.813421  1.932646
      ESP Fit Center  157 is at  -3.640071 -1.325464  1.932646
      ESP Fit Center  158 is at  -2.940607 -1.512885  1.932646
      ESP Fit Center  159 is at  -2.241143 -1.325464  1.932646
      ESP Fit Center  160 is at  -2.940607  1.811504  1.406114
      ESP Fit Center  161 is at  -3.677449  1.664937  1.406114
      ESP Fit Center  162 is at  -4.302113  1.247550  1.406114
      ESP Fit Center  163 is at  -4.719501  0.622886  1.406114
      ESP Fit Center  164 is at  -4.866067 -0.113956  1.406114
      ESP Fit Center  165 is at  -4.719501 -0.850798  1.406114
      ESP Fit Center  166 is at  -4.302113 -1.475462  1.406114
      ESP Fit Center  167 is at  -3.677449 -1.892850  1.406114
      ESP Fit Center  168 is at  -2.940607 -2.039417  1.406114
      ESP Fit Center  169 is at  -3.127527  2.141827  0.742646
      ESP Fit Center  170 is at  -3.849850  1.958910  0.742646
      ESP Fit Center  171 is at  -4.473644  1.551366  0.742646
      ESP Fit Center  172 is at  -4.931309  0.963358  0.742646
      ESP Fit Center  173 is at  -5.173250  0.258606  0.742646
      ESP Fit Center  174 is at  -5.173250 -0.486518  0.742646
      ESP Fit Center  175 is at  -4.931309 -1.191270  0.742646
      ESP Fit Center  176 is at  -4.473644 -1.779278  0.742646
      ESP Fit Center  177 is at  -3.849850 -2.186822  0.742646
      ESP Fit Center  178 is at  -3.127527 -2.369740  0.742646
      ESP Fit Center  179 is at  -3.470207  2.206372  0.007185
      ESP Fit Center  180 is at  -4.130607  1.947184  0.007185
      ESP Fit Center  181 is at  -4.685270  1.504855  0.007185
      ESP Fit Center  182 is at  -5.084913  0.918687  0.007185
      ESP Fit Center  183 is at  -5.294024  0.240764  0.007185
      ESP Fit Center  184 is at  -5.294024 -0.468677  0.007185
      ESP Fit Center  185 is at  -5.084913 -1.146599  0.007185
      ESP Fit Center  186 is at  -4.685270 -1.732767  0.007185
      ESP Fit Center  187 is at  -4.130607 -2.175097  0.007185
      ESP Fit Center  188 is at  -3.470207 -2.434285  0.007185
      ESP Fit Center  189 is at  -3.127527  2.141827 -0.728275
      ESP Fit Center  190 is at  -3.849850  1.958910 -0.728275
      ESP Fit Center  191 is at  -4.473644  1.551366 -0.728275
      ESP Fit Center  192 is at  -4.931309  0.963358 -0.728275
      ESP Fit Center  193 is at  -5.173250  0.258606 -0.728275
      ESP Fit Center  194 is at  -5.173250 -0.486518 -0.728275
      ESP Fit Center  195 is at  -4.931309 -1.191270 -0.728275
      ESP Fit Center  196 is at  -4.473644 -1.779278 -0.728275
      ESP Fit Center  197 is at  -3.849850 -2.186822 -0.728275
      ESP Fit Center  198 is at  -3.127527 -2.369740 -0.728275
      ESP Fit Center  199 is at  -2.940607  1.811504 -1.391744
      ESP Fit Center  200 is at  -3.677449  1.664937 -1.391744
      ESP Fit Center  201 is at  -4.302113  1.247550 -1.391744
      ESP Fit Center  202 is at  -4.719501  0.622886 -1.391744
      ESP Fit Center  203 is at  -4.866067 -0.113956 -1.391744
      ESP Fit Center  204 is at  -4.719501 -0.850798 -1.391744
      ESP Fit Center  205 is at  -4.302113 -1.475462 -1.391744
      ESP Fit Center  206 is at  -3.677449 -1.892850 -1.391744
      ESP Fit Center  207 is at  -2.940607 -2.039417 -1.391744
      ESP Fit Center  208 is at  -1.729099  0.585508 -1.918275
      ESP Fit Center  209 is at  -2.241143  1.097552 -1.918275
      ESP Fit Center  210 is at  -2.940607  1.284973 -1.918275
      ESP Fit Center  211 is at  -3.640071  1.097552 -1.918275
      ESP Fit Center  212 is at  -4.152115  0.585508 -1.918275
      ESP Fit Center  213 is at  -4.339536 -0.113956 -1.918275
      ESP Fit Center  214 is at  -4.152115 -0.813421 -1.918275
      ESP Fit Center  215 is at  -3.640071 -1.325464 -1.918275
      ESP Fit Center  216 is at  -2.940607 -1.512885 -1.918275
      ESP Fit Center  217 is at  -2.241143 -1.325464 -1.918275
      ESP Fit Center  218 is at  -2.205147 -0.113956 -2.256329
      ESP Fit Center  219 is at  -2.572877  0.522971 -2.256329
      ESP Fit Center  220 is at  -3.308337  0.522971 -2.256329
      ESP Fit Center  221 is at  -3.676067 -0.113956 -2.256329
      ESP Fit Center  222 is at  -3.308337 -0.750884 -2.256329
      ESP Fit Center  223 is at  -2.572877 -0.750884 -2.256329
      ESP Fit Center  224 is at  -2.940607 -0.113956 -2.372815
      ESP Fit Center  225 is at   0.495229 -3.816320  1.420106
      ESP Fit Center  226 is at   1.224154 -3.816320  1.420106
      ESP Fit Center  227 is at  -0.202934 -3.957095  0.953941
      ESP Fit Center  228 is at   0.453805 -4.434244  0.953941
      ESP Fit Center  229 is at   1.265578 -4.434244  0.953941
      ESP Fit Center  230 is at   1.922316 -3.957095  0.953941
      ESP Fit Center  231 is at  -0.366279 -4.271168  0.280313
      ESP Fit Center  232 is at   0.278891 -4.716496  0.280313
      ESP Fit Center  233 is at   1.057116 -4.810990  0.280313
      ESP Fit Center  234 is at   1.790113 -4.533001  0.280313
      ESP Fit Center  235 is at   2.309961 -3.946213  0.280313
      ESP Fit Center  236 is at  -0.366279 -4.271168 -0.467357
      ESP Fit Center  237 is at   0.278891 -4.716496 -0.467357
      ESP Fit Center  238 is at   1.057116 -4.810990 -0.467357
      ESP Fit Center  239 is at   1.790113 -4.533001 -0.467357
      ESP Fit Center  240 is at   2.309961 -3.946213 -0.467357
      ESP Fit Center  241 is at  -0.202934 -3.957095 -1.140985
      ESP Fit Center  242 is at   0.453805 -4.434244 -1.140985
      ESP Fit Center  243 is at   1.265578 -4.434244 -1.140985
      ESP Fit Center  244 is at   1.922316 -3.957095 -1.140985
      ESP Fit Center  245 is at   1.588616 -3.185053 -1.607150
      ESP Fit Center  246 is at   0.495229 -3.816320 -1.607150
      ESP Fit Center  247 is at   1.224154 -3.816320 -1.607150
      ESP Fit Center  248 is at  -2.282521 -2.621811  1.417494
      ESP Fit Center  249 is at  -1.918059 -3.253078  1.417494
      ESP Fit Center  250 is at  -2.867073 -2.621811  0.951329
      ESP Fit Center  251 is at  -2.616222 -3.393853  0.951329
      ESP Fit Center  252 is at  -1.959483 -3.871001  0.951329
      ESP Fit Center  253 is at  -1.147710 -3.871001  0.951329
      ESP Fit Center  254 is at  -3.143882 -3.013781  0.277701
      ESP Fit Center  255 is at  -2.779567 -3.707925  0.277701
      ESP Fit Center  256 is at  -2.134396 -4.153254  0.277701
      ESP Fit Center  257 is at  -1.356172 -4.247747  0.277701
      ESP Fit Center  258 is at  -0.623175 -3.969758  0.277701
      ESP Fit Center  259 is at  -3.143882 -3.013781 -0.469969
      ESP Fit Center  260 is at  -2.779567 -3.707925 -0.469969
      ESP Fit Center  261 is at  -2.134396 -4.153254 -0.469969
      ESP Fit Center  262 is at  -1.356172 -4.247747 -0.469969
      ESP Fit Center  263 is at  -0.623175 -3.969758 -0.469969
      ESP Fit Center  264 is at  -2.867073 -2.621811 -1.143597
      ESP Fit Center  265 is at  -2.616222 -3.393853 -1.143597
      ESP Fit Center  266 is at  -1.959483 -3.871001 -1.143597
      ESP Fit Center  267 is at  -1.147710 -3.871001 -1.143597
      ESP Fit Center  268 is at  -2.282521 -2.621811 -1.609762
      ESP Fit Center  269 is at  -1.918059 -3.253078 -1.609762
      ESP Fit Center  270 is at  -1.189134 -3.253078 -1.609762
      ESP Fit Center  271 is at   2.638248 -2.960881  1.484328
      ESP Fit Center  272 is at   3.367173 -2.960881  1.484328
      ESP Fit Center  273 is at   4.316187 -2.329614  1.018163
      ESP Fit Center  274 is at   2.596824 -3.578804  1.018163
      ESP Fit Center  275 is at   3.408597 -3.578804  1.018163
      ESP Fit Center  276 is at   4.065336 -3.101656  1.018163
      ESP Fit Center  277 is at   4.640589 -2.329614  0.344535
      ESP Fit Center  278 is at   2.421911 -3.861057  0.344535
      ESP Fit Center  279 is at   3.200135 -3.955550  0.344535
      ESP Fit Center  280 is at   3.933132 -3.677561  0.344535
      ESP Fit Center  281 is at   4.452980 -3.090774  0.344535
      ESP Fit Center  282 is at   4.640589 -2.329614 -0.403135
      ESP Fit Center  283 is at   2.421911 -3.861057 -0.403135
      ESP Fit Center  284 is at   3.200135 -3.955550 -0.403135
      ESP Fit Center  285 is at   3.933132 -3.677561 -0.403135
      ESP Fit Center  286 is at   4.452980 -3.090774 -0.403135
      ESP Fit Center  287 is at   4.316187 -2.329614 -1.076763
      ESP Fit Center  288 is at   2.596824 -3.578804 -1.076763
      ESP Fit Center  289 is at   3.408597 -3.578804 -1.076763
      ESP Fit Center  290 is at   4.065336 -3.101656 -1.076763
      ESP Fit Center  291 is at   3.731635 -2.329614 -1.542928
      ESP Fit Center  292 is at   2.638248 -2.960881 -1.542928
      ESP Fit Center  293 is at   3.367173 -2.960881 -1.542928
      ESP Fit Center  294 is at   3.002710 -2.329614 -1.709300
      ESP Fit Center  295 is at   2.339526  1.583531  2.815496
      ESP Fit Center  296 is at   3.068451  1.583531  2.649124
      ESP Fit Center  297 is at   2.703989  2.214798  2.649124
      ESP Fit Center  298 is at   1.975064  2.214798  2.649124
      ESP Fit Center  299 is at   1.610602  1.583531  2.649124
      ESP Fit Center  300 is at   1.975064  0.952263  2.649124
      ESP Fit Center  301 is at   2.703989  0.952263  2.649124
      ESP Fit Center  302 is at   3.653003  1.583531  2.182959
      ESP Fit Center  303 is at   3.402152  2.355573  2.182959
      ESP Fit Center  304 is at   2.745413  2.832721  2.182959
      ESP Fit Center  305 is at   1.933640  2.832721  2.182959
      ESP Fit Center  306 is at   1.276901  2.355573  2.182959
      ESP Fit Center  307 is at   1.026050  1.583531  2.182959
      ESP Fit Center  308 is at   1.276901  0.811488  2.182959
      ESP Fit Center  309 is at   1.933640  0.334340  2.182959
      ESP Fit Center  310 is at   2.745413  0.334340  2.182959
      ESP Fit Center  311 is at   3.402152  0.811488  2.182959
      ESP Fit Center  312 is at   3.977405  1.583531  1.509331
      ESP Fit Center  313 is at   3.789796  2.344691  1.509331
      ESP Fit Center  314 is at   3.269948  2.931478  1.509331
      ESP Fit Center  315 is at   2.536951  3.209467  1.509331
      ESP Fit Center  316 is at   3.269948  0.235583  1.509331
      ESP Fit Center  317 is at   3.789796  0.822370  1.509331
      ESP Fit Center  318 is at   3.977405  1.583531  0.761661
      ESP Fit Center  319 is at   3.789796  2.344691  0.761661
      ESP Fit Center  320 is at   4.119332  1.418021  0.495745
      ESP Fit Center  321 is at   3.868480  0.645979  0.495745
      ESP Fit Center  322 is at   4.443734  1.418021 -0.177883
      ESP Fit Center  323 is at   4.256125  2.179182 -0.177883
      ESP Fit Center  324 is at   3.736277  2.765969 -0.177883
      ESP Fit Center  325 is at   4.256125  0.656861 -0.177883
      ESP Fit Center  326 is at   4.443734  1.418021 -0.925553
      ESP Fit Center  327 is at   4.256125  2.179182 -0.925553
      ESP Fit Center  328 is at   3.736277  2.765969 -0.925553
      ESP Fit Center  329 is at   3.003280  3.043958 -0.925553
      ESP Fit Center  330 is at   4.256125  0.656861 -0.925553
      ESP Fit Center  331 is at   4.119332  1.418021 -1.599181
      ESP Fit Center  332 is at   3.868480  2.190064 -1.599181
      ESP Fit Center  333 is at   3.211742  2.667212 -1.599181
      ESP Fit Center  334 is at   2.399969  0.168831 -1.599181
      ESP Fit Center  335 is at   3.211742  0.168831 -1.599181
      ESP Fit Center  336 is at   3.868480  0.645979 -1.599181
      ESP Fit Center  337 is at   3.534780  1.418021 -2.065346
      ESP Fit Center  338 is at   3.170318  2.049289 -2.065346
      ESP Fit Center  339 is at   2.441393  2.049289 -2.065346
      ESP Fit Center  340 is at   2.076931  1.418021 -2.065346
      ESP Fit Center  341 is at   2.441393  0.786754 -2.065346
      ESP Fit Center  342 is at   3.170318  0.786754 -2.065346
      ESP Fit Center  343 is at   2.805855  1.418021 -2.231718
      ESP Fit Center  344 is at   1.157611  3.522328  1.938518
      ESP Fit Center  345 is at   1.886536  3.522328  1.772146
      ESP Fit Center  346 is at   1.522073  4.153595  1.772146
      ESP Fit Center  347 is at   0.793149  4.153595  1.772146
      ESP Fit Center  348 is at   0.428686  3.522328  1.772146
      ESP Fit Center  349 is at   2.471088  3.522328  1.305981
      ESP Fit Center  350 is at   2.220236  4.294370  1.305981
      ESP Fit Center  351 is at   1.563498  4.771519  1.305981
      ESP Fit Center  352 is at   0.751724  4.771519  1.305981
      ESP Fit Center  353 is at   0.094986  4.294370  1.305981
      ESP Fit Center  354 is at   2.795490  3.522328  0.632353
      ESP Fit Center  355 is at   2.607881  4.283488  0.632353
      ESP Fit Center  356 is at   2.088032  4.870276  0.632353
      ESP Fit Center  357 is at   1.355035  5.148265  0.632353
      ESP Fit Center  358 is at   0.576811  5.053771  0.632353
      ESP Fit Center  359 is at  -0.068359  4.608442  0.632353
      ESP Fit Center  360 is at   2.607881  4.283488 -0.115317
      ESP Fit Center  361 is at   2.088032  4.870276 -0.115317
      ESP Fit Center  362 is at   1.355035  5.148265 -0.115317
      ESP Fit Center  363 is at   0.576811  5.053771 -0.115317
      ESP Fit Center  364 is at  -0.068359  4.608442 -0.115317
      ESP Fit Center  365 is at   2.220236  4.294370 -0.788945
      ESP Fit Center  366 is at   1.563498  4.771519 -0.788945
      ESP Fit Center  367 is at   0.751724  4.771519 -0.788945
      ESP Fit Center  368 is at   2.619542  2.764133 -1.699005
      ESP Fit Center  369 is at   2.431932  3.525293 -1.699005
      ESP Fit Center  370 is at   1.912084  4.112081 -1.699005
      ESP Fit Center  371 is at   1.179087  4.390070 -1.699005
      ESP Fit Center  372 is at   0.400863  4.295576 -1.699005
      ESP Fit Center  373 is at  -0.244307  3.850247 -1.699005
      ESP Fit Center  374 is at   2.295140  2.764133 -2.372633
      ESP Fit Center  375 is at   2.044288  3.536175 -2.372633
      ESP Fit Center  376 is at   1.387549  4.013324 -2.372633
      ESP Fit Center  377 is at   0.575776  4.013324 -2.372633
      ESP Fit Center  378 is at  -0.080962  3.536175 -2.372633
      ESP Fit Center  379 is at  -0.331814  2.764133 -2.372633
      ESP Fit Center  380 is at  -0.080962  1.992091 -2.372633
      ESP Fit Center  381 is at   0.575776  1.514942 -2.372633
      ESP Fit Center  382 is at   1.387549  1.514942 -2.372633
      ESP Fit Center  383 is at   2.044288  1.992091 -2.372633
      ESP Fit Center  384 is at   1.710587  2.764133 -2.838798
      ESP Fit Center  385 is at   1.346125  3.395400 -2.838798
      ESP Fit Center  386 is at   0.617200  3.395400 -2.838798
      ESP Fit Center  387 is at   0.252738  2.764133 -2.838798
      ESP Fit Center  388 is at   0.617200  2.132866 -2.838798
      ESP Fit Center  389 is at   1.346125  2.132866 -2.838798
      ESP Fit Center  390 is at   0.981663  2.764133 -3.005170
      ESP Fit Center  391 is at  -2.315313  3.150813  0.493187
      ESP Fit Center  392 is at  -2.566164  2.378770  0.493187
      ESP Fit Center  393 is at  -1.833487  3.910214 -0.180441
      ESP Fit Center  394 is at  -2.478657  3.464885 -0.180441
      ESP Fit Center  395 is at  -2.842973  2.770740 -0.180441
      ESP Fit Center  396 is at  -1.055263  4.004707 -0.928111
      ESP Fit Center  397 is at  -1.833487  3.910214 -0.928111
      ESP Fit Center  398 is at  -2.478657  3.464885 -0.928111
      ESP Fit Center  399 is at  -2.842973  2.770740 -0.928111
      ESP Fit Center  400 is at  -0.846801  3.627961 -1.601739
      ESP Fit Center  401 is at  -1.658574  3.627961 -1.601739
      ESP Fit Center  402 is at  -2.315313  3.150813 -1.601739
      ESP Fit Center  403 is at  -2.566164  2.378770 -1.601739
      ESP Fit Center  404 is at  -2.315313  1.606728 -1.601739
      ESP Fit Center  405 is at  -1.658574  1.129580 -1.601739
      ESP Fit Center  406 is at  -0.523763  2.378770 -2.067904
      ESP Fit Center  407 is at  -0.888225  3.010038 -2.067904
      ESP Fit Center  408 is at  -1.617150  3.010038 -2.067904
      ESP Fit Center  409 is at  -1.981612  2.378770 -2.067904
      ESP Fit Center  410 is at  -1.617150  1.747503 -2.067904
      ESP Fit Center  411 is at  -0.888225  1.747503 -2.067904
      ESP Fit Center  412 is at  -1.252687  2.378770 -2.234276
      ESP Fit Center  413 is at  -0.763478  2.310253  2.813223
      ESP Fit Center  414 is at  -0.034554  2.310253  2.646851
      ESP Fit Center  415 is at  -0.399016  2.941521  2.646851
      ESP Fit Center  416 is at  -1.127941  2.941521  2.646851
      ESP Fit Center  417 is at  -1.492403  2.310253  2.646851
      ESP Fit Center  418 is at  -1.127941  1.678986  2.646851
      ESP Fit Center  419 is at  -0.399016  1.678986  2.646851
      ESP Fit Center  420 is at   0.549998  2.310253  2.180686
      ESP Fit Center  421 is at   0.299147  3.082296  2.180686
      ESP Fit Center  422 is at  -0.357592  3.559444  2.180686
      ESP Fit Center  423 is at  -1.169365  3.559444  2.180686
      ESP Fit Center  424 is at  -1.826104  3.082296  2.180686
      ESP Fit Center  425 is at  -2.076955  2.310253  2.180686
      ESP Fit Center  426 is at  -1.826104  1.538211  2.180686
      ESP Fit Center  427 is at  -1.169365  1.061063  2.180686
      ESP Fit Center  428 is at  -0.357592  1.061063  2.180686
      ESP Fit Center  429 is at   0.299147  1.538211  2.180686
      ESP Fit Center  430 is at  -0.566054  3.936190  1.507058
      ESP Fit Center  431 is at  -1.344278  3.841697  1.507058
      ESP Fit Center  432 is at  -1.989448  3.396368  1.507058
      ESP Fit Center  433 is at  -2.353764  2.702223  1.507058
      ESP Fit Center  434 is at  -2.353764  1.918283  1.507058
      ESP Fit Center  435 is at  -1.344278  3.841697  0.759388
      ESP Fit Center  436 is at  -1.989448  3.396368  0.759388
      ESP Fit Center  437 is at  -2.353764  2.702223  0.759388
      ESP Fit Center  438 is at   0.548228 -2.142951  2.317425
      ESP Fit Center  439 is at   1.280081 -2.142951  2.201511
      ESP Fit Center  440 is at   0.182301 -1.509147  2.201511
      ESP Fit Center  441 is at   0.182301 -2.776755  2.201511
      ESP Fit Center  442 is at   0.914154 -2.776755  2.201511
      ESP Fit Center  443 is at  -0.363383 -3.195006  1.865115
      ESP Fit Center  444 is at   0.350116 -3.520850  1.865115
      ESP Fit Center  445 is at   1.126514 -3.409221  1.865115
      ESP Fit Center  446 is at   1.719310 -2.895560  1.865115
      ESP Fit Center  447 is at  -0.185001 -3.913121  1.341165
      ESP Fit Center  448 is at  -0.363383 -3.195006 -1.966921
      ESP Fit Center  449 is at   0.350116 -3.520850 -1.966921
      ESP Fit Center  450 is at   1.126514 -3.409221 -1.966921
      ESP Fit Center  451 is at   1.719310 -2.895560 -1.966921
      ESP Fit Center  452 is at   1.280081 -2.142951 -2.303317
      ESP Fit Center  453 is at   0.914154 -1.509147 -2.303317
      ESP Fit Center  454 is at   0.182301 -1.509147 -2.303317
      ESP Fit Center  455 is at   0.182301 -2.776755 -2.303317
      ESP Fit Center  456 is at   0.914154 -2.776755 -2.303317
      ESP Fit Center  457 is at   0.548228 -2.142951 -2.419231
      ESP Fit Center  458 is at  -0.812595 -1.830693  2.315581
      ESP Fit Center  459 is at  -0.446669 -1.196889  2.199667
      ESP Fit Center  460 is at  -1.544449 -1.830693  2.199667
      ESP Fit Center  461 is at  -1.178522 -2.464497  2.199667
      ESP Fit Center  462 is at  -0.446669 -2.464497  2.199667
      ESP Fit Center  463 is at  -2.148275 -2.222884  1.863271
      ESP Fit Center  464 is at  -1.724206 -2.882748  1.863271
      ESP Fit Center  465 is at  -1.010707 -3.208592  1.863271
      ESP Fit Center  466 is at  -0.812595 -3.746710  1.339321
      ESP Fit Center  467 is at  -0.812595 -3.746710 -1.444815
      ESP Fit Center  468 is at  -2.148275 -2.222884 -1.968765
      ESP Fit Center  469 is at  -1.724206 -2.882748 -1.968765
      ESP Fit Center  470 is at  -1.010707 -3.208592 -1.968765
      ESP Fit Center  471 is at  -0.446669 -1.196889 -2.305161
      ESP Fit Center  472 is at  -1.178522 -1.196889 -2.305161
      ESP Fit Center  473 is at  -1.544449 -1.830693 -2.305161
      ESP Fit Center  474 is at  -1.178522 -2.464497 -2.305161
      ESP Fit Center  475 is at  -0.446669 -2.464497 -2.305161
      ESP Fit Center  476 is at  -0.812595 -1.830693 -2.421075
      ESP Fit Center  477 is at  -1.218899 -0.497918  2.368096
      ESP Fit Center  478 is at  -0.487045 -0.497918  2.252182
      ESP Fit Center  479 is at  -1.584826 -1.131721  2.252182
      ESP Fit Center  480 is at  -0.852972 -1.131721  2.252182
      ESP Fit Center  481 is at  -0.487045 -0.497918 -2.252646
      ESP Fit Center  482 is at  -0.852972  0.135886 -2.252646
      ESP Fit Center  483 is at  -1.584826 -1.131721 -2.252646
      ESP Fit Center  484 is at  -1.218899 -0.497918 -2.368560
      ESP Fit Center  485 is at  -0.270500  0.522153  2.410753
      ESP Fit Center  486 is at  -1.002354  0.522153  2.294839
      ESP Fit Center  487 is at  -0.636427 -0.111651  2.294839
      ESP Fit Center  488 is at   0.095427 -0.111651  2.294839
      ESP Fit Center  489 is at   0.095427  1.155957 -2.209989
      ESP Fit Center  490 is at  -0.636427  1.155957 -2.209989
      ESP Fit Center  491 is at  -1.002354  0.522153 -2.209989
      ESP Fit Center  492 is at   0.095427 -0.111651 -2.209989
      ESP Fit Center  493 is at  -0.270500  0.522153 -2.325903
      ESP Fit Center  494 is at   1.091736  0.204811  2.413365
      ESP Fit Center  495 is at   0.725809  0.838615  2.297451
      ESP Fit Center  496 is at   0.725809 -0.428993  2.297451
      ESP Fit Center  497 is at   1.457663 -0.428993  2.297451
      ESP Fit Center  498 is at   0.180125 -0.847244  1.961055
      ESP Fit Center  499 is at   1.823590  0.204811 -2.207377
      ESP Fit Center  500 is at   1.457663  0.838615 -2.207377
      ESP Fit Center  501 is at   0.725809  0.838615 -2.207377
      ESP Fit Center  502 is at   0.725809 -0.428993 -2.207377
      ESP Fit Center  503 is at   1.091736  0.204811 -2.323291
      ESP Fit Center  504 is at   1.509293 -1.126584  2.372780
      ESP Fit Center  505 is at   2.241146 -1.126584  2.256866
      ESP Fit Center  506 is at   1.875220 -0.492780  2.256866
      ESP Fit Center  507 is at   0.777439 -1.126584  2.256866
      ESP Fit Center  508 is at   1.143366 -1.760388  2.256866
      ESP Fit Center  509 is at   1.875220 -1.760388  2.256866
      ESP Fit Center  510 is at   2.087579 -2.392854  1.920470
      ESP Fit Center  511 is at   2.087579 -2.392854 -1.911566
      ESP Fit Center  512 is at   2.241146 -1.126584 -2.247962
      ESP Fit Center  513 is at   1.875220 -0.492780 -2.247962
      ESP Fit Center  514 is at   1.143366 -0.492780 -2.247962
      ESP Fit Center  515 is at   0.777439 -1.126584 -2.247962
      ESP Fit Center  516 is at   1.875220 -1.760388 -2.247962
      ESP Fit Center  517 is at   1.509293 -1.126584 -2.363876
      ESP Fit Center  518 is at   2.856352 -1.372019  2.228124
      ESP Fit Center  519 is at   3.612367 -1.372019  2.094818
      ESP Fit Center  520 is at   3.234359 -0.717290  2.094818
      ESP Fit Center  521 is at   2.478344 -2.026747  2.094818
      ESP Fit Center  522 is at   3.234359 -2.026747  2.094818
      ESP Fit Center  523 is at   4.277195 -1.372019  1.710979
      ESP Fit Center  524 is at   4.086838 -0.661597  1.710979
      ESP Fit Center  525 is at   3.566773 -0.141532  1.710979
      ESP Fit Center  526 is at   4.086838 -2.082440  1.710979
      ESP Fit Center  527 is at   4.770649 -1.372019  1.122904
      ESP Fit Center  528 is at   4.624931 -0.639449  1.122904
      ESP Fit Center  529 is at   4.209964 -0.018406  1.122904
      ESP Fit Center  530 is at   4.624931 -2.104588  1.122904
      ESP Fit Center  531 is at   5.033210 -1.372019  0.401523
      ESP Fit Center  532 is at   4.901929 -0.627489  0.401523
      ESP Fit Center  533 is at   4.523922  0.027239  0.401523
      ESP Fit Center  534 is at   4.901929 -2.116548  0.401523
      ESP Fit Center  535 is at   5.033210 -1.372019 -0.366155
      ESP Fit Center  536 is at   4.901929 -0.627489 -0.366155
      ESP Fit Center  537 is at   4.523922  0.027239 -0.366155
      ESP Fit Center  538 is at   4.901929 -2.116548 -0.366155
      ESP Fit Center  539 is at   4.770649 -1.372019 -1.087536
      ESP Fit Center  540 is at   4.624931 -0.639449 -1.087536
      ESP Fit Center  541 is at   4.209964 -0.018406 -1.087536
      ESP Fit Center  542 is at   4.624931 -2.104588 -1.087536
      ESP Fit Center  543 is at   4.277195 -1.372019 -1.675611
      ESP Fit Center  544 is at   4.086838 -0.661597 -1.675611
      ESP Fit Center  545 is at   3.566773 -0.141532 -1.675611
      ESP Fit Center  546 is at   4.086838 -2.082440 -1.675611
      ESP Fit Center  547 is at   3.612367 -1.372019 -2.059450
      ESP Fit Center  548 is at   3.234359 -0.717290 -2.059450
      ESP Fit Center  549 is at   2.478344 -2.026747 -2.059450
      ESP Fit Center  550 is at   3.234359 -2.026747 -2.059450
      ESP Fit Center  551 is at   2.856352 -1.372019 -2.192756
      ESP Fit Center  552 is at   3.172699  3.338638  0.850796
      ESP Fit Center  553 is at   4.071117  0.721635  0.850796
      ESP Fit Center  554 is at   3.856763  2.845061  0.118942
      ESP Fit Center  555 is at   3.332814  3.369010  0.118942
      ESP Fit Center  556 is at   3.172699  3.338638 -0.612912
      ESP Fit Center  557 is at   0.936786  2.576885  2.122318
      ESP Fit Center  558 is at  -0.455283  4.492903 -0.246010
      ESP Fit Center  559 is at   3.067158  3.308243 -0.977864
      ESP Fit Center  560 is at   2.714257  3.960346 -0.977864
      ESP Fit Center  561 is at   0.032001  4.639585 -0.977864
      ESP Fit Center  562 is at  -0.588733  4.234040 -0.977864
      ESP Fit Center  563 is at  -0.650427  4.264832  0.847433
      ESP Fit Center  564 is at  -1.369209  4.082812  0.847433
      ESP Fit Center  565 is at  -1.196278  4.272525  0.115579
      ESP Fit Center  566 is at  -0.830351  1.386307 -2.136835
      ESP Fit Center  567 is at  -2.940607 -0.113956  2.691290
      ESP Fit Center  568 is at  -2.184407 -0.113956  2.582565
      ESP Fit Center  569 is at  -2.562507  0.540932  2.582565
      ESP Fit Center  570 is at  -3.318707  0.540932  2.582565
      ESP Fit Center  571 is at  -3.696807 -0.113956  2.582565
      ESP Fit Center  572 is at  -3.318707 -0.768844  2.582565
      ESP Fit Center  573 is at  -2.562507 -0.768844  2.582565
      ESP Fit Center  574 is at  -1.683886  0.611612  2.265198
      ESP Fit Center  575 is at  -2.215039  1.142765  2.265198
      ESP Fit Center  576 is at  -2.940607  1.337181  2.265198
      ESP Fit Center  577 is at  -3.666175  1.142765  2.265198
      ESP Fit Center  578 is at  -4.197328  0.611612  2.265198
      ESP Fit Center  579 is at  -4.391744 -0.113956  2.265198
      ESP Fit Center  580 is at  -4.197328 -0.839525  2.265198
      ESP Fit Center  581 is at  -3.666175 -1.370678  2.265198
      ESP Fit Center  582 is at  -2.940607 -1.565093  2.265198
      ESP Fit Center  583 is at  -2.215039 -1.370678  2.265198
      ESP Fit Center  584 is at  -2.753440  1.905902  1.764900
      ESP Fit Center  585 is at  -3.495735  1.837118  1.764900
      ESP Fit Center  586 is at  -4.163058  1.504831  1.764900
      ESP Fit Center  587 is at  -4.665282  0.953917  1.764900
      ESP Fit Center  588 is at  -4.934579  0.258782  1.764900
      ESP Fit Center  589 is at  -4.934579 -0.486694  1.764900
      ESP Fit Center  590 is at  -4.665282 -1.181830  1.764900
      ESP Fit Center  591 is at  -4.163058 -1.732743  1.764900
      ESP Fit Center  592 is at  -3.495735 -2.065030  1.764900
      ESP Fit Center  593 is at  -2.753440 -2.133814  1.764900
      ESP Fit Center  594 is at  -2.940607  2.327592  1.122203
      ESP Fit Center  595 is at  -3.695087  2.208094  1.122203
      ESP Fit Center  596 is at  -4.375713  1.861298  1.122203
      ESP Fit Center  597 is at  -4.915861  1.321150  1.122203
      ESP Fit Center  598 is at  -5.262657  0.640524  1.122203
      ESP Fit Center  599 is at  -5.382155 -0.113956  1.122203
      ESP Fit Center  600 is at  -5.262657 -0.868436  1.122203
      ESP Fit Center  601 is at  -4.915861 -1.549062  1.122203
      ESP Fit Center  602 is at  -4.375713 -2.089210  1.122203
      ESP Fit Center  603 is at  -3.695087 -2.436006  1.122203
      ESP Fit Center  604 is at  -3.318707  2.515787  0.389173
      ESP Fit Center  605 is at  -4.044275  2.302740  0.389173
      ESP Fit Center  606 is at  -4.680431  1.893908  0.389173
      ESP Fit Center  607 is at  -5.175637  1.322410  0.389173
      ESP Fit Center  608 is at  -5.489773  0.634547  0.389173
      ESP Fit Center  609 is at  -5.597392 -0.113956  0.389173
      ESP Fit Center  610 is at  -5.489773 -0.862459  0.389173
      ESP Fit Center  611 is at  -5.175637 -1.550323  0.389173
      ESP Fit Center  612 is at  -4.680431 -2.121820  0.389173
      ESP Fit Center  613 is at  -4.044275 -2.530653  0.389173
      ESP Fit Center  614 is at  -3.318707  2.515787 -0.374803
      ESP Fit Center  615 is at  -4.044275  2.302740 -0.374803
      ESP Fit Center  616 is at  -4.680431  1.893908 -0.374803
      ESP Fit Center  617 is at  -5.175637  1.322410 -0.374803
      ESP Fit Center  618 is at  -5.489773  0.634547 -0.374803
      ESP Fit Center  619 is at  -5.597392 -0.113956 -0.374803
      ESP Fit Center  620 is at  -5.489773 -0.862459 -0.374803
      ESP Fit Center  621 is at  -5.175637 -1.550323 -0.374803
      ESP Fit Center  622 is at  -4.680431 -2.121820 -0.374803
      ESP Fit Center  623 is at  -4.044275 -2.530653 -0.374803
      ESP Fit Center  624 is at  -3.695087  2.208094 -1.107833
      ESP Fit Center  625 is at  -4.375713  1.861298 -1.107833
      ESP Fit Center  626 is at  -4.915861  1.321150 -1.107833
      ESP Fit Center  627 is at  -5.262657  0.640524 -1.107833
      ESP Fit Center  628 is at  -5.382155 -0.113956 -1.107833
      ESP Fit Center  629 is at  -5.262657 -0.868436 -1.107833
      ESP Fit Center  630 is at  -4.915861 -1.549062 -1.107833
      ESP Fit Center  631 is at  -4.375713 -2.089210 -1.107833
      ESP Fit Center  632 is at  -3.695087 -2.436006 -1.107833
      ESP Fit Center  633 is at  -2.753440  1.905902 -1.750530
      ESP Fit Center  634 is at  -3.495735  1.837118 -1.750530
      ESP Fit Center  635 is at  -4.163058  1.504831 -1.750530
      ESP Fit Center  636 is at  -4.665282  0.953917 -1.750530
      ESP Fit Center  637 is at  -4.934579  0.258782 -1.750530
      ESP Fit Center  638 is at  -4.934579 -0.486694 -1.750530
      ESP Fit Center  639 is at  -4.665282 -1.181830 -1.750530
      ESP Fit Center  640 is at  -4.163058 -1.732743 -1.750530
      ESP Fit Center  641 is at  -3.495735 -2.065030 -1.750530
      ESP Fit Center  642 is at  -2.753440 -2.133814 -1.750530
      ESP Fit Center  643 is at  -1.683886  0.611612 -2.250828
      ESP Fit Center  644 is at  -2.215039  1.142765 -2.250828
      ESP Fit Center  645 is at  -2.940607  1.337181 -2.250828
      ESP Fit Center  646 is at  -3.666175  1.142765 -2.250828
      ESP Fit Center  647 is at  -4.197328  0.611612 -2.250828
      ESP Fit Center  648 is at  -4.391744 -0.113956 -2.250828
      ESP Fit Center  649 is at  -4.197328 -0.839525 -2.250828
      ESP Fit Center  650 is at  -3.666175 -1.370678 -2.250828
      ESP Fit Center  651 is at  -2.940607 -1.565093 -2.250828
      ESP Fit Center  652 is at  -2.215039 -1.370678 -2.250828
      ESP Fit Center  653 is at  -2.184407 -0.113956 -2.568195
      ESP Fit Center  654 is at  -2.562507  0.540932 -2.568195
      ESP Fit Center  655 is at  -3.318707  0.540932 -2.568195
      ESP Fit Center  656 is at  -3.696807 -0.113956 -2.568195
      ESP Fit Center  657 is at  -3.318707 -0.768844 -2.568195
      ESP Fit Center  658 is at  -2.562507 -0.768844 -2.568195
      ESP Fit Center  659 is at  -2.940607 -0.113956 -2.676920
      ESP Fit Center  660 is at   0.497163 -3.812970  1.656918
      ESP Fit Center  661 is at   1.222219 -3.812970  1.656918
      ESP Fit Center  662 is at  -0.017644 -4.197552  1.246207
      ESP Fit Center  663 is at   0.669028 -4.511145  1.246207
      ESP Fit Center  664 is at   1.416235 -4.403713  1.246207
      ESP Fit Center  665 is at   1.986743 -3.909365  1.246207
      ESP Fit Center  666 is at  -0.231690 -4.553602  0.631534
      ESP Fit Center  667 is at   0.470182 -4.891606  0.631534
      ESP Fit Center  668 is at   1.249201 -4.891606  0.631534
      ESP Fit Center  669 is at   1.951073 -4.553602  0.631534
      ESP Fit Center  670 is at  -0.480037 -4.524782 -0.093522
      ESP Fit Center  671 is at   0.134635 -4.935493 -0.093522
      ESP Fit Center  672 is at   0.859691 -5.079716 -0.093522
      ESP Fit Center  673 is at   1.584747 -4.935493 -0.093522
      ESP Fit Center  674 is at   2.199420 -4.524782 -0.093522
      ESP Fit Center  675 is at  -0.231690 -4.553602 -0.818578
      ESP Fit Center  676 is at   0.470182 -4.891606 -0.818578
      ESP Fit Center  677 is at   1.249201 -4.891606 -0.818578
      ESP Fit Center  678 is at   1.951073 -4.553602 -0.818578
      ESP Fit Center  679 is at  -0.017644 -4.197552 -1.433251
      ESP Fit Center  680 is at   0.669028 -4.511145 -1.433251
      ESP Fit Center  681 is at   1.416235 -4.403713 -1.433251
      ESP Fit Center  682 is at   1.986743 -3.909365 -1.433251
      ESP Fit Center  683 is at   0.497163 -3.812970 -1.843962
      ESP Fit Center  684 is at   1.222219 -3.812970 -1.843962
      ESP Fit Center  685 is at  -2.278653 -2.621811  1.654306
      ESP Fit Center  686 is at  -1.916125 -3.249727  1.654306
      ESP Fit Center  687 is at  -2.839057 -2.999256  1.243595
      ESP Fit Center  688 is at  -2.430932 -3.634310  1.243595
      ESP Fit Center  689 is at  -1.744260 -3.947903  1.243595
      ESP Fit Center  690 is at  -0.997053 -3.840471  1.243595
      ESP Fit Center  691 is at  -3.130688 -3.381298  0.628922
      ESP Fit Center  692 is at  -2.644978 -3.990360  0.628922
      ESP Fit Center  693 is at  -1.943106 -4.328363  0.628922
      ESP Fit Center  694 is at  -1.164087 -4.328363  0.628922
      ESP Fit Center  695 is at  -3.304037 -3.346866 -0.096134
      ESP Fit Center  696 is at  -2.893325 -3.961539 -0.096134
      ESP Fit Center  697 is at  -2.278653 -4.372250 -0.096134
      ESP Fit Center  698 is at  -1.553597 -4.516473 -0.096134
      ESP Fit Center  699 is at  -0.828541 -4.372250 -0.096134
      ESP Fit Center  700 is at  -3.130688 -3.381298 -0.821190
      ESP Fit Center  701 is at  -2.644978 -3.990360 -0.821190
      ESP Fit Center  702 is at  -1.943106 -4.328363 -0.821190
      ESP Fit Center  703 is at  -1.164087 -4.328363 -0.821190
      ESP Fit Center  704 is at  -2.839057 -2.999256 -1.435863
      ESP Fit Center  705 is at  -2.430932 -3.634310 -1.435863
      ESP Fit Center  706 is at  -1.744260 -3.947903 -1.435863
      ESP Fit Center  707 is at  -0.997053 -3.840471 -1.435863
      ESP Fit Center  708 is at  -2.278653 -2.621811 -1.846574
      ESP Fit Center  709 is at  -1.916125 -3.249727 -1.846574
      ESP Fit Center  710 is at   2.640182 -2.957530  1.721140
      ESP Fit Center  711 is at   3.365238 -2.957530  1.721140
      ESP Fit Center  712 is at   2.125375 -3.342113  1.310429
      ESP Fit Center  713 is at   2.812047 -3.655706  1.310429
      ESP Fit Center  714 is at   3.559254 -3.548274  1.310429
      ESP Fit Center  715 is at   4.129762 -3.053926  1.310429
      ESP Fit Center  716 is at   4.753150 -2.329614  0.695756
      ESP Fit Center  717 is at   2.613201 -4.036166  0.695756
      ESP Fit Center  718 is at   3.392220 -4.036166  0.695756
      ESP Fit Center  719 is at   4.094092 -3.698163  0.695756
      ESP Fit Center  720 is at   4.579802 -3.089101  0.695756
      ESP Fit Center  721 is at   4.897373 -2.329614 -0.029300
[...]
 1932 Fit       0.002648
 1933 Fit       0.002656
 1934 Fit       0.002596
 1935 Fit       0.002585
 1936 Fit       0.002962
 1937 Fit       0.003027
 1938 Fit       0.002936
 1939 Fit       0.002676
 1940 Fit       0.002023
 1941 Fit       0.000588
 1942 Fit      -0.001115
 1943 Fit      -0.001622
 1944 Fit      -0.000346
 1945 Fit       0.001475
 1946 Fit       0.002467
 1947 Fit       0.002908
 1948 Fit       0.002681
 1949 Fit       0.001784
 1950 Fit       0.000799
 1951 Fit       0.001312
 1952 Fit       0.002210
 1953 Fit       0.000605
 1954 Fit      -0.001440
 1955 Fit      -0.004680
 1956 Fit       0.001502
 1957 Fit       0.000045
 1958 Fit      -0.002297
 1959 Fit      -0.006237
 1960 Fit       0.002427
 1961 Fit       0.001510
 1962 Fit      -0.000056
 1963 Fit      -0.002723
 1964 Fit       0.002625
 1965 Fit       0.001692
 1966 Fit       0.000040
 1967 Fit      -0.002852
 1968 Fit       0.002027
 1969 Fit       0.000347
 1970 Fit      -0.002675
 1971 Fit       0.001932
 1972 Fit       0.000385
 1973 Fit      -0.002500
 1974 Fit      -0.004429
 1975 Fit      -0.002491
 1976 Fit      -0.000722
 1977 Fit       0.000964
 1978 Fit       0.001991
 1979 Fit       0.002787
 1980 Fit       0.001708
 1981 Fit      -0.000481
 1982 Fit      -0.001709
 1983 Fit      -0.000406
 1984 Fit       0.003103
 1985 Fit       0.004093
 1986 Fit       0.003957
 1987 Fit       0.002991
 1988 Fit       0.001280
 1989 Fit      -0.001226
 1990 Fit      -0.004038
 1991 Fit      -0.005516
 1992 Fit      -0.005119
 1993 Fit      -0.003210
 1994 Fit       0.000286
 1995 Fit       0.004811
 1996 Fit       0.003702
 1997 Fit       0.002305
 1998 Fit       0.000431
 1999 Fit      -0.002211
 2000 Fit      -0.005810
 2001 Fit       0.003447
 2002 Fit       0.001878
 2003 Fit      -0.000057
 2004 Fit      -0.002799
 2005 Fit      -0.006946
 2006 Fit       0.000200
 2007 Fit      -0.002381
 2008 Fit      -0.006595
 2009 Fit      -0.004581
 2010 Fit      -0.009850
 2011 Fit      -0.008379
 2012 Fit      -0.004657
 2013 Fit      -0.002614
 2014 Fit      -0.002061
 2015 Fit       0.000708
 2016 Fit       0.002269
 2017 Fit       0.001487
 2018 Fit       0.003096
 2019 Fit       0.005632
 2020 Fit       0.007799
 2021 Fit       0.008816
 2022 Fit       0.007506
 2023 Fit       0.009654
 2024 Fit       0.011109
 2025 Fit       0.004797
 2026 Fit       0.007284
 2027 Fit       0.009422
 2028 Fit       0.010529
 2029 Fit       0.008667
 2030 Fit      -0.000468
 2031 Fit       0.002277
 2032 Fit       0.003833
 2033 Fit       0.003161
 2034 Fit      -0.003281
 2035 Fit      -0.007210
 2036 Fit      -0.009074
 2037 Fit      -0.007249
 2038 Fit      -0.003295
 2039 Fit      -0.001224
 2040 Fit      -0.005479
 2041 Fit      -0.009459
 2042 Fit      -0.009533
 2043 Fit      -0.011212
 2044 Fit      -0.009703
 2045 Fit      -0.007104
 2046 Fit      -0.007168
 2047 Fit      -0.006839
 2048 Fit      -0.004222
 2049 Fit      -0.003320
 2050 Fit      -0.004903
 2051 Fit      -0.001641
 2052 Fit       0.000112
 2053 Fit       0.000751
 2054 Fit       0.004250
 2055 Fit      -0.003357
 2056 Fit      -0.000045
 2057 Fit       0.001761
 2058 Fit       0.002501
 2059 Fit      -0.005427
 2060 Fit      -0.002729
 2061 Fit      -0.001755
 2062 Fit      -0.008551
 2063 Fit      -0.010557
 2064 Fit      -0.010727
 2065 Fit      -0.008569
 2066 Fit      -0.005806
 2067 Fit      -0.005880
 2068 Fit      -0.008438
 2069 Fit      -0.010935
 2070 Fit      -0.010699
 2071 Fit      -0.011231
 2072 Fit      -0.011249
 2073 Fit      -0.010341
 2074 Fit      -0.011265
 2075 Fit      -0.006222
 2076 Fit      -0.005545
 2077 Fit      -0.007488
 2078 Fit      -0.009561
 2079 Fit      -0.008677
 2080 Fit      -0.007206
 2081 Fit      -0.004384
 2082 Fit      -0.005530
 2083 Fit      -0.009145
 2084 Fit      -0.010056
 2085 Fit      -0.007901
 2086 Fit      -0.005573
 2087 Fit      -0.003521
 2088 Fit      -0.007114
 2089 Fit      -0.008374
 2090 Fit      -0.006937
 2091 Fit      -0.005480
 2092 Fit      -0.005759
 2093 Fit      -0.003940
 2094 Fit      -0.005162
 2095 Fit      -0.008664
 2096 Fit      -0.009443
 2097 Fit      -0.006910
 2098 Fit      -0.006695
 2099 Fit      -0.005984
 2100 Fit      -0.006567
 2101 Fit      -0.008762
 2102 Fit      -0.006426
 2103 Fit      -0.004465
 2104 Fit      -0.007286
 2105 Fit      -0.000533
 2106 Fit      -0.006654
 2107 Fit       0.001695
 2108 Fit      -0.004995
 2109 Fit      -0.006582
 2110 Fit      -0.008265
 2111 Fit      -0.008801
 2112 Fit      -0.003219
 2113 Fit      -0.006301
 2114 Fit      -0.005619
 2115 Fit      -0.005750
 2116 Fit      -0.007617
 2117 Fit      -0.002041
 2118 Fit      -0.005875
 2119 Fit      -0.008562
 2120 Fit      -0.008427
 2121 Fit       0.004844
 2122 Fit       0.003301
 2123 Fit      -0.001191
 2124 Fit      -0.005718
 2125 Fit      -0.009060
 2126 Fit      -0.009878
 2127 Fit       0.005620
 2128 Fit      -0.000463
 2129 Fit      -0.005279
 2130 Fit      -0.009117
 2131 Fit      -0.010738
 2132 Fit       0.007371
 2133 Fit       0.000415
 2134 Fit      -0.004704
 2135 Fit      -0.008844
 2136 Fit      -0.010939
 2137 Fit       0.008705
 2138 Fit       0.001260
 2139 Fit      -0.004170
 2140 Fit      -0.008532
 2141 Fit      -0.010754
 2142 Fit       0.002123
 2143 Fit      -0.003810
 2144 Fit      -0.008175
 2145 Fit      -0.010266
 2146 Fit       0.002555
 2147 Fit      -0.003666
 2148 Fit      -0.007830
 2149 Fit      -0.009602
 2150 Fit       0.002505
 2151 Fit      -0.003684
 2152 Fit      -0.007601
 2153 Fit      -0.008851
 2154 Fit       0.002352
 2155 Fit      -0.003748
 2156 Fit      -0.007296
 2157 Fit      -0.008027
 2158 Fit       0.008682
 2159 Fit       0.001970
 2160 Fit      -0.003751
 2161 Fit      -0.006862
 2162 Fit      -0.007282
 2163 Fit       0.008220
 2164 Fit       0.006524
 2165 Fit       0.001493
 2166 Fit      -0.003697
 2167 Fit      -0.006304
 2168 Fit       0.000543
 2169 Fit      -0.003852
 2170 Fit       0.003171
 2171 Fit      -0.008330
 2172 Fit      -0.004686
 2173 Fit      -0.001812
 2174 Fit      -0.000003
 2175 Fit       0.001293
 2176 Fit       0.002475
 2177 Fit      -0.009573
 2178 Fit       0.001233
 2179 Fit       0.002135
 2180 Fit       0.002190
 2181 Fit      -0.002740
 2182 Fit       0.004356
 2183 Fit       0.002713
 2184 Fit       0.002186
 2185 Fit       0.002294
 2186 Fit       0.002520
 2187 Fit       0.002352
 2188 Fit       0.002199
 2189 Fit       0.002196
 2190 Fit       0.002105
 2191 Fit       0.002122
 2192 Fit       0.002143
 2193 Fit       0.002106
 2194 Fit       0.002035
 2195 Fit       0.002029
 2196 Fit       0.002233
 2197 Fit       0.002568
 2198 Fit       0.002464
 2199 Fit       0.002905
 2200 Fit       0.001989
 2201 Fit       0.000647
 2202 Fit      -0.001063
 2203 Fit      -0.003575
 2204 Fit       0.002172
 2205 Fit       0.001153
 2206 Fit       0.001974
 2207 Fit      -0.004440
 2208 Fit      -0.010659
 2209 Fit      -0.010172
 2210 Fit      -0.009726
 2211 Fit      -0.010477
 2212 Fit      -0.010981
 2213 Fit      -0.010867
 2214 Fit      -0.010602
 2215 Fit      -0.010047
 2216 Fit      -0.008260
 2217 Fit      -0.007763
 2218 Fit      -0.008940
 2219 Fit      -0.010100
 2220 Fit      -0.010659
 2221 Fit      -0.010888
 2222 Fit      -0.010891
 2223 Fit      -0.010528
 2224 Fit      -0.010066
 2225 Fit      -0.010275
 2226 Fit      -0.010800
 2227 Fit      -0.006363
 2228 Fit      -0.008452
 2229 Fit      -0.009592
 2230 Fit      -0.010040
 2231 Fit      -0.010204
 2232 Fit      -0.010349
 2233 Fit      -0.010472
 2234 Fit      -0.010351
 2235 Fit      -0.009775
 2236 Fit      -0.008902
 2237 Fit      -0.008525
 2238 Fit      -0.006783
 2239 Fit      -0.008486
 2240 Fit      -0.009179
 2241 Fit      -0.009334
 2242 Fit      -0.009327
 2243 Fit      -0.009400
 2244 Fit      -0.009607
 2245 Fit      -0.009808
 2246 Fit      -0.009732
 2247 Fit      -0.009100
 2248 Fit      -0.007824
 2249 Fit      -0.006290
 2250 Fit      -0.006552
 2251 Fit      -0.008045
 2252 Fit      -0.008571
 2253 Fit      -0.008568
 2254 Fit      -0.008407
 2255 Fit      -0.008357
 2256 Fit      -0.008532
 2257 Fit      -0.008868
 2258 Fit      -0.009134
 2259 Fit      -0.008997
 2260 Fit      -0.008104
 2261 Fit      -0.006207
 2262 Fit      -0.003399
 2263 Fit      -0.006427
 2264 Fit      -0.007645
 2265 Fit      -0.008046
 2266 Fit      -0.007947
 2267 Fit      -0.007680
 2268 Fit      -0.007508
 2269 Fit      -0.007580
 2270 Fit      -0.007898
 2271 Fit      -0.008321
 2272 Fit      -0.008582
 2273 Fit      -0.008335
 2274 Fit      -0.007188
 2275 Fit      -0.004730
 2276 Fit      -0.006921
 2277 Fit      -0.007619
 2278 Fit      -0.007641
 2279 Fit      -0.007357
 2280 Fit      -0.007080
 2281 Fit      -0.007016
 2282 Fit      -0.007239
 2283 Fit      -0.007673
 2284 Fit      -0.008108
 2285 Fit      -0.008225
 2286 Fit      -0.007623
 2287 Fit      -0.005821
 2288 Fit      -0.002168
 2289 Fit      -0.006541
 2290 Fit      -0.007453
 2291 Fit      -0.007562
 2292 Fit      -0.007316
 2293 Fit      -0.007055
 2294 Fit      -0.006998
 2295 Fit      -0.007220
 2296 Fit      -0.007648
 2297 Fit      -0.008071
 2298 Fit      -0.008166
 2299 Fit      -0.007525
 2300 Fit      -0.005648
 2301 Fit      -0.001826
 2302 Fit      -0.006933
 2303 Fit      -0.007713
 2304 Fit      -0.007779
 2305 Fit      -0.007587
 2306 Fit      -0.007447
 2307 Fit      -0.007526
 2308 Fit      -0.007835
 2309 Fit      -0.008229
 2310 Fit      -0.008441
 2311 Fit      -0.008108
 2312 Fit      -0.006803
 2313 Fit      -0.004030
 2314 Fit      -0.007222
 2315 Fit      -0.008167
 2316 Fit      -0.008357
 2317 Fit      -0.008282
 2318 Fit      -0.008264
 2319 Fit      -0.008436
 2320 Fit      -0.008737
 2321 Fit      -0.008935
 2322 Fit      -0.008679
 2323 Fit      -0.007576
 2324 Fit      -0.005291
 2325 Fit      -0.005884
 2326 Fit      -0.007882
 2327 Fit      -0.008830
 2328 Fit      -0.009130
 2329 Fit      -0.009188
 2330 Fit      -0.009273
 2331 Fit      -0.009450
 2332 Fit      -0.009580
 2333 Fit      -0.009377
 2334 Fit      -0.008535
 2335 Fit      -0.006917
 2336 Fit      -0.004891
 2337 Fit      -0.006506
 2338 Fit      -0.006598
 2339 Fit      -0.008214
 2340 Fit      -0.009350
 2341 Fit      -0.009863
 2342 Fit      -0.010055
 2343 Fit      -0.010179
 2344 Fit      -0.010229
 2345 Fit      -0.009972
 2346 Fit      -0.009184
 2347 Fit      -0.008036
 2348 Fit      -0.007457
 2349 Fit      -0.010584
 2350 Fit      -0.009154
 2351 Fit      -0.008433
 2352 Fit      -0.009082
 2353 Fit      -0.010018
 2354 Fit      -0.010528
 2355 Fit      -0.010706
 2356 Fit      -0.010602
 2357 Fit      -0.010076
 2358 Fit      -0.009481
 2359 Fit      -0.009808
 2360 Fit      -0.010788
 2361 Fit      -0.010350
 2362 Fit      -0.009970
 2363 Fit      -0.010470
 2364 Fit      -0.010830
 2365 Fit      -0.010599
 2366 Fit      -0.010409
 2367 Fit      -0.010616
 2368 Fit       0.009003
 2369 Fit       0.011952
 2370 Fit       0.010468
 2371 Fit       0.012765
 2372 Fit       0.015605
 2373 Fit       0.019469
 2374 Fit       0.011736
 2375 Fit       0.012874
 2376 Fit       0.014721
 2377 Fit       0.017333
 2378 Fit       0.021253
 2379 Fit       0.013325
 2380 Fit       0.014368
 2381 Fit       0.016298
 2382 Fit       0.019226
 2383 Fit       0.023980
 2384 Fit       0.013516
 2385 Fit       0.014517
 2386 Fit       0.016416
 2387 Fit       0.019305
 2388 Fit       0.023982
 2389 Fit       0.012355
 2390 Fit       0.013355
 2391 Fit       0.015103
 2392 Fit       0.017612
 2393 Fit       0.021364
 2394 Fit       0.011309
 2395 Fit       0.013422
 2396 Fit       0.016088
 2397 Fit       0.019683
 2398 Fit       0.010035
 2399 Fit       0.012745
 2400 Fit       0.014937
 2401 Fit       0.000376
 2402 Fit      -0.001901
 2403 Fit       0.002110
 2404 Fit       0.004681
 2405 Fit       0.006401
 2406 Fit       0.001966
 2407 Fit       0.004939
 2408 Fit       0.007126
 2409 Fit       0.009063
 2410 Fit       0.000220
 2411 Fit       0.004030
 2412 Fit       0.006695
 2413 Fit       0.008858
 2414 Fit       0.011176
 2415 Fit       0.000428
 2416 Fit       0.004199
 2417 Fit       0.006855
 2418 Fit       0.009025
 2419 Fit       0.011368
 2420 Fit       0.002499
 2421 Fit       0.005422
 2422 Fit       0.007615
 2423 Fit       0.009611
 2424 Fit       0.012033
 2425 Fit      -0.000911
 2426 Fit       0.002934
 2427 Fit       0.005488
 2428 Fit       0.007303
 2429 Fit      -0.002563
 2430 Fit       0.001502
 2431 Fit       0.003687
 2432 Fit       0.015925
 2433 Fit       0.014846
 2434 Fit       0.010196
 2435 Fit       0.021403
 2436 Fit       0.019709
 2437 Fit       0.016269
 2438 Fit       0.010874
 2439 Fit       0.025358
 2440 Fit       0.023490
 2441 Fit       0.020757
 2442 Fit       0.016851
 2443 Fit       0.011474
 2444 Fit       0.027100
 2445 Fit       0.024796
 2446 Fit       0.021827
 2447 Fit       0.017787
 2448 Fit       0.012344
 2449 Fit       0.027454
 2450 Fit       0.025097
 2451 Fit       0.022120
 2452 Fit       0.018098
 2453 Fit       0.012700
 2454 Fit       0.026438
 2455 Fit       0.024404
 2456 Fit       0.021640
 2457 Fit       0.017785
 2458 Fit       0.012539
 2459 Fit       0.023064
 2460 Fit       0.021202
 2461 Fit       0.017790
 2462 Fit       0.012591
 2463 Fit       0.018145
 2464 Fit       0.016936
 2465 Fit       0.012464
 2466 Fit       0.011124
 2467 Fit       0.000700
 2468 Fit       0.000597
 2469 Fit       0.001823
 2470 Fit       0.001933
 2471 Fit       0.000513
 2472 Fit      -0.001048
 2473 Fit      -0.000820
 2474 Fit       0.000090
 2475 Fit       0.001603
 2476 Fit       0.002624
 2477 Fit       0.003140
 2478 Fit       0.002971
 2479 Fit       0.001630
 2480 Fit      -0.001177
 2481 Fit      -0.003416
 2482 Fit      -0.003759
 2483 Fit      -0.003195
 2484 Fit      -0.001748
 2485 Fit      -0.000831
 2486 Fit       0.000877
 2487 Fit       0.002136
 2488 Fit       0.003126
 2489 Fit       0.003933
 2490 Fit       0.004416
 2491 Fit      -0.007152
 2492 Fit      -0.005578
 2493 Fit      -0.003085
 2494 Fit      -0.002072
 2495 Fit      -0.000069
 2496 Fit       0.001375
 2497 Fit       0.002547
 2498 Fit       0.003707
 2499 Fit      -0.009046
 2500 Fit      -0.004968
 2501 Fit      -0.003392
 2502 Fit      -0.000862
 2503 Fit       0.000835
 2504 Fit       0.002197
 2505 Fit      -0.007544
 2506 Fit      -0.004781
 2507 Fit      -0.010033
 2508 Fit      -0.003848
 2509 Fit      -0.001235
 2510 Fit       0.000335
 2511 Fit      -0.008546
 2512 Fit      -0.002726
 2513 Fit      -0.000470
 2514 Fit       0.000866
 2515 Fit       0.001698
 2516 Fit      -0.006665
 2517 Fit      -0.001706
 2518 Fit       0.000193
 2519 Fit       0.001324
 2520 Fit       0.001999
 2521 Fit      -0.004863
 2522 Fit      -0.000936
 2523 Fit       0.000783
 2524 Fit       0.001778
 2525 Fit       0.002409
 2526 Fit      -0.003736
 2527 Fit      -0.000468
 2528 Fit       0.001150
 2529 Fit       0.002124
 2530 Fit      -0.005523
 2531 Fit      -0.002980
 2532 Fit      -0.000289
 2533 Fit       0.001208
 2534 Fit      -0.002751
 2535 Fit      -0.002296
 2536 Fit      -0.000313
 2537 Fit       0.004485
 2538 Fit       0.004401
 2539 Fit       0.004480
 2540 Fit       0.004325
 2541 Fit       0.004454
 2542 Fit       0.004443
 2543 Fit       0.004444
 2544 Fit       0.004007
 2545 Fit       0.004283
 2546 Fit       0.004476
 2547 Fit       0.004454
 2548 Fit       0.004258
 2549 Fit       0.004122
 2550 Fit       0.003467
 2551 Fit       0.003884
 2552 Fit       0.004211
 2553 Fit       0.004361
 2554 Fit       0.004302
 2555 Fit       0.004061
 2556 Fit       0.003738
 2557 Fit       0.002971
 2558 Fit       0.003453
 2559 Fit       0.003822
 2560 Fit       0.004013
 2561 Fit       0.003992
 2562 Fit       0.003772
 2563 Fit       0.003423
 2564 Fit       0.003066
 2565 Fit       0.002999
 2566 Fit       0.003315
 2567 Fit       0.003484
 2568 Fit       0.003460
 2569 Fit       0.003256
 2570 Fit       0.002955
 2571 Fit       0.002755
 2572 Fit       0.002851
 2573 Fit       0.002793
 2574 Fit       0.002617
 2575 Fit       0.002460
 2576 Fit       0.002297
 2577 Fit       0.002226
 2578 Fit       0.002185
 2579 Fit       0.002145
 2580 Fit       0.002125
 2581 Fit       0.002189
 2582 Fit       0.002431
 2583 Fit       0.002209
 2584 Fit       0.002394
 2585 Fit       0.002424
 2586 Fit       0.002402
 2587 Fit       0.002339
 2588 Fit       0.002239
 2589 Fit       0.002091
 2590 Fit       0.001753
 2591 Fit       0.001984
 2592 Fit       0.002390
 2593 Fit       0.002471
 2594 Fit       0.002360
 2595 Fit       0.002038
 2596 Fit       0.001318
 2597 Fit      -0.000022
 2598 Fit      -0.001438
 2599 Fit      -0.001757
 2600 Fit      -0.000633
 2601 Fit       0.000946
 2602 Fit       0.001808
 2603 Fit       0.002219
 2604 Fit       0.001978
 2605 Fit       0.001121
 2606 Fit       0.000274
 2607 Fit       0.000764
 2608 Fit       0.001527
 2609 Fit      -0.003592
 2610 Fit      -0.000029
 2611 Fit      -0.001989
 2612 Fit      -0.005020
 2613 Fit       0.001517
 2614 Fit       0.000347
 2615 Fit      -0.001421
 2616 Fit      -0.004201
 2617 Fit       0.002142
 2618 Fit       0.001342
 2619 Fit       0.000105
 2620 Fit      -0.001839
 2621 Fit      -0.004918
 2622 Fit       0.002054
 2623 Fit       0.001031
 2624 Fit      -0.000577
 2625 Fit      -0.003194
 2626 Fit       0.001322
 2627 Fit      -0.000344
 2628 Fit      -0.003070
 2629 Fit      -0.000277
 2630 Fit      -0.002884
 2631 Fit      -0.004543
 2632 Fit      -0.001236
 2633 Fit       0.000266
 2634 Fit       0.001247
 2635 Fit       0.001942
 2636 Fit       0.000933
 2637 Fit      -0.001025
 2638 Fit      -0.002083
 2639 Fit      -0.000885
 2640 Fit       0.002278
 2641 Fit       0.003220
 2642 Fit       0.003092
 2643 Fit       0.002190
 2644 Fit       0.000619
 2645 Fit      -0.001613
 2646 Fit      -0.004050
 2647 Fit      -0.005360
 2648 Fit      -0.004983
 2649 Fit      -0.003221
 2650 Fit      -0.000216
 2651 Fit       0.004531
 2652 Fit       0.003970
 2653 Fit       0.002991
 2654 Fit       0.001708
 2655 Fit      -0.000005
 2656 Fit      -0.002356
 2657 Fit      -0.005448
 2658 Fit       0.003282
 2659 Fit       0.001952
 2660 Fit       0.000398
 2661 Fit      -0.001661
 2662 Fit      -0.004572
 2663 Fit       0.002259
 2664 Fit       0.000664
 2665 Fit      -0.001361
 2666 Fit      -0.004314
 -----------------------------------------------------------------
 Leave Link  602 at Thu Jan 16 21:47:15 2014, MaxMem=   235929600 cpu:         0.8

 Test job not archived.
 1\1\GINC-G42\SP\RHF\Gen\C9H9Cl1O1\KOLAR\16-Jan-2014\0\\# hf/gen pop=mk
  iop(6/33=2,6/41=5,6/42=2)\\na resp\\0,1\C,0,-0.548228,-2.142951,0.050
 903\C,0,0.812595,-1.830693,0.052747\C,0,1.218899,-0.497918,0.000232\C,
 0,0.2705,0.522153,-0.042425\C,0,-1.091736,0.204811,-0.045037\C,0,-1.50
 9293,-1.126584,-0.004452\O,0,-2.856352,-1.372018,-0.017684\C,0,-1.9407
 45,1.452993,-0.118942\C,0,-0.936785,2.576885,0.24601\C,0,0.464425,2.02
 0111,-0.115579\Cl,0,2.940607,-0.113957,-0.007185\H,0,-0.859692,-3.1850
 53,0.093522\H,0,1.553596,-2.621811,0.096134\H,0,-3.002711,-2.329613,0.
 0293\H,0,-2.339526,1.583531,-1.135496\H,0,-2.805855,1.418022,0.551718\
 H,0,-1.15761,3.522328,-0.258518\H,0,-0.981662,2.764133,1.32517\H,0,1.2
 52688,2.37877,0.554276\H,0,0.763479,2.310253,-1.133223\\Version=AM64L-
 G09RevD.01\State=1-A\HF=-880.3972583\RMSD=5.936e-09\Dipole=-0.6962143,
 -0.4529832,0.0265155\Quadrupole=-5.0578685,8.2892202,-3.2313517,2.7300
 815,-0.127818,-0.4940705\PG=C01 [X(C9H9Cl1O1)]\\@


 DO YOU KNOW THAT THE LETTERS IN "EPISCOPAL", WHEN
 REARRANGED, SPELL "PEPSI COLA"?
 Job cpu time:       0 days  0 hours  0 minutes 22.3 seconds.
 File lengths (MBytes):  RWF=     13 Int=      0 D2E=      0 Chk=      2 Scr=      1
 Normal termination of Gaussian 09 at Thu Jan 16 21:47:15 2014.
21.57user 0.78system 0:28.13elapsed 79%CPU (0avgtext+0avgdata 4093648maxresident)k
46656inputs+29256outputs (4major+409397minor)pagefaults 0swaps
