Linux g59 2.6.38.6-client #1 SMP Tue Jun 12 11:27:21 CEST 2012 x86_64 GNU/Linux
Thu Jan 16 22:36:46 CET 2014

 Entering Gaussian System, Link 0=/usr/local/programs/common/gaussian/gaussian09_d01/arch/amd64-pgi_10.4.0-acml/g09/g09
 Initial command:
 /usr/local/programs/common/gaussian/gaussian09_d01/arch/amd64-pgi_10.4.0-acml/g09/l1.exe "/scratch/kolar/g09_25868/Gau-1804.inp" -scrdir="/scratch/kolar/g09_25868/"
 Entering Link 1 = /usr/local/programs/common/gaussian/gaussian09_d01/arch/amd64-pgi_10.4.0-acml/g09/l1.exe PID=      1809.
  
 Copyright (c) 1988,1990,1992,1993,1995,1998,2003,2009,2013,
            Gaussian, Inc.  All Rights Reserved.
  
 This is part of the Gaussian(R) 09 program.  It is based on
 the Gaussian(R) 03 system (copyright 2003, Gaussian, Inc.),
 the Gaussian(R) 98 system (copyright 1998, Gaussian, Inc.),
 the Gaussian(R) 94 system (copyright 1995, Gaussian, Inc.),
 the Gaussian 92(TM) system (copyright 1992, Gaussian, Inc.),
 the Gaussian 90(TM) system (copyright 1990, Gaussian, Inc.),
 the Gaussian 88(TM) system (copyright 1988, Gaussian, Inc.),
 the Gaussian 86(TM) system (copyright 1986, Carnegie Mellon
 University), and the Gaussian 82(TM) system (copyright 1983,
 Carnegie Mellon University). Gaussian is a federally registered
 trademark of Gaussian, Inc.
  
 This software contains proprietary and confidential information,
 including trade secrets, belonging to Gaussian, Inc.
  
 This software is provided under written license and may be
 used, copied, transmitted, or stored only in accord with that
 written license.
  
 The following legend is applicable only to US Government
 contracts under FAR:
  
                    RESTRICTED RIGHTS LEGEND
  
 Use, reproduction and disclosure by the US Government is
 subject to restrictions as set forth in subparagraphs (a)
 and (c) of the Commercial Computer Software - Restricted
 Rights clause in FAR 52.227-19.
  
 Gaussian, Inc.
 340 Quinnipiac St., Bldg. 40, Wallingford CT 06492
  
  
 ---------------------------------------------------------------
 Warning -- This program may not be used in any manner that
 competes with the business of Gaussian, Inc. or will provide
 assistance to any competitor of Gaussian, Inc.  The licensee
 of this program is prohibited from giving any competitor of
 Gaussian, Inc. access to this program.  By using this program,
 the user acknowledges that Gaussian, Inc. is engaged in the
 business of creating and licensing software in the field of
 computational chemistry and represents and warrants to the
 licensee that it is not a competitor of Gaussian, Inc. and that
 it will not use this program in any manner prohibited above.
 ---------------------------------------------------------------
  

 Cite this work as:
 Gaussian 09, Revision D.01,
 M. J. Frisch, G. W. Trucks, H. B. Schlegel, G. E. Scuseria, 
 M. A. Robb, J. R. Cheeseman, G. Scalmani, V. Barone, B. Mennucci, 
 G. A. Petersson, H. Nakatsuji, M. Caricato, X. Li, H. P. Hratchian, 
 A. F. Izmaylov, J. Bloino, G. Zheng, J. L. Sonnenberg, M. Hada, 
 M. Ehara, K. Toyota, R. Fukuda, J. Hasegawa, M. Ishida, T. Nakajima, 
 Y. Honda, O. Kitao, H. Nakai, T. Vreven, J. A. Montgomery, Jr., 
 J. E. Peralta, F. Ogliaro, M. Bearpark, J. J. Heyd, E. Brothers, 
 K. N. Kudin, V. N. Staroverov, T. Keith, R. Kobayashi, J. Normand, 
 K. Raghavachari, A. Rendell, J. C. Burant, S. S. Iyengar, J. Tomasi, 
 M. Cossi, N. Rega, J. M. Millam, M. Klene, J. E. Knox, J. B. Cross, 
 V. Bakken, C. Adamo, J. Jaramillo, R. Gomperts, R. E. Stratmann, 
 O. Yazyev, A. J. Austin, R. Cammi, C. Pomelli, J. W. Ochterski, 
 R. L. Martin, K. Morokuma, V. G. Zakrzewski, G. A. Voth, 
 P. Salvador, J. J. Dannenberg, S. Dapprich, A. D. Daniels, 
 O. Farkas, J. B. Foresman, J. V. Ortiz, J. Cioslowski, 
 and D. J. Fox, Gaussian, Inc., Wallingford CT, 2013.
 
 ******************************************
 Gaussian 09:  AM64L-G09RevD.01 24-Apr-2013
                16-Jan-2014 
 ******************************************
 %mem=1800mb
 -----------------------------------------
 # hf/gen pop=mk iop(6/33=2,6/41=5,6/42=2)
 -----------------------------------------
 1/38=1/1;
 2/12=2,17=6,18=5,40=1/2;
 3/5=7,11=9,16=1,25=1,30=1/1,2,3;
 4//1;
 5/5=2,38=5/2;
 6/7=2,8=2,9=2,10=2,15=8,20=1,28=1,33=2,41=5,42=2/1,2;
 99/5=1,9=1/99;
 -------
 na resp
 -------
 Symbolic Z-matrix:
 Charge =  0 Multiplicity = 1
 6                    -2.54368   0.53805  -0.11118 
 6                    -1.16137   0.65158  -0.04928 
 6                    -0.40438  -0.54793  -0.05645 
 7                    -1.05488  -1.72091  -0.04663 
 6                    -2.39669  -1.71087  -0.06007 
 7                    -3.19186  -0.62787  -0.13643 
 7                    -3.01983  -2.9255    0.02475 
 7                     0.97897  -0.59584  -0.01476 
 6                     1.78643   0.16733  -0.98117 
 6                     3.19757   0.34973  -0.42998 
 8                     3.80467  -0.90003  -0.13381 
 6                     3.02728  -1.62897   0.80649 
 6                     1.6088   -1.88452   0.29848 
 35                   -0.42411   2.39884   0.19772 
 1                    -3.15572   1.43755  -0.12367 
 1                    -3.99616  -2.94883  -0.23052 
 1                    -2.46284  -3.74168  -0.17995 
 1                     1.83675  -0.38662  -1.93319 
 1                     1.33471   1.13899  -1.17402 
 1                     3.15561   0.98034   0.47302 
 1                     3.83587   0.83722  -1.17294 
 1                     2.9824   -1.08456   1.76423 
 1                     3.54693  -2.57842   0.96744 
 1                     1.01768  -2.39478   1.06082 
 1                     1.64059  -2.5338   -0.59027 
 
                          Input orientation:                          
 ---------------------------------------------------------------------
 Center     Atomic      Atomic             Coordinates (Angstroms)
 Number     Number       Type             X           Y           Z
 ---------------------------------------------------------------------
      1          6           0       -2.543675    0.538049   -0.111178
      2          6           0       -1.161368    0.651578   -0.049283
      3          6           0       -0.404379   -0.547934   -0.056448
      4          7           0       -1.054880   -1.720908   -0.046630
      5          6           0       -2.396694   -1.710870   -0.060074
      6          7           0       -3.191859   -0.627870   -0.136429
      7          7           0       -3.019832   -2.925504    0.024748
      8          7           0        0.978972   -0.595844   -0.014762
      9          6           0        1.786434    0.167326   -0.981174
     10          6           0        3.197573    0.349734   -0.429981
     11          8           0        3.804672   -0.900028   -0.133810
     12          6           0        3.027278   -1.628972    0.806485
     13          6           0        1.608800   -1.884521    0.298484
     14         35           0       -0.424109    2.398838    0.197715
     15          1           0       -3.155720    1.437554   -0.123668
     16          1           0       -3.996163   -2.948833   -0.230522
     17          1           0       -2.462835   -3.741676   -0.179945
     18          1           0        1.836754   -0.386624   -1.933185
     19          1           0        1.334711    1.138993   -1.174021
     20          1           0        3.155608    0.980339    0.473024
     21          1           0        3.835872    0.837220   -1.172936
     22          1           0        2.982401   -1.084559    1.764231
     23          1           0        3.546929   -2.578421    0.967443
     24          1           0        1.017682   -2.394778    1.060817
     25          1           0        1.640589   -2.533795   -0.590268
 ---------------------------------------------------------------------
                    Distance matrix (angstroms):
                    1          2          3          4          5
     1  C    0.000000
     2  C    1.388342   0.000000
     3  C    2.399780   1.418419   0.000000
     4  N    2.706208   2.374876   1.341311   0.000000
     5  C    2.254296   2.665953   2.306892   1.341919   0.000000
     6  N    1.334222   2.401557   2.789773   2.401973   1.345736
     7  N    3.498771   4.031735   3.535538   2.305902   1.367783
     8  N    3.701898   2.477561   1.384808   2.324508   3.555342
     9  C    4.432175   3.129290   2.483219   3.537212   4.677030
    10  C    5.753175   4.385933   3.730870   4.745300   5.973169
    11  O    6.509231   5.203478   4.224460   4.929167   6.254586
    12  C    6.047611   4.845410   3.699941   4.171363   5.493369
    13  C    4.824906   3.771813   2.442403   2.690923   4.025258
    14  Br   2.837342   1.912453   2.957778   4.174911   4.565879
    15  H    1.088055   2.144932   3.393606   3.794120   3.239250
    16  H    3.779194   4.586052   4.323833   3.192610   2.029755
    17  H    4.281041   4.583838   3.801642   2.466498   2.035416
    18  H    4.833517   3.689944   2.927600   3.701480   4.815003
    19  H    4.066036   2.780831   2.668169   3.893609   4.825555
    20  H    5.746193   4.360868   3.910175   5.029412   6.193130
    21  H    6.474214   5.125375   4.598361   5.633120   6.824669
    22  H    6.057023   4.844979   3.882411   4.470324   5.714457
    23  H    6.926129   5.799542   4.558954   4.789605   6.093857
    24  H    4.760075   3.906516   2.584835   2.444597   3.658154
    25  H    5.212851   4.276708   2.900087   2.867382   4.154271
                    6          7          8          9         10
     6  N    0.000000
     7  N    2.309696   0.000000
     8  N    4.172728   4.628100   0.000000
     9  C    5.111686   5.803246   1.472540   0.000000
    10  C    6.470450   7.042023   2.447185   1.525909   0.000000
    11  O    7.001823   7.120502   2.844518   2.435273   1.420631
    12  C    6.369377   6.233751   2.436669   2.821720   2.339471
    13  C    4.981430   4.752138   1.468160   2.424697   2.836681
    14  Br   4.114979   5.925902   3.313895   3.354985   4.208255
    15  H    2.065780   4.367696   4.608931   5.174329   6.453023
    16  H    2.458176   1.009420   5.507729   6.611532   7.916449
    17  H    3.198305   1.009099   4.665788   5.829112   6.988732
    18  H    5.345417   5.819436   2.111850   1.102596   2.157238
    19  H    4.968726   6.076119   2.116623   1.088752   2.155639
    20  H    6.576329   7.320698   2.731306   2.156460   1.102199
    21  H    7.253264   7.911587   3.399547   2.164654   1.094098
    22  H    6.476308   6.514728   2.723488   3.245736   2.630221
    23  H    7.101721   6.643154   3.389652   3.799418   3.263271
    24  H    4.719703   4.201979   2.096314   3.365276   3.808773
    25  H    5.214506   4.717118   2.127110   2.733154   3.280950
                   11         12         13         14         15
    11  O    0.000000
    12  C    1.421216   0.000000
    13  C    2.444986   1.528218   0.000000
    14  Br   5.373548   5.339094   4.742366   0.000000
    15  H    7.342442   6.964067   5.823663   2.913598   0.000000
    16  H    8.065977   7.221228   5.729591   6.445195   4.467455
    17  H    6.881768   5.964722   4.500681   6.481122   5.225675
    18  H    2.715518   3.235208   2.697407   4.172653   5.614871
    19  H    3.367544   3.801160   3.374171   2.561702   4.621293
    20  H    2.079738   2.633661   3.260445   3.860351   6.355938
    21  H    2.024546   3.264052   3.812191   4.739702   7.095331
    22  H    2.076714   1.102577   2.162206   5.117845   6.899402
    23  H    2.023905   1.094257   2.164566   6.413636   7.889492
    24  H    3.380640   2.165553   1.091299   5.079612   5.788528
    25  H    2.749692   2.166225   1.101112   5.405068   6.244510
                   16         17         18         19         20
    16  H    0.000000
    17  H    1.726920   0.000000
    18  H    6.594460   5.728585   0.000000
    19  H    6.783711   6.263423   1.776481   0.000000
    20  H    8.190311   7.368222   3.065584   2.460405   0.000000
    21  H    8.750035   7.850225   2.464193   2.519300   1.786736
    22  H    7.493658   6.363229   3.933256   4.036383   2.441520
    23  H    7.646605   6.227915   4.017750   4.826898   3.614188
    24  H    5.207031   3.932890   3.696973   4.193155   4.038272
    25  H    5.663448   4.297142   2.540128   3.731448   3.971777
                   21         22         23         24         25
    21  H    0.000000
    22  H    3.612284   0.000000
    23  H    4.041202   1.784709   0.000000
    24  H    4.835045   2.464059   2.537624   0.000000
    25  H    4.064789   3.073176   2.462232   1.770147   0.000000
 Stoichiometry    C8H11BrN4O
 Framework group  C1[X(C8H11BrN4O)]
 Deg. of freedom    69
 Full point group                 C1      NOp   1
 Largest Abelian subgroup         C1      NOp   1
 Largest concise Abelian subgroup C1      NOp   1
                         Standard orientation:                         
 ---------------------------------------------------------------------
 Center     Atomic      Atomic             Coordinates (Angstroms)
 Number     Number       Type             X           Y           Z
 ---------------------------------------------------------------------
      1          6           0        2.543675    0.538049    0.111178
      2          6           0        1.161368    0.651578    0.049283
      3          6           0        0.404379   -0.547934    0.056448
      4          7           0        1.054880   -1.720908    0.046630
      5          6           0        2.396694   -1.710870    0.060074
      6          7           0        3.191859   -0.627870    0.136429
      7          7           0        3.019832   -2.925504   -0.024748
      8          7           0       -0.978972   -0.595844    0.014762
      9          6           0       -1.786434    0.167326    0.981174
     10          6           0       -3.197573    0.349734    0.429981
     11          8           0       -3.804672   -0.900028    0.133810
     12          6           0       -3.027278   -1.628972   -0.806485
     13          6           0       -1.608800   -1.884521   -0.298484
     14         35           0        0.424109    2.398838   -0.197715
     15          1           0        3.155720    1.437554    0.123668
     16          1           0        3.996163   -2.948833    0.230522
     17          1           0        2.462835   -3.741676    0.179945
     18          1           0       -1.836754   -0.386624    1.933185
     19          1           0       -1.334711    1.138993    1.174021
     20          1           0       -3.155608    0.980339   -0.473024
     21          1           0       -3.835872    0.837220    1.172936
     22          1           0       -2.982401   -1.084559   -1.764231
     23          1           0       -3.546929   -2.578421   -0.967443
     24          1           0       -1.017682   -2.394778   -1.060817
     25          1           0       -1.640589   -2.533795    0.590268
 ---------------------------------------------------------------------
 Rotational constants (GHZ):      0.5980418      0.4440191      0.2652179
 General basis read from cards:  (5D, 7F)
 There are   247 symmetry adapted cartesian basis functions of A   symmetry.
 There are   232 symmetry adapted basis functions of A   symmetry.
   232 basis functions,   491 primitive gaussians,   247 cartesian basis functions
    65 alpha electrons       65 beta electrons
       nuclear repulsion energy      1247.9846153126 Hartrees.
 NAtoms=   25 NActive=   25 NUniq=   25 SFac= 1.00D+00 NAtFMM=   60 NAOKFM=F Big=F
 Integral buffers will be    131072 words long.
 Raffenetti 1 integral format.
 Two-electron integral symmetry is turned on.
 One-electron integrals computed using PRISM.
 NBasis=   232 RedAO= T EigKep=  1.29D-03  NBF=   232
 NBsUse=   232 1.00D-06 EigRej= -1.00D+00 NBFU=   232
 ExpMin= 1.43D-01 ExpMax= 5.74D+05 ExpMxC= 5.74D+03 IAcc=2 IRadAn=         4 AccDes= 0.00D+00
 Harris functional with IExCor=  205 and IRadAn=       4 diagonalized for initial guess.
 HarFok:  IExCor=  205 AccDes= 0.00D+00 IRadAn=         4 IDoV= 1 UseB2=F ITyADJ=14
 ICtDFT=  3500011 ScaDFX=  1.000000  1.000000  1.000000  1.000000
 FoFCou: FMM=F IPFlag=           0 FMFlag=      100000 FMFlg1=           0
         NFxFlg=           0 DoJE=T BraDBF=F KetDBF=T FulRan=T
         wScrn=  0.000000 ICntrl=     500 IOpCl=  0 I1Cent=   200000004 NGrid=           0
         NMat0=    1 NMatS0=      1 NMatT0=    0 NMatD0=    1 NMtDS0=    0 NMtDT0=    0
 Petite list used in FoFCou.
 Requested convergence on RMS density matrix=1.00D-08 within 128 cycles.
 Requested convergence on MAX density matrix=1.00D-06.
 Requested convergence on             energy=1.00D-06.
 No special actions if energy rises.
 Integral accuracy reduced to 1.0D-05 until final iterations.
 Initial convergence to 1.0D-05 achieved.  Increase integral accuracy.
 SCF Done:  E(RHF) =  -3171.58757587     A.U. after   15 cycles
            NFock= 15  Conv=0.70D-08     -V/T= 1.9991

 **********************************************************************

            Population analysis using the SCF density.

 **********************************************************************

 Orbital symmetries:
 BldTbl:  Degeneracy threshold= 1.00D-02
       Occupied  (A) (A) (A) (A) (A) (A) (A) (A) (A) (A) (A) (A)
                 (A) (A) (A) (A) (A) (A) (A) (A) (A) (A) (A) (A)
                 (A) (A) (A) (A) (A) (A) (A) (A) (A) (A) (A) (A)
                 (A) (A) (A) (A) (A) (A) (A) (A) (A) (A) (A) (A)
                 (A) (A) (A) (A) (A) (A) (A) (A) (A) (A) (A) (A)
                 (A) (A) (A) (A) (A)
       Virtual   (A) (A) (A) (A) (A) (A) (A) (A) (A) (A) (A) (A)
                 (A) (A) (A) (A) (A) (A) (A) (A) (A) (A) (A) (A)
                 (A) (A) (A) (A) (A) (A) (A) (A) (A) (A) (A) (A)
                 (A) (A) (A) (A) (A) (A) (A) (A) (A) (A) (A) (A)
                 (A) (A) (A) (A) (A) (A) (A) (A) (A) (A) (A) (A)
                 (A) (A) (A) (A) (A) (A) (A) (A) (A) (A) (A) (A)
                 (A) (A) (A) (A) (A) (A) (A) (A) (A) (A) (A) (A)
                 (A) (A) (A) (A) (A) (A) (A) (A) (A) (A) (A) (A)
                 (A) (A) (A) (A) (A) (A) (A) (A) (A) (A) (A) (A)
                 (A) (A) (A) (A) (A) (A) (A) (A) (A) (A) (A) (A)
                 (A) (A) (A) (A) (A) (A) (A) (A) (A) (A) (A) (A)
                 (A) (A) (A) (A) (A) (A) (A) (A) (A) (A) (A) (A)
                 (A) (A) (A) (A) (A) (A) (A) (A) (A) (A) (A) (A)
                 (A) (A) (A) (A) (A) (A) (A) (A) (A) (A) (A)
 The electronic state is 1-A.
 Alpha  occ. eigenvalues -- -489.84945 -64.39299 -58.55984 -58.55813 -58.55798
 Alpha  occ. eigenvalues --  -20.56257 -15.58925 -15.57926 -15.56337 -15.56189
 Alpha  occ. eigenvalues --  -11.36207 -11.35309 -11.30657 -11.28589 -11.27928
 Alpha  occ. eigenvalues --  -11.27788 -11.26595 -11.25942  -9.67035  -7.48603
 Alpha  occ. eigenvalues --   -7.47728  -7.47699  -3.22928  -3.22510  -3.22488
 Alpha  occ. eigenvalues --   -3.21461  -3.21460  -1.38078  -1.33885  -1.27342
 Alpha  occ. eigenvalues --   -1.20509  -1.17925  -1.08653  -1.04508  -0.99064
 Alpha  occ. eigenvalues --   -0.95543  -0.89564  -0.87616  -0.84901  -0.79659
 Alpha  occ. eigenvalues --   -0.74569  -0.73996  -0.67867  -0.66473  -0.65240
 Alpha  occ. eigenvalues --   -0.64707  -0.63551  -0.62218  -0.60523  -0.59675
 Alpha  occ. eigenvalues --   -0.59289  -0.57448  -0.55439  -0.51304  -0.50948
 Alpha  occ. eigenvalues --   -0.49822  -0.47304  -0.46714  -0.45358  -0.43228
 Alpha  occ. eigenvalues --   -0.42622  -0.42020  -0.40075  -0.36873  -0.31467
 Alpha virt. eigenvalues --    0.11476   0.14077   0.17010   0.23706   0.24710
 Alpha virt. eigenvalues --    0.26104   0.27579   0.28512   0.29207   0.30255
 Alpha virt. eigenvalues --    0.30338   0.31462   0.32380   0.32423   0.33965
 Alpha virt. eigenvalues --    0.34890   0.37723   0.39340   0.41042   0.41438
 Alpha virt. eigenvalues --    0.42079   0.43672   0.46446   0.48367   0.53067
 Alpha virt. eigenvalues --    0.53978   0.55541   0.55926   0.62835   0.64409
 Alpha virt. eigenvalues --    0.65277   0.65819   0.66536   0.67263   0.68144
 Alpha virt. eigenvalues --    0.72401   0.73517   0.75236   0.76312   0.76939
 Alpha virt. eigenvalues --    0.78431   0.78748   0.79795   0.81043   0.81934
 Alpha virt. eigenvalues --    0.82439   0.83928   0.85254   0.86259   0.88455
 Alpha virt. eigenvalues --    0.90734   0.92762   0.94538   0.95561   0.97770
 Alpha virt. eigenvalues --    0.99494   1.00286   1.00879   1.02736   1.03165
 Alpha virt. eigenvalues --    1.05347   1.06324   1.07194   1.09727   1.10735
 Alpha virt. eigenvalues --    1.11814   1.12316   1.12556   1.12915   1.15948
 Alpha virt. eigenvalues --    1.16532   1.17879   1.19557   1.20428   1.21461
 Alpha virt. eigenvalues --    1.22206   1.24246   1.25662   1.26459   1.27130
 Alpha virt. eigenvalues --    1.27707   1.30261   1.31411   1.34346   1.38194
 Alpha virt. eigenvalues --    1.41455   1.44103   1.46713   1.49043   1.50844
 Alpha virt. eigenvalues --    1.53341   1.58886   1.58998   1.60442   1.63152
 Alpha virt. eigenvalues --    1.64594   1.66927   1.69061   1.74915   1.75390
 Alpha virt. eigenvalues --    1.76434   1.77119   1.81798   1.83357   1.87504
 Alpha virt. eigenvalues --    1.88631   1.94595   1.96199   1.98960   2.01026
 Alpha virt. eigenvalues --    2.04957   2.08194   2.09464   2.11041   2.12993
 Alpha virt. eigenvalues --    2.13443   2.15419   2.20609   2.22627   2.26060
 Alpha virt. eigenvalues --    2.28689   2.30940   2.31445   2.32402   2.33848
 Alpha virt. eigenvalues --    2.35550   2.39602   2.41447   2.45200   2.46063
 Alpha virt. eigenvalues --    2.46966   2.50354   2.52992   2.55074   2.56399
 Alpha virt. eigenvalues --    2.57467   2.60999   2.62218   2.63947   2.65233
 Alpha virt. eigenvalues --    2.68664   2.74338   2.74889   2.76498   2.77618
 Alpha virt. eigenvalues --    2.80303   2.83794   2.85465   2.88930   2.90821
 Alpha virt. eigenvalues --    2.94578   2.96577   2.99228   3.05717   3.07821
 Alpha virt. eigenvalues --    3.08750   3.09199   3.12161   3.14771   3.17025
 Alpha virt. eigenvalues --    3.23312   3.30877   3.34497   3.45776   3.62515
 Alpha virt. eigenvalues --    3.78642   9.21954
          Condensed to atoms (all electrons):
               1          2          3          4          5          6
     1  C    4.677334   0.494444  -0.046423  -0.019384  -0.074270   0.475922
     2  C    0.494444   5.189155   0.491139  -0.069489  -0.019419  -0.052672
     3  C   -0.046423   0.491139   4.204595   0.505284  -0.050594  -0.022834
     4  N   -0.019384  -0.069489   0.505284   7.067641   0.490980  -0.094827
     5  C   -0.074270  -0.019419  -0.050594   0.490980   4.019351   0.509293
     6  N    0.475922  -0.052672  -0.022834  -0.094827   0.509293   6.922999
     7  N    0.002072   0.000486   0.000967  -0.099232   0.335079  -0.094085
     8  N    0.002007  -0.084371   0.335226  -0.083142   0.001683  -0.000191
     9  C    0.000004  -0.003104  -0.031537   0.001403  -0.000089   0.000008
    10  C   -0.000003  -0.000110   0.003220  -0.000071   0.000002   0.000000
    11  O    0.000000  -0.000001  -0.000099  -0.000005   0.000000   0.000000
    12  C    0.000001  -0.000006   0.003340   0.000627   0.000013   0.000000
    13  C   -0.000036   0.003155  -0.042724  -0.013717  -0.000082   0.000005
    14  Br  -0.064214   0.268869  -0.052331   0.002688   0.000332   0.003034
    15  H    0.403865  -0.054926   0.002101  -0.000492   0.003395  -0.035435
    16  H    0.000163   0.000025  -0.000081   0.003667  -0.022294   0.003780
    17  H   -0.000153   0.000036   0.000048   0.003956  -0.023037   0.003576
    18  H    0.000034   0.000962  -0.003502   0.000544  -0.000021  -0.000003
    19  H    0.000055  -0.002959  -0.003522  -0.000044   0.000007  -0.000003
    20  H    0.000001   0.000034  -0.000798  -0.000001   0.000000   0.000000
    21  H    0.000000   0.000003  -0.000029   0.000001   0.000000   0.000000
    22  H    0.000000  -0.000019  -0.000611  -0.000033  -0.000002   0.000000
    23  H    0.000000   0.000001  -0.000039  -0.000001   0.000000   0.000000
    24  H   -0.000014   0.000395  -0.003700   0.001523   0.000012   0.000010
    25  H    0.000009  -0.000131  -0.001097   0.001603  -0.000255  -0.000001
               7          8          9         10         11         12
     1  C    0.002072   0.002007   0.000004  -0.000003   0.000000   0.000001
     2  C    0.000486  -0.084371  -0.003104  -0.000110  -0.000001  -0.000006
     3  C    0.000967   0.335226  -0.031537   0.003220  -0.000099   0.003340
     4  N   -0.099232  -0.083142   0.001403  -0.000071  -0.000005   0.000627
     5  C    0.335079   0.001683  -0.000089   0.000002   0.000000   0.000013
     6  N   -0.094085  -0.000191   0.000008   0.000000   0.000000   0.000000
     7  N    7.146372  -0.000054   0.000001   0.000000   0.000000   0.000000
     8  N   -0.000054   7.380711   0.228599  -0.052213   0.000876  -0.049617
     9  C    0.000001   0.228599   5.043752   0.344591  -0.048980  -0.012205
    10  C    0.000000  -0.052213   0.344591   4.811942   0.218345  -0.050653
    11  O    0.000000   0.000876  -0.048980   0.218345   8.464646   0.212227
    12  C    0.000000  -0.049617  -0.012205  -0.050653   0.212227   4.825465
    13  C   -0.000039   0.231269  -0.045070  -0.010822  -0.046196   0.341358
    14  Br   0.000006   0.001690  -0.020666  -0.000084  -0.000004  -0.000020
    15  H   -0.000058  -0.000050   0.000003   0.000000   0.000000   0.000000
    16  H    0.320787   0.000002   0.000000   0.000000   0.000000   0.000000
    17  H    0.321652  -0.000036   0.000000   0.000000   0.000000   0.000000
    18  H    0.000000  -0.058481   0.397861  -0.046735   0.000948  -0.000222
    19  H    0.000000  -0.034057   0.395055  -0.026834   0.002380  -0.000079
    20  H    0.000000  -0.000727  -0.054120   0.392529  -0.040645  -0.005971
    21  H    0.000000   0.003691  -0.042352   0.404387  -0.031882   0.004371
    22  H    0.000000  -0.000839   0.000575  -0.006006  -0.041202   0.390991
    23  H    0.000000   0.003772  -0.000505   0.004415  -0.031738   0.405652
    24  H   -0.000017  -0.034827   0.003486  -0.000102   0.002342  -0.030985
    25  H    0.000003  -0.055277  -0.001181  -0.000343   0.000961  -0.045339
              13         14         15         16         17         18
     1  C   -0.000036  -0.064214   0.403865   0.000163  -0.000153   0.000034
     2  C    0.003155   0.268869  -0.054926   0.000025   0.000036   0.000962
     3  C   -0.042724  -0.052331   0.002101  -0.000081   0.000048  -0.003502
     4  N   -0.013717   0.002688  -0.000492   0.003667   0.003956   0.000544
     5  C   -0.000082   0.000332   0.003395  -0.022294  -0.023037  -0.000021
     6  N    0.000005   0.003034  -0.035435   0.003780   0.003576  -0.000003
     7  N   -0.000039   0.000006  -0.000058   0.320787   0.321652   0.000000
     8  N    0.231269   0.001690  -0.000050   0.000002  -0.000036  -0.058481
     9  C   -0.045070  -0.020666   0.000003   0.000000   0.000000   0.397861
    10  C   -0.010822  -0.000084   0.000000   0.000000   0.000000  -0.046735
    11  O   -0.046196  -0.000004   0.000000   0.000000   0.000000   0.000948
    12  C    0.341358  -0.000020   0.000000   0.000000   0.000000  -0.000222
    13  C    5.000347  -0.000190   0.000001   0.000000   0.000000  -0.001512
    14  Br  -0.000190  34.994126   0.001063   0.000000   0.000000   0.000566
    15  H    0.000001   0.001063   0.439919  -0.000016   0.000003   0.000000
    16  H    0.000000   0.000000  -0.000016   0.307918  -0.015517   0.000000
    17  H    0.000000   0.000000   0.000003  -0.015517   0.311699   0.000000
    18  H   -0.001512   0.000566   0.000000   0.000000   0.000000   0.551882
    19  H    0.003308  -0.000247   0.000010   0.000000   0.000000  -0.028675
    20  H    0.000550   0.001023   0.000000   0.000000   0.000000   0.004894
    21  H   -0.000474   0.000007   0.000000   0.000000   0.000000  -0.001135
    22  H   -0.052821   0.000001   0.000000   0.000000   0.000000   0.000216
    23  H   -0.043546   0.000000   0.000000   0.000000   0.000000   0.000016
    24  H    0.400392  -0.000008   0.000000   0.000000   0.000018  -0.000151
    25  H    0.397007  -0.000001   0.000000   0.000000   0.000009   0.006006
              19         20         21         22         23         24
     1  C    0.000055   0.000001   0.000000   0.000000   0.000000  -0.000014
     2  C   -0.002959   0.000034   0.000003  -0.000019   0.000001   0.000395
     3  C   -0.003522  -0.000798  -0.000029  -0.000611  -0.000039  -0.003700
     4  N   -0.000044  -0.000001   0.000001  -0.000033  -0.000001   0.001523
     5  C    0.000007   0.000000   0.000000  -0.000002   0.000000   0.000012
     6  N   -0.000003   0.000000   0.000000   0.000000   0.000000   0.000010
     7  N    0.000000   0.000000   0.000000   0.000000   0.000000  -0.000017
     8  N   -0.034057  -0.000727   0.003691  -0.000839   0.003772  -0.034827
     9  C    0.395055  -0.054120  -0.042352   0.000575  -0.000505   0.003486
    10  C   -0.026834   0.392529   0.404387  -0.006006   0.004415  -0.000102
    11  O    0.002380  -0.040645  -0.031882  -0.041202  -0.031738   0.002342
    12  C   -0.000079  -0.005971   0.004371   0.390991   0.405652  -0.030985
    13  C    0.003308   0.000550  -0.000474  -0.052821  -0.043546   0.400392
    14  Br  -0.000247   0.001023   0.000007   0.000001   0.000000  -0.000008
    15  H    0.000010   0.000000   0.000000   0.000000   0.000000   0.000000
    16  H    0.000000   0.000000   0.000000   0.000000   0.000000   0.000000
    17  H    0.000000   0.000000   0.000000   0.000000   0.000000   0.000018
    18  H   -0.028675   0.004894  -0.001135   0.000216   0.000016  -0.000151
    19  H    0.481802  -0.000568  -0.001040   0.000012   0.000010  -0.000027
    20  H   -0.000568   0.558444  -0.027866   0.007306  -0.000121   0.000021
    21  H   -0.001040  -0.027866   0.510227  -0.000118  -0.000061   0.000010
    22  H    0.000012   0.007306  -0.000118   0.566567  -0.028725  -0.000271
    23  H    0.000010  -0.000121  -0.000061  -0.028725   0.511447  -0.000660
    24  H   -0.000027   0.000021   0.000010  -0.000271  -0.000660   0.481182
    25  H   -0.000192   0.000190   0.000024   0.004754  -0.001438  -0.026313
              25
     1  C    0.000009
     2  C   -0.000131
     3  C   -0.001097
     4  N    0.001603
     5  C   -0.000255
     6  N   -0.000001
     7  N    0.000003
     8  N   -0.055277
     9  C   -0.001181
    10  C   -0.000343
    11  O    0.000961
    12  C   -0.045339
    13  C    0.397007
    14  Br  -0.000001
    15  H    0.000000
    16  H    0.000000
    17  H    0.000009
    18  H    0.006006
    19  H   -0.000192
    20  H    0.000190
    21  H    0.000024
    22  H    0.004754
    23  H   -0.001438
    24  H   -0.026313
    25  H    0.546196
 Mulliken charges:
               1
     1  C    0.148587
     2  C   -0.161496
     3  C    0.713997
     4  N   -0.699477
     5  C    0.829916
     6  N   -0.618576
     7  N   -0.933941
     8  N   -0.735646
     9  C   -0.155530
    10  C    0.014547
    11  O   -0.661973
    12  C    0.011052
    13  C   -0.120164
    14  Br  -0.135641
    15  H    0.240617
    16  H    0.401568
    17  H    0.397744
    18  H    0.176509
    19  H    0.215610
    20  H    0.165826
    21  H    0.182237
    22  H    0.160225
    23  H    0.181521
    24  H    0.207684
    25  H    0.174804
 Sum of Mulliken charges =   0.00000
 Mulliken charges with hydrogens summed into heavy atoms:
               1
     1  C    0.389204
     2  C   -0.161496
     3  C    0.713997
     4  N   -0.699477
     5  C    0.829916
     6  N   -0.618576
     7  N   -0.134629
     8  N   -0.735646
     9  C    0.236589
    10  C    0.362610
    11  O   -0.661973
    12  C    0.352798
    13  C    0.262325
    14  Br  -0.135641
 DipInt: DoE/N= T F RetVal/Mat= T F Init=T NMatP=  1 IDeriv=0 Min/MaxMlt=  0  4
 Entering OneElI...
 OneElI was handed   235770916 working-precision words.
 Multipole integrals L=0 to 4 MinM= 0 MaxM= 0.
 Requested accuracy = 0.1000D-12
 ShPair: Thresh= 1.00D-13 NBox=     0 BxSize= 0.00D+00 RnKept= 1.65D+01
         NSMCal=                 3741 NSMKep=                3255
 PrsmSu:  NPrtUS=   1 ThrOK=F IAlg=1 NPAlg=1 LenDen=           0.
 Prism:   IPart=     0 DynPar=F LinDyn=F Incr=          32.
 PRISM was handed   235479773 working-precision words and  3255 shell-pairs
 IPart=  0 NShTot=        3255 NBatch=         132 AvBLen=        24.7
 PrSmSu:  NxtVal=             33.
 Electronic moments (au):
       -130.00000000          0.16912820         -0.54912322          0.33045021
      -2189.51817472      -1503.88146612       -161.50685248         -4.71396263
          2.57468782          0.13345049       2162.41155508       -298.97295917
        -44.22932813      -1720.33687875       3734.50210086       -170.59934929
        355.35874670        104.07168419        410.56694653        380.26002270
     -80362.11550468     -33308.90051361      -1049.27683152       3136.46703873
       -531.55166905       4807.14481132        538.32984176         22.89215617
       -251.29935469     -19962.29386728      -3281.26555337      -1407.13407360
      -1513.25068837       -752.59854828       -429.39329574
 Electronic spatial extent (au):  <R**2>=           3854.9065
 DipInt: DoE/N= F T RetVal/Mat= T F Init=T NMatP=  1 IDeriv=0 Min/MaxMlt=  0  4
 Nuclear    moments (au):
        130.00000000          0.00000000          0.00000000          0.00000000
       2114.58211622       1440.57190853         90.89405012          0.00000000
         -0.00006491         -0.00003102      -2088.04545849        326.46567324
         37.80360467       1751.59367663      -3709.05578900        173.30242016
       -367.53017398        -74.92531030       -405.86821504       -403.94540281
      72190.13032954      29465.63104712        486.84286765      -3471.93088666
        649.98401292      -5020.47685625       -660.90298797        -34.69736490
        213.43088638      18354.34676052       1932.64431351        558.79292105
       1489.21616258        870.26231393        470.38322560
 Total      moments (au):
          0.00000000          0.16912820         -0.54912322          0.33045021
        -74.93605850        -63.30955759        -70.61280236         -4.71396263
          2.57462291          0.13341947         74.36609659         27.49271407
         -6.42572346         31.25679788         25.44631186          2.70307088
        -12.17142729         29.14637390          4.69873149        -23.68538012
      -8171.98517514      -3843.26946648       -562.43396387       -335.46384793
        118.43234387       -213.33204493       -122.57314621        -11.80520873
        -37.86846832      -1607.94710676      -1348.62123987       -848.34115255
        -24.03452578        117.66376564         40.98992986
 Traceless Quadrup. (au):
         -5.31658568          6.30991523         -0.99332954         -4.71396263
          2.57462291          0.13341947
 Charge=              0.0000 electrons
 Dipole moment (field-independent basis, Debye):
    X=              0.4299    Y=             -1.3957    Z=              0.8399  Tot=              1.6847
 Quadrupole moment (field-independent basis, Debye-Ang):
   XX=           -100.7916   YY=            -85.1535   ZZ=            -94.9766
   XY=             -6.3404   XZ=              3.4630   YZ=              0.1795
 Traceless Quadrupole moment (field-independent basis, Debye-Ang):
   XX=             -7.1510   YY=              8.4871   ZZ=             -1.3361
   XY=             -6.3404   XZ=              3.4630   YZ=              0.1795
 Octapole moment (field-independent basis, Debye-Ang**2):
  XXX=             52.9309  YYY=             19.5683  ZZZ=             -4.5736  XYY=             22.2474
  XXY=             18.1117  XXZ=              1.9239  XZZ=             -8.6632  YZZ=             20.7453
  YYZ=              3.3444  XYZ=            -16.8583
 Hexadecapole moment (field-independent basis, Debye-Ang**3):
 XXXX=          -3077.9613 YYYY=          -1447.5595 ZZZZ=           -211.8396 XXXY=           -126.3518
 XXXZ=             44.6073 YYYX=            -80.3511 YYYZ=            -46.1669 ZZZX=             -4.4464
 ZZZY=            -14.2631 XXYY=           -605.6299 XXZZ=           -507.9554 YYZZ=           -319.5259
 XXYZ=             -9.0526 YYXZ=             44.3178 ZZXY=             15.4388
 N-N= 1.247984615313D+03 E-N=-1.005578669185D+04  KE= 3.174329870380D+03
 Entering OneElI...
 OneElI was handed   235807872 working-precision words.
 Calculate electrostatic properties
    NBasis =   232  MinDer = 0  MaxDer = 0
    NGrid  =    25  NMatD  =   1
 Requested accuracy = 0.1000D-12
 ShPair: Thresh= 1.00D-13 NBox=     0 BxSize= 0.00D+00 RnKept= 1.65D+01
         NSMCal=                 3741 NSMKep=                2915
 PrsmSu:  NPrtUS=   1 ThrOK=F IAlg=1 NPAlg=1 LenDen=           0.
 Prism:   IPart=     0 DynPar=F LinDyn=F Incr=         512.
 PRISM was handed   235547521 working-precision words and  2915 shell-pairs
 IPart=  0 NShTot=       72875 NBatch=        3011 AvBLen=        24.2
 PrSmSu:  NxtVal=            513.
 --------------------------------------------------------
       Center         ----      EFG at Nuclei      ----
                      3XX-RR        3YY-RR        3ZZ-RR
 --------------------------------------------------------
     1   Atom        0.269426      0.250461     -0.519887
     2   Atom        0.112983     -0.303440      0.190457
     3   Atom        0.180343      0.296823     -0.477166
     4   Atom       -0.229153      0.443080     -0.213927
     5   Atom        0.250402      0.228715     -0.479116
     6   Atom        0.802695     -0.529542     -0.273153
     7   Atom       -0.452394     -0.543830      0.996224
     8   Atom       -0.602248     -0.021714      0.623963
     9   Atom        0.017131      0.060270     -0.077401
    10   Atom        0.074016     -0.234536      0.160521
    11   Atom        0.441329     -0.994987      0.553658
    12   Atom        0.026156      0.042735     -0.068891
    13   Atom        0.063197     -0.176743      0.113546
    14   Atom        2.060717     -5.462718      3.402001
    15   Atom        0.004536     -0.157641      0.153105
    16   Atom       -0.363303      0.165008      0.198295
    17   Atom       -0.002790     -0.210392      0.213183
    18   Atom        0.138835      0.032890     -0.171725
    19   Atom        0.062449     -0.199519      0.137070
    20   Atom        0.142523     -0.002079     -0.140445
    21   Atom       -0.002053      0.054647     -0.052594
    22   Atom        0.140404      0.034910     -0.175314
    23   Atom        0.046468     -0.184562      0.138094
    24   Atom        0.022762      0.044597     -0.067359
    25   Atom        0.145222     -0.010282     -0.134940
 --------------------------------------------------------
                        XY            XZ            YZ
 --------------------------------------------------------
     1   Atom        0.041593      0.036806     -0.005645
     2   Atom        0.197221     -0.005762      0.078646
     3   Atom        0.021006     -0.033376      0.001013
     4   Atom        0.617639     -0.020365      0.052980
     5   Atom        0.035270      0.031628      0.014409
     6   Atom       -0.111429      0.041579     -0.022332
     7   Atom        0.050496     -0.111566      0.127740
     8   Atom       -0.196412      0.271488     -0.734248
     9   Atom        0.140993      0.155676     -0.135597
    10   Atom       -0.167520     -0.072372     -0.095858
    11   Atom       -0.331071      0.841311     -1.423234
    12   Atom        0.154144      0.159117     -0.186962
    13   Atom       -0.157419     -0.062458     -0.067618
    14   Atom        3.465881     -0.511514      1.413773
    15   Atom       -0.202637     -0.003996     -0.003880
    16   Atom        0.018194     -0.155414      0.009790
    17   Atom       -0.252976      0.064797      0.108665
    18   Atom       -0.001584      0.020250      0.178898
    19   Atom       -0.157777     -0.023485     -0.075854
    20   Atom       -0.013450      0.008342      0.190601
    21   Atom        0.108592      0.170347     -0.137815
    22   Atom       -0.001287      0.018544      0.174471
    23   Atom       -0.174788     -0.026444     -0.061528
    24   Atom        0.100535      0.165733     -0.150684
    25   Atom       -0.014273      0.005914      0.197288
 --------------------------------------------------------


 ---------------------------------------------------------------------------------
              Nuclear Quadrupole Coupling Constant in Principal Axis System
 ---------------------------------------------------------------------------------

       Atom             a.u.   MegaHertz   Gauss  10(-4) cm-1        Axes

              Baa    -0.6013     2.888     1.031     0.963  0.8525 -0.5100  0.1146
     4 N(14)  Bbb    -0.2100     1.009     0.360     0.336 -0.1160  0.0291  0.9928
              Bcc     0.8113    -3.897    -1.390    -1.300  0.5096  0.8597  0.0343
 
              Baa    -0.5401     2.594     0.926     0.865  0.0803  0.9943  0.0707
     6 N(14)  Bbb    -0.2735     1.314     0.469     0.438 -0.0455 -0.0672  0.9967
              Bcc     0.8137    -3.908    -1.394    -1.304  0.9957 -0.0833  0.0398
 
              Baa    -0.5830     2.800     0.999     0.934 -0.4340  0.8950 -0.1031
     7 N(14)  Bbb    -0.4315     2.073     0.740     0.691  0.8980  0.4390  0.0309
              Bcc     1.0146    -4.873    -1.739    -1.625 -0.0729  0.0791  0.9942
 
              Baa    -0.6671     3.204     1.143     1.069  0.9782  0.1804 -0.1031
     8 N(14)  Bbb    -0.4995     2.399     0.856     0.800 -0.0927  0.8231  0.5603
              Bcc     1.1666    -5.603    -1.999    -1.869  0.1859 -0.5386  0.8218
 
              Baa    -7.0325   517.195   184.548   172.518 -0.3595  0.9222 -0.1426
    14 Br(79) Bbb     3.4074  -250.591   -89.417   -83.588  0.9265  0.3346 -0.1723
              Bcc     3.6251  -266.604   -95.131   -88.929  0.1112  0.1940  0.9747
 

 ---------------------------------------------------------------------------------

 No NMR shielding tensors so no spin-rotation constants.
 Leave Link  601 at Thu Jan 16 22:40:06 2014, MaxMem=   235929600 cpu:         0.3
 FitSet:  NAtFit=    25 NAtPot=    25 NAtFrz=     0 MDM=    29 TotChg=   0.00000
 Merz-Kollman atomic radii used.
 Atom Element Radius
    1     6    1.50
    2     6    1.50
    3     6    1.50
    4     7    1.50
    5     6    1.50
    6     7    1.50
    7     7    1.50
    8     7    1.50
    9     6    1.50
   10     6    1.50
   11     8    1.40
   12     6    1.50
   13     6    1.50
   14    35    2.30
   15     1    1.20
   16     1    1.20
   17     1    1.20
   18     1    1.20
   19     1    1.20
   20     1    1.20
   21     1    1.20
   22     1    1.20
   23     1    1.20
   24     1    1.20
   25     1    1.20
 Generate VDW surfaces: Layer= 5 Dens= 2 Start= 1.400 Inc= 0.179

 **********************************************************************

            Electrostatic Properties Using The SCF Density

 **********************************************************************

       Atomic Center    1 is at   2.543675  0.538049  0.111178
       Atomic Center    2 is at   1.161368  0.651578  0.049283
       Atomic Center    3 is at   0.404379 -0.547934  0.056448
       Atomic Center    4 is at   1.054880 -1.720908  0.046630
       Atomic Center    5 is at   2.396694 -1.710870  0.060074
       Atomic Center    6 is at   3.191859 -0.627870  0.136429
       Atomic Center    7 is at   3.019832 -2.925504 -0.024748
       Atomic Center    8 is at  -0.978972 -0.595844  0.014762
       Atomic Center    9 is at  -1.786434  0.167326  0.981174
       Atomic Center   10 is at  -3.197573  0.349734  0.429981
       Atomic Center   11 is at  -3.804672 -0.900028  0.133810
       Atomic Center   12 is at  -3.027278 -1.628972 -0.806485
       Atomic Center   13 is at  -1.608800 -1.884521 -0.298484
       Atomic Center   14 is at   0.424109  2.398838 -0.197715
       Atomic Center   15 is at   3.155720  1.437554  0.123668
       Atomic Center   16 is at   3.996163 -2.948833  0.230522
       Atomic Center   17 is at   2.462835 -3.741676  0.179945
       Atomic Center   18 is at  -1.836754 -0.386624  1.933185
       Atomic Center   19 is at  -1.334711  1.138993  1.174021
       Atomic Center   20 is at  -3.155608  0.980339 -0.473024
       Atomic Center   21 is at  -3.835872  0.837220  1.172936
       Atomic Center   22 is at  -2.982401 -1.084559 -1.764231
       Atomic Center   23 is at  -3.546929 -2.578421 -0.967443
       Atomic Center   24 is at  -1.017682 -2.394778 -1.060817
       Atomic Center   25 is at  -1.640589 -2.533795  0.590268
      ESP Fit Center   26 is at   2.543675  0.538049  2.211178
      ESP Fit Center   27 is at   3.261917  0.538049  2.084532
      ESP Fit Center   28 is at   2.902796  1.160065  2.084532
      ESP Fit Center   29 is at   1.825433  0.538049  2.084532
      ESP Fit Center   30 is at   2.184554 -0.083967  2.084532
      ESP Fit Center   31 is at   3.679245  1.267835  1.719871
      ESP Fit Center   32 is at   3.893529  0.538049 -1.497515
      ESP Fit Center   33 is at   3.679245  1.267835 -1.497515
      ESP Fit Center   34 is at   3.261917  0.538049 -1.862177
      ESP Fit Center   35 is at   2.902796  1.160065 -1.862177
      ESP Fit Center   36 is at   2.184554 -0.083967 -1.862177
      ESP Fit Center   37 is at   2.543675  0.538049 -1.988822
      ESP Fit Center   38 is at   1.520489  0.029562  2.022637
      ESP Fit Center   39 is at   0.404379 -0.547934  2.156448
      ESP Fit Center   40 is at   1.122621 -0.547934  2.029802
      ESP Fit Center   41 is at   0.763500  0.074082  2.029802
      ESP Fit Center   42 is at   0.045258  0.074082  2.029802
      ESP Fit Center   43 is at   0.045258 -1.169950  2.029802
      ESP Fit Center   44 is at   1.122621 -0.547934 -1.916907
      ESP Fit Center   45 is at   0.045258 -1.169950 -1.916907
      ESP Fit Center   46 is at   0.404379 -0.547934 -2.043552
      ESP Fit Center   47 is at   1.054880 -1.720908  2.146630
      ESP Fit Center   48 is at   1.414001 -1.098892  2.019984
      ESP Fit Center   49 is at   0.336638 -1.720908  2.019984
      ESP Fit Center   50 is at   0.695759 -2.342924  2.019984
      ESP Fit Center   51 is at   1.414001 -2.342924  2.019984
      ESP Fit Center   52 is at  -0.240295 -2.101206  1.655323
      ESP Fit Center   53 is at   0.170914 -2.741059  1.655323
      ESP Fit Center   54 is at   0.862776 -3.057022  1.655323
      ESP Fit Center   55 is at   1.615630 -2.948778  1.655323
      ESP Fit Center   56 is at   0.145553 -3.295908  1.096630
      ESP Fit Center   57 is at   0.864779 -3.529598  1.096630
      ESP Fit Center   58 is at  -0.191426 -3.371284  0.411291
      ESP Fit Center   59 is at   0.488919 -3.710056  0.411291
      ESP Fit Center   60 is at   0.488919 -3.710056 -0.318031
      ESP Fit Center   61 is at   0.864779 -3.529598 -1.003370
      ESP Fit Center   62 is at   0.862776 -3.057022 -1.562063
      ESP Fit Center   63 is at   1.414001 -1.098892 -1.926725
      ESP Fit Center   64 is at   0.336638 -1.720908 -1.926725
      ESP Fit Center   65 is at   0.695759 -2.342924 -1.926725
      ESP Fit Center   66 is at   1.414001 -2.342924 -1.926725
      ESP Fit Center   67 is at   1.054880 -1.720908 -2.053370
      ESP Fit Center   68 is at   2.396694 -1.710870  2.160074
      ESP Fit Center   69 is at   3.114936 -1.710870  2.033428
      ESP Fit Center   70 is at   2.037573 -1.088854  2.033428
      ESP Fit Center   71 is at   2.037573 -2.332886  2.033428
      ESP Fit Center   72 is at   2.755815 -2.332886  2.033428
      ESP Fit Center   73 is at   3.114936 -1.710870 -1.913281
      ESP Fit Center   74 is at   2.755815 -1.088854 -1.913281
      ESP Fit Center   75 is at   2.037573 -1.088854 -1.913281
      ESP Fit Center   76 is at   2.037573 -2.332886 -1.913281
      ESP Fit Center   77 is at   2.396694 -1.710870 -2.039926
      ESP Fit Center   78 is at   3.191859 -0.627870  2.236429
      ESP Fit Center   79 is at   3.910101 -0.627870  2.109783
      ESP Fit Center   80 is at   3.550980 -0.005854  2.109783
      ESP Fit Center   81 is at   2.473617 -0.627870  2.109783
      ESP Fit Center   82 is at   2.832738 -1.249886  2.109783
      ESP Fit Center   83 is at   3.550980 -1.249886  2.109783
      ESP Fit Center   84 is at   4.541713 -0.627870  1.745122
      ESP Fit Center   85 is at   4.327428  0.101916  1.745122
      ESP Fit Center   86 is at   3.752609 -1.855740  1.745122
      ESP Fit Center   87 is at   4.327428 -1.357656  1.745122
      ESP Fit Center   88 is at   5.010512 -0.627870  1.186429
      ESP Fit Center   89 is at   4.853282  0.111843  1.186429
      ESP Fit Center   90 is at   4.408776  0.723653  1.186429
      ESP Fit Center   91 is at   4.853282 -1.367583  1.186429
      ESP Fit Center   92 is at   5.259955 -0.627870  0.501090
      ESP Fit Center   93 is at   5.120301  0.119213  0.501090
      ESP Fit Center   94 is at   4.720201  0.765397  0.501090
      ESP Fit Center   95 is at   5.120301 -1.374953  0.501090
      ESP Fit Center   96 is at   5.259955 -0.627870 -0.228232
      ESP Fit Center   97 is at   5.120301  0.119213 -0.228232
      ESP Fit Center   98 is at   4.720201  0.765397 -0.228232
      ESP Fit Center   99 is at   5.120301 -1.374953 -0.228232
      ESP Fit Center  100 is at   5.010512 -0.627870 -0.913571
      ESP Fit Center  101 is at   4.853282  0.111843 -0.913571
      ESP Fit Center  102 is at   4.408776  0.723653 -0.913571
      ESP Fit Center  103 is at   4.853282 -1.367583 -0.913571
      ESP Fit Center  104 is at   4.541713 -0.627870 -1.472264
      ESP Fit Center  105 is at   4.327428  0.101916 -1.472264
      ESP Fit Center  106 is at   4.327428 -1.357656 -1.472264
      ESP Fit Center  107 is at   3.910101 -0.627870 -1.836926
      ESP Fit Center  108 is at   3.550980 -0.005854 -1.836926
      ESP Fit Center  109 is at   2.473617 -0.627870 -1.836926
      ESP Fit Center  110 is at   3.550980 -1.249886 -1.836926
      ESP Fit Center  111 is at   3.191859 -0.627870 -1.963571
      ESP Fit Center  112 is at   3.019832 -2.925504  2.075252
      ESP Fit Center  113 is at   3.738074 -2.925504  1.948606
      ESP Fit Center  114 is at   3.378953 -2.303488  1.948606
      ESP Fit Center  115 is at   2.301590 -2.925504  1.948606
      ESP Fit Center  116 is at   2.660711 -3.547520  1.948606
      ESP Fit Center  117 is at   3.378953 -3.547520  1.948606
      ESP Fit Center  118 is at   3.580582 -4.153374  1.583945
      ESP Fit Center  119 is at   3.941662 -4.776788  0.339913
      ESP Fit Center  120 is at   3.941662 -4.776788 -0.389409
      ESP Fit Center  121 is at   3.581827 -4.655146 -1.074748
      ESP Fit Center  122 is at   4.236749 -4.277027 -1.074748
      ESP Fit Center  123 is at   4.369686 -2.925504 -1.633441
      ESP Fit Center  124 is at   4.155401 -2.195718 -1.633441
      ESP Fit Center  125 is at   1.724657 -3.305802 -1.633441
      ESP Fit Center  126 is at   2.135866 -3.945656 -1.633441
      ESP Fit Center  127 is at   2.827728 -4.261618 -1.633441
      ESP Fit Center  128 is at   3.580582 -4.153374 -1.633441
      ESP Fit Center  129 is at   4.155401 -3.655290 -1.633441
      ESP Fit Center  130 is at   3.738074 -2.925504 -1.998103
      ESP Fit Center  131 is at   3.378953 -2.303488 -1.998103
      ESP Fit Center  132 is at   2.660711 -2.303488 -1.998103
      ESP Fit Center  133 is at   2.301590 -2.925504 -1.998103
      ESP Fit Center  134 is at   2.660711 -3.547520 -1.998103
      ESP Fit Center  135 is at   3.378953 -3.547520 -1.998103
      ESP Fit Center  136 is at   3.019832 -2.925504 -2.124748
      ESP Fit Center  137 is at  -0.418222 -1.823714  1.623455
      ESP Fit Center  138 is at  -1.862938  0.424308 -1.593931
      ESP Fit Center  139 is at  -0.260730 -0.595844 -1.958593
      ESP Fit Center  140 is at  -1.338093  0.026172 -1.958593
      ESP Fit Center  141 is at  -0.978972 -0.595844 -2.085238
      ESP Fit Center  142 is at  -2.670400  1.187478  2.589867
      ESP Fit Center  143 is at  -2.695761  1.742326  2.031174
      ESP Fit Center  144 is at  -3.556694 -0.272282  2.403335
      ESP Fit Center  145 is at  -3.006753  2.409008  0.794642
      ESP Fit Center  146 is at  -4.443879  2.000111  0.065320
      ESP Fit Center  147 is at  -4.955904  1.438447  0.065320
      ESP Fit Center  148 is at  -5.230456  0.729746  0.065320
      ESP Fit Center  149 is at  -4.976484  0.727854 -0.620019
      ESP Fit Center  150 is at  -3.804672 -0.900028  2.093810
      ESP Fit Center  151 is at  -4.554731 -0.900028  1.944614
      ESP Fit Center  152 is at  -4.179702 -1.549598  1.944614
      ESP Fit Center  153 is at  -3.429642 -1.549598  1.944614
      ESP Fit Center  154 is at  -5.190601 -0.900028  1.519739
      ESP Fit Center  155 is at  -5.004922 -1.592992  1.519739
      ESP Fit Center  156 is at  -4.497637 -2.100278  1.519739
      ESP Fit Center  157 is at  -3.804672 -2.285957  1.519739
      ESP Fit Center  158 is at  -3.111707 -2.100278  1.519739
      ESP Fit Center  159 is at  -5.575905 -0.523540  0.883869
      ESP Fit Center  160 is at  -5.575905 -1.276515  0.883869
      ESP Fit Center  161 is at  -5.269643 -1.964392  0.883869
      ESP Fit Center  162 is at  -4.710074 -2.468230  0.883869
      ESP Fit Center  163 is at  -3.993953 -2.700912  0.883869
      ESP Fit Center  164 is at  -5.471098  0.131779  0.133810
      ESP Fit Center  165 is at  -5.731299 -0.539879  0.133810
      ESP Fit Center  166 is at  -5.731299 -1.260177  0.133810
      ESP Fit Center  167 is at  -5.471098 -1.931835  0.133810
      ESP Fit Center  168 is at  -4.985836 -2.464141  0.133810
      ESP Fit Center  169 is at  -5.269643  0.164336 -0.616250
      ESP Fit Center  170 is at  -5.575905 -0.523540 -0.616250
      ESP Fit Center  171 is at  -5.575905 -1.276515 -0.616250
      ESP Fit Center  172 is at  -5.269643 -1.964392 -0.616250
      ESP Fit Center  173 is at  -4.497637  0.300222 -1.252119
      ESP Fit Center  174 is at  -5.004922 -0.207063 -1.252119
      ESP Fit Center  175 is at  -5.190601 -0.900028 -1.252119
      ESP Fit Center  176 is at  -4.806189 -1.250852 -1.856485
      ESP Fit Center  177 is at  -4.322453 -2.009270 -2.415178
      ESP Fit Center  178 is at  -2.466528 -2.856842 -2.415178
      ESP Fit Center  179 is at  -2.174761 -3.873669 -0.663145
      ESP Fit Center  180 is at   0.424109  2.398838  3.022285
      ESP Fit Center  181 is at   1.140627  2.398838  2.941553
      ESP Fit Center  182 is at   0.782368  3.019360  2.941553
      ESP Fit Center  183 is at   0.065850  3.019360  2.941553
      ESP Fit Center  184 is at  -0.292408  2.398838  2.941553
      ESP Fit Center  185 is at   0.065850  1.778316  2.941553
      ESP Fit Center  186 is at   0.782368  1.778316  2.941553
      ESP Fit Center  187 is at   1.821215  2.398838  2.703405
      ESP Fit Center  188 is at   1.634038  3.097391  2.703405
      ESP Fit Center  189 is at   1.122662  3.608767  2.703405
      ESP Fit Center  190 is at   0.424109  3.795944  2.703405
      ESP Fit Center  191 is at  -0.274444  3.608767  2.703405
      ESP Fit Center  192 is at  -0.785820  3.097391  2.703405
      ESP Fit Center  193 is at  -0.972996  2.398838  2.703405
      ESP Fit Center  194 is at  -0.785820  1.700285  2.703405
      ESP Fit Center  195 is at  -0.274444  1.188909  2.703405
      ESP Fit Center  196 is at   0.424109  1.001732  2.703405
      ESP Fit Center  197 is at   1.122662  1.188909  2.703405
      ESP Fit Center  198 is at   1.634038  1.700285  2.703405
      ESP Fit Center  199 is at   2.431746  2.398838  2.319782
      ESP Fit Center  200 is at   2.296175  3.124080  2.319782
      ESP Fit Center  201 is at   1.907771  3.751375  2.319782
      ESP Fit Center  202 is at   1.318990  4.196001  2.319782
      ESP Fit Center  203 is at   0.609351  4.397911  2.319782
      ESP Fit Center  204 is at  -0.125307  4.329835  2.319782
      ESP Fit Center  205 is at  -0.785763  4.000967  2.319782
      ESP Fit Center  206 is at  -1.282818  3.455723  2.319782
      ESP Fit Center  207 is at  -1.549344  2.767740  2.319782
      ESP Fit Center  208 is at  -0.125307  0.467841  2.319782
      ESP Fit Center  209 is at   0.609351  0.399765  2.319782
      ESP Fit Center  210 is at   1.318990  0.601675  2.319782
      ESP Fit Center  211 is at   1.907771  1.046302  2.319782
      ESP Fit Center  212 is at   2.296175  1.673596  2.319782
      ESP Fit Center  213 is at   2.941607  2.398838  1.809922
      ESP Fit Center  214 is at   2.829761  3.140883  1.809922
      ESP Fit Center  215 is at   2.504163  3.816995  1.809922
      ESP Fit Center  216 is at   1.993743  4.367097  1.809922
      ESP Fit Center  217 is at   1.343854  4.742310  1.809922
      ESP Fit Center  218 is at   0.612242  4.909296  1.809922
      ESP Fit Center  219 is at  -0.136087  4.853217  1.809922
      ESP Fit Center  220 is at  -0.834640  4.579055  1.809922
      ESP Fit Center  221 is at  -1.421347  4.111171  1.809922
      ESP Fit Center  222 is at  -1.844078  3.491139  1.809922
      ESP Fit Center  223 is at  -2.065270  2.774052  1.809922
      ESP Fit Center  224 is at   3.234085  3.120317  1.199391
      ESP Fit Center  225 is at   2.966380  3.796463  1.199391
      ESP Fit Center  226 is at   2.538934  4.384791  1.199391
      ESP Fit Center  227 is at   1.978607  4.848335  1.199391
      ESP Fit Center  228 is at   1.320604  5.157967  1.199391
      ESP Fit Center  229 is at   0.606272  5.294233  1.199391
      ESP Fit Center  230 is at  -0.119506  5.248571  1.199391
      ESP Fit Center  231 is at  -0.811128  5.023850  1.199391
      ESP Fit Center  232 is at  -1.425134  4.634189  1.199391
      ESP Fit Center  233 is at  -1.922946  4.104074  1.199391
      ESP Fit Center  234 is at  -2.273284  3.466812  1.199391
      ESP Fit Center  235 is at  -2.454134  2.762445  1.199391
      ESP Fit Center  236 is at   3.478758  3.122803  0.518802
      ESP Fit Center  237 is at   3.229461  3.807739  0.518802
      ESP Fit Center  238 is at   2.828928  4.416721  0.518802
      ESP Fit Center  239 is at   2.298750  4.916918  0.518802
      ESP Fit Center  240 is at   1.667510  5.281364  0.518802
      ESP Fit Center  241 is at   0.969237  5.490413  0.518802
      ESP Fit Center  242 is at   0.241577  5.532795  0.518802
      ESP Fit Center  243 is at  -0.476243  5.406224  0.518802
      ESP Fit Center  244 is at  -1.145525  5.117524  0.518802
      ESP Fit Center  245 is at  -1.730187  4.682259  0.518802
      ESP Fit Center  246 is at  -2.198711  4.123894  0.518802
      ESP Fit Center  247 is at  -2.525838  3.472531  0.518802
      ESP Fit Center  248 is at  -2.693932  2.763285  0.518802
      ESP Fit Center  249 is at   3.563377  3.115356 -0.197715
      ESP Fit Center  250 is at   3.325229  3.795944 -0.197715
      ESP Fit Center  251 is at   2.941607  4.406475 -0.197715
      ESP Fit Center  252 is at   2.431746  4.916335 -0.197715
      ESP Fit Center  253 is at   1.821215  5.299958 -0.197715
      ESP Fit Center  254 is at   1.140627  5.538106 -0.197715
      ESP Fit Center  255 is at   0.424109  5.618838 -0.197715
      ESP Fit Center  256 is at  -0.292408  5.538106 -0.197715
      ESP Fit Center  257 is at  -0.972996  5.299958 -0.197715
      ESP Fit Center  258 is at  -1.583528  4.916335 -0.197715
      ESP Fit Center  259 is at  -2.093388  4.406475 -0.197715
      ESP Fit Center  260 is at  -2.477011  3.795944 -0.197715
      ESP Fit Center  261 is at  -2.715159  3.115356 -0.197715
      ESP Fit Center  262 is at   3.478758  3.122803 -0.914232
      ESP Fit Center  263 is at   3.229461  3.807739 -0.914232
      ESP Fit Center  264 is at   2.828928  4.416721 -0.914232
      ESP Fit Center  265 is at   2.298750  4.916918 -0.914232
      ESP Fit Center  266 is at   1.667510  5.281364 -0.914232
      ESP Fit Center  267 is at   0.969237  5.490413 -0.914232
      ESP Fit Center  268 is at   0.241577  5.532795 -0.914232
      ESP Fit Center  269 is at  -0.476243  5.406224 -0.914232
      ESP Fit Center  270 is at  -1.145525  5.117524 -0.914232
      ESP Fit Center  271 is at  -1.730187  4.682259 -0.914232
      ESP Fit Center  272 is at  -2.198711  4.123894 -0.914232
      ESP Fit Center  273 is at  -2.525838  3.472531 -0.914232
      ESP Fit Center  274 is at  -2.693932  2.763285 -0.914232
      ESP Fit Center  275 is at   3.325229  2.398838 -1.594821
      ESP Fit Center  276 is at   3.234085  3.120317 -1.594821
      ESP Fit Center  277 is at   2.966380  3.796463 -1.594821
      ESP Fit Center  278 is at   2.538934  4.384791 -1.594821
      ESP Fit Center  279 is at   1.978607  4.848335 -1.594821
      ESP Fit Center  280 is at   1.320604  5.157967 -1.594821
      ESP Fit Center  281 is at   0.606272  5.294233 -1.594821
      ESP Fit Center  282 is at  -0.119506  5.248571 -1.594821
      ESP Fit Center  283 is at  -0.811128  5.023850 -1.594821
      ESP Fit Center  284 is at  -1.425134  4.634189 -1.594821
      ESP Fit Center  285 is at  -1.922946  4.104074 -1.594821
      ESP Fit Center  286 is at  -2.273284  3.466812 -1.594821
      ESP Fit Center  287 is at  -2.454134  2.762445 -1.594821
      ESP Fit Center  288 is at  -2.454134  2.035231 -1.594821
      ESP Fit Center  289 is at  -1.922946  0.693603 -1.594821
      ESP Fit Center  290 is at   3.234085  1.677359 -1.594821
      ESP Fit Center  291 is at   2.941607  2.398838 -2.205352
      ESP Fit Center  292 is at   2.829761  3.140883 -2.205352
      ESP Fit Center  293 is at   2.504163  3.816995 -2.205352
      ESP Fit Center  294 is at   1.993743  4.367097 -2.205352
      ESP Fit Center  295 is at   1.343854  4.742310 -2.205352
      ESP Fit Center  296 is at   0.612242  4.909296 -2.205352
      ESP Fit Center  297 is at  -0.136087  4.853217 -2.205352
      ESP Fit Center  298 is at  -0.834640  4.579055 -2.205352
      ESP Fit Center  299 is at  -1.421347  4.111171 -2.205352
      ESP Fit Center  300 is at  -1.844078  3.491139 -2.205352
      ESP Fit Center  301 is at  -2.065270  2.774052 -2.205352
      ESP Fit Center  302 is at  -2.065270  2.023625 -2.205352
      ESP Fit Center  303 is at  -1.844078  1.306537 -2.205352
      ESP Fit Center  304 is at  -1.421347  0.686505 -2.205352
      ESP Fit Center  305 is at  -0.834640  0.218621 -2.205352
      ESP Fit Center  306 is at  -0.136087 -0.055540 -2.205352
      ESP Fit Center  307 is at   0.612242 -0.111620 -2.205352
      ESP Fit Center  308 is at   1.343854  0.055366 -2.205352
      ESP Fit Center  309 is at   1.993743  0.430579 -2.205352
      ESP Fit Center  310 is at   2.504163  0.980681 -2.205352
      ESP Fit Center  311 is at   2.829761  1.656793 -2.205352
      ESP Fit Center  312 is at   2.431746  2.398838 -2.715212
      ESP Fit Center  313 is at   2.296175  3.124080 -2.715212
      ESP Fit Center  314 is at   1.907771  3.751375 -2.715212
      ESP Fit Center  315 is at   1.318990  4.196001 -2.715212
      ESP Fit Center  316 is at   0.609351  4.397911 -2.715212
      ESP Fit Center  317 is at  -0.125307  4.329835 -2.715212
      ESP Fit Center  318 is at  -0.785763  4.000967 -2.715212
      ESP Fit Center  319 is at  -1.282818  3.455723 -2.715212
      ESP Fit Center  320 is at  -1.549344  2.767740 -2.715212
      ESP Fit Center  321 is at  -1.549344  2.029936 -2.715212
      ESP Fit Center  322 is at  -1.282818  1.341953 -2.715212
      ESP Fit Center  323 is at  -0.785763  0.796709 -2.715212
      ESP Fit Center  324 is at  -0.125307  0.467841 -2.715212
      ESP Fit Center  325 is at   0.609351  0.399765 -2.715212
      ESP Fit Center  326 is at   1.318990  0.601675 -2.715212
      ESP Fit Center  327 is at   1.907771  1.046302 -2.715212
      ESP Fit Center  328 is at   2.296175  1.673596 -2.715212
      ESP Fit Center  329 is at   1.821215  2.398838 -3.098835
      ESP Fit Center  330 is at   1.634038  3.097391 -3.098835
      ESP Fit Center  331 is at   1.122662  3.608767 -3.098835
      ESP Fit Center  332 is at   0.424109  3.795944 -3.098835
      ESP Fit Center  333 is at  -0.274444  3.608767 -3.098835
      ESP Fit Center  334 is at  -0.785820  3.097391 -3.098835
      ESP Fit Center  335 is at  -0.972996  2.398838 -3.098835
      ESP Fit Center  336 is at  -0.785820  1.700285 -3.098835
      ESP Fit Center  337 is at  -0.274444  1.188909 -3.098835
      ESP Fit Center  338 is at   0.424109  1.001732 -3.098835
      ESP Fit Center  339 is at   1.122662  1.188909 -3.098835
      ESP Fit Center  340 is at   1.634038  1.700285 -3.098835
      ESP Fit Center  341 is at   1.140627  2.398838 -3.336983
      ESP Fit Center  342 is at   0.782368  3.019360 -3.336983
      ESP Fit Center  343 is at   0.065850  3.019360 -3.336983
      ESP Fit Center  344 is at  -0.292408  2.398838 -3.336983
      ESP Fit Center  345 is at   0.065850  1.778316 -3.336983
      ESP Fit Center  346 is at   0.782368  1.778316 -3.336983
      ESP Fit Center  347 is at   0.424109  2.398838 -3.417715
      ESP Fit Center  348 is at   3.884645  1.437554  1.637296
      ESP Fit Center  349 is at   3.520182  2.068821  1.637296
      ESP Fit Center  350 is at   4.469197  1.437554  1.171131
      ESP Fit Center  351 is at   4.218345  2.209596  1.171131
      ESP Fit Center  352 is at   3.561607  2.686745  1.171131
      ESP Fit Center  353 is at   4.793599  1.437554  0.497503
      ESP Fit Center  354 is at   4.605990  2.198714  0.497503
      ESP Fit Center  355 is at   4.086141  2.785502  0.497503
      ESP Fit Center  356 is at   4.793599  1.437554 -0.250167
      ESP Fit Center  357 is at   4.605990  2.198714 -0.250167
      ESP Fit Center  358 is at   4.086141  2.785502 -0.250167
      ESP Fit Center  359 is at   4.469197  1.437554 -0.923795
      ESP Fit Center  360 is at   4.218345  2.209596 -0.923795
      ESP Fit Center  361 is at   3.561607  2.686745 -0.923795
      ESP Fit Center  362 is at   3.884645  1.437554 -1.389960
      ESP Fit Center  363 is at   3.520182  2.068821 -1.389960
      ESP Fit Center  364 is at   3.996163 -2.948833  1.910522
      ESP Fit Center  365 is at   4.725088 -2.948833  1.744150
      ESP Fit Center  366 is at   4.360625 -2.317566  1.744150
      ESP Fit Center  367 is at   4.360625 -3.580100  1.744150
      ESP Fit Center  368 is at   5.309640 -2.948833  1.277985
      ESP Fit Center  369 is at   5.058788 -2.176791  1.277985
      ESP Fit Center  370 is at   4.402050 -4.198024  1.277985
      ESP Fit Center  371 is at   5.058788 -3.720875  1.277985
      ESP Fit Center  372 is at   5.634042 -2.948833  0.604357
      ESP Fit Center  373 is at   5.446433 -2.187673  0.604357
      ESP Fit Center  374 is at   4.193587 -4.574770  0.604357
      ESP Fit Center  375 is at   4.926584 -4.296781  0.604357
      ESP Fit Center  376 is at   5.446433 -3.709993  0.604357
      ESP Fit Center  377 is at   5.634042 -2.948833 -0.143313
      ESP Fit Center  378 is at   5.446433 -2.187673 -0.143313
      ESP Fit Center  379 is at   4.926584 -4.296781 -0.143313
      ESP Fit Center  380 is at   5.446433 -3.709993 -0.143313
      ESP Fit Center  381 is at   5.309640 -2.948833 -0.816941
      ESP Fit Center  382 is at   5.058788 -2.176791 -0.816941
      ESP Fit Center  383 is at   5.058788 -3.720875 -0.816941
      ESP Fit Center  384 is at   4.725088 -2.948833 -1.283106
      ESP Fit Center  385 is at   2.462835 -3.741676  1.859945
      ESP Fit Center  386 is at   1.733910 -3.741676  1.693573
      ESP Fit Center  387 is at   2.098373 -4.372943  1.693573
      ESP Fit Center  388 is at   2.827297 -4.372943  1.693573
      ESP Fit Center  389 is at   1.149358 -3.741676  1.227408
      ESP Fit Center  390 is at   1.400210 -4.513718  1.227408
      ESP Fit Center  391 is at   2.056948 -4.990867  1.227408
      ESP Fit Center  392 is at   2.868722 -4.990867  1.227408
      ESP Fit Center  393 is at   0.872550 -4.133646  0.553780
      ESP Fit Center  394 is at   1.236865 -4.827791  0.553780
      ESP Fit Center  395 is at   1.882035 -5.273119  0.553780
      ESP Fit Center  396 is at   2.660259 -5.367613  0.553780
      ESP Fit Center  397 is at   3.393256 -5.089624  0.553780
      ESP Fit Center  398 is at   0.872550 -4.133646 -0.193890
      ESP Fit Center  399 is at   1.236865 -4.827791 -0.193890
      ESP Fit Center  400 is at   1.882035 -5.273119 -0.193890
      ESP Fit Center  401 is at   2.660259 -5.367613 -0.193890
      ESP Fit Center  402 is at   3.393256 -5.089624 -0.193890
      ESP Fit Center  403 is at   1.149358 -3.741676 -0.867518
      ESP Fit Center  404 is at   1.400210 -4.513718 -0.867518
      ESP Fit Center  405 is at   2.056948 -4.990867 -0.867518
      ESP Fit Center  406 is at   2.868722 -4.990867 -0.867518
      ESP Fit Center  407 is at   2.098373 -4.372943 -1.333683
      ESP Fit Center  408 is at  -1.836754 -0.386624  3.613185
      ESP Fit Center  409 is at  -1.107829 -0.386624  3.446813
      ESP Fit Center  410 is at  -1.472292  0.244643  3.446813
      ESP Fit Center  411 is at  -2.201216  0.244643  3.446813
      ESP Fit Center  412 is at  -2.565679 -0.386624  3.446813
      ESP Fit Center  413 is at  -2.201216 -1.017891  3.446813
      ESP Fit Center  414 is at  -1.472292 -1.017891  3.446813
      ESP Fit Center  415 is at  -0.523277 -0.386624  2.980648
      ESP Fit Center  416 is at  -0.774129  0.385419  2.980648
      ESP Fit Center  417 is at  -1.430867  0.862567  2.980648
      ESP Fit Center  418 is at  -2.242641  0.862567  2.980648
      ESP Fit Center  419 is at  -2.899379  0.385419  2.980648
      ESP Fit Center  420 is at  -3.150231 -0.386624  2.980648
      ESP Fit Center  421 is at  -2.899379 -1.158666  2.980648
      ESP Fit Center  422 is at  -2.242641 -1.635815  2.980648
      ESP Fit Center  423 is at  -1.430867 -1.635815  2.980648
      ESP Fit Center  424 is at  -0.774129 -1.158666  2.980648
      ESP Fit Center  425 is at  -0.198875 -0.386624  2.307020
      ESP Fit Center  426 is at  -3.427039 -0.778594  2.307020
      ESP Fit Center  427 is at  -3.062724 -1.472738  2.307020
      ESP Fit Center  428 is at  -2.417554 -1.918067  2.307020
      ESP Fit Center  429 is at  -1.639329 -2.012561  2.307020
      ESP Fit Center  430 is at  -0.906333 -1.734572  2.307020
      ESP Fit Center  431 is at  -0.386484 -1.147784  2.307020
      ESP Fit Center  432 is at  -1.334711  1.138993  2.854021
      ESP Fit Center  433 is at  -0.605786  1.138993  2.687649
      ESP Fit Center  434 is at  -0.970249  1.770260  2.687649
      ESP Fit Center  435 is at  -1.699173  1.770260  2.687649
      ESP Fit Center  436 is at  -1.740598  2.388184  2.221484
      ESP Fit Center  437 is at  -2.397336  1.911036  2.221484
      ESP Fit Center  438 is at  -2.560681  2.225108  1.547856
      ESP Fit Center  439 is at  -2.958183  2.606276 -0.099189
      ESP Fit Center  440 is at  -3.736408  2.511783 -0.099189
      ESP Fit Center  441 is at  -4.381578  2.066454 -0.099189
      ESP Fit Center  442 is at  -2.958183  2.606276 -0.846859
      ESP Fit Center  443 is at  -3.736408  2.511783 -0.846859
      ESP Fit Center  444 is at  -4.381578  2.066454 -0.846859
      ESP Fit Center  445 is at  -4.745893  1.372309 -0.846859
      ESP Fit Center  446 is at  -2.749721  2.229530 -1.520487
      ESP Fit Center  447 is at  -3.561495  2.229530 -1.520487
      ESP Fit Center  448 is at  -4.218233  1.752382 -1.520487
      ESP Fit Center  449 is at  -4.469085  0.980339 -1.520487
      ESP Fit Center  450 is at  -4.218233  0.208297 -1.520487
      ESP Fit Center  451 is at  -2.426683  0.980339 -1.986652
      ESP Fit Center  452 is at  -2.791146  1.611607 -1.986652
      ESP Fit Center  453 is at  -3.520070  1.611607 -1.986652
      ESP Fit Center  454 is at  -3.884533  0.980339 -1.986652
      ESP Fit Center  455 is at  -3.155608  0.980339 -2.153024
      ESP Fit Center  456 is at  -3.835872  0.837220  2.852936
      ESP Fit Center  457 is at  -3.106947  0.837220  2.686564
      ESP Fit Center  458 is at  -3.471410  1.468488  2.686564
      ESP Fit Center  459 is at  -4.200334  1.468488  2.686564
      ESP Fit Center  460 is at  -4.564797  0.837220  2.686564
      ESP Fit Center  461 is at  -4.200334  0.205953  2.686564
      ESP Fit Center  462 is at  -3.471410  0.205953  2.686564
      ESP Fit Center  463 is at  -2.773247  1.609263  2.220399
      ESP Fit Center  464 is at  -3.429985  2.086411  2.220399
      ESP Fit Center  465 is at  -4.241759  2.086411  2.220399
      ESP Fit Center  466 is at  -4.898497  1.609263  2.220399
      ESP Fit Center  467 is at  -5.149349  0.837220  2.220399
      ESP Fit Center  468 is at  -4.898497  0.065178  2.220399
      ESP Fit Center  469 is at  -4.241759 -0.411970  2.220399
      ESP Fit Center  470 is at  -2.905451  2.185168  1.546771
      ESP Fit Center  471 is at  -3.638447  2.463157  1.546771
      ESP Fit Center  472 is at  -4.416672  2.368664  1.546771
      ESP Fit Center  473 is at  -5.061842  1.923335  1.546771
      ESP Fit Center  474 is at  -5.426157  1.229190  1.546771
      ESP Fit Center  475 is at  -5.426157  0.445250  1.546771
      ESP Fit Center  476 is at  -5.061842 -0.248894  1.546771
      ESP Fit Center  477 is at  -3.638447  2.463157  0.799101
      ESP Fit Center  478 is at  -4.416672  2.368664  0.799101
      ESP Fit Center  479 is at  -5.061842  1.923335  0.799101
      ESP Fit Center  480 is at  -5.426157  1.229190  0.799101
      ESP Fit Center  481 is at  -5.426157  0.445250  0.799101
      ESP Fit Center  482 is at  -4.898497  1.609263  0.125473
      ESP Fit Center  483 is at  -1.532131 -0.323398 -2.138066
      ESP Fit Center  484 is at  -2.051980  0.263389 -2.138066
      ESP Fit Center  485 is at  -2.784976  0.541378 -2.138066
      ESP Fit Center  486 is at  -3.563201  0.446885 -2.138066
      ESP Fit Center  487 is at  -4.208371  0.001556 -2.138066
      ESP Fit Center  488 is at  -4.572686 -0.692589 -2.138066
      ESP Fit Center  489 is at  -1.668924 -1.084559 -2.811694
      ESP Fit Center  490 is at  -1.919776 -0.312516 -2.811694
      ESP Fit Center  491 is at  -2.576514  0.164632 -2.811694
      ESP Fit Center  492 is at  -3.388288  0.164632 -2.811694
      ESP Fit Center  493 is at  -4.045026 -0.312516 -2.811694
      ESP Fit Center  494 is at  -4.295878 -1.084559 -2.811694
      ESP Fit Center  495 is at  -4.045026 -1.856601 -2.811694
      ESP Fit Center  496 is at  -3.388288 -2.333750 -2.811694
      ESP Fit Center  497 is at  -2.576514 -2.333750 -2.811694
      ESP Fit Center  498 is at  -1.919776 -1.856601 -2.811694
      ESP Fit Center  499 is at  -2.253476 -1.084559 -3.277859
      ESP Fit Center  500 is at  -2.617939 -0.453291 -3.277859
      ESP Fit Center  501 is at  -3.346863 -0.453291 -3.277859
      ESP Fit Center  502 is at  -3.711326 -1.084559 -3.277859
      ESP Fit Center  503 is at  -3.346863 -1.715826 -3.277859
      ESP Fit Center  504 is at  -2.617939 -1.715826 -3.277859
      ESP Fit Center  505 is at  -2.982401 -1.084559 -3.444231
      ESP Fit Center  506 is at  -3.911391 -3.209688  0.546185
      ESP Fit Center  507 is at  -4.860406 -2.578421  0.080020
      ESP Fit Center  508 is at  -4.609554 -3.350463  0.080020
      ESP Fit Center  509 is at  -3.952816 -3.827611  0.080020
      ESP Fit Center  510 is at  -3.141042 -3.827611  0.080020
      ESP Fit Center  511 is at  -5.137214 -2.186451 -0.593608
      ESP Fit Center  512 is at  -5.137214 -2.970391 -0.593608
      ESP Fit Center  513 is at  -4.772899 -3.664535 -0.593608
      ESP Fit Center  514 is at  -4.127729 -4.109864 -0.593608
      ESP Fit Center  515 is at  -3.349505 -4.204358 -0.593608
      ESP Fit Center  516 is at  -2.616508 -3.926369 -0.593608
      ESP Fit Center  517 is at  -5.137214 -2.186451 -1.341278
      ESP Fit Center  518 is at  -5.137214 -2.970391 -1.341278
      ESP Fit Center  519 is at  -4.772899 -3.664535 -1.341278
      ESP Fit Center  520 is at  -4.127729 -4.109864 -1.341278
      ESP Fit Center  521 is at  -3.349505 -4.204358 -1.341278
      ESP Fit Center  522 is at  -2.616508 -3.926369 -1.341278
      ESP Fit Center  523 is at  -4.860406 -2.578421 -2.014906
      ESP Fit Center  524 is at  -4.609554 -3.350463 -2.014906
      ESP Fit Center  525 is at  -3.952816 -3.827611 -2.014906
      ESP Fit Center  526 is at  -3.141042 -3.827611 -2.014906
      ESP Fit Center  527 is at  -2.484304 -3.350463 -2.014906
      ESP Fit Center  528 is at  -4.275854 -2.578421 -2.481071
      ESP Fit Center  529 is at  -3.911391 -3.209688 -2.481071
      ESP Fit Center  530 is at  -3.182467 -3.209688 -2.481071
      ESP Fit Center  531 is at  -3.546929 -2.578421 -2.647443
      ESP Fit Center  532 is at  -0.820258 -4.020715 -0.686982
      ESP Fit Center  533 is at  -0.087261 -3.742726 -0.686982
      ESP Fit Center  534 is at  -1.598482 -3.926221 -1.434652
      ESP Fit Center  535 is at  -0.820258 -4.020715 -1.434652
      ESP Fit Center  536 is at  -0.087261 -3.742726 -1.434652
      ESP Fit Center  537 is at   0.432588 -3.155938 -1.434652
      ESP Fit Center  538 is at   0.295795 -2.394778 -2.108280
      ESP Fit Center  539 is at   0.044943 -1.622735 -2.108280
      ESP Fit Center  540 is at  -0.611795 -1.145587 -2.108280
      ESP Fit Center  541 is at  -2.080307 -3.166820 -2.108280
      ESP Fit Center  542 is at  -1.423569 -3.643969 -2.108280
      ESP Fit Center  543 is at  -0.611795 -3.643969 -2.108280
      ESP Fit Center  544 is at   0.044943 -3.166820 -2.108280
      ESP Fit Center  545 is at  -0.288757 -2.394778 -2.574445
      ESP Fit Center  546 is at  -0.653220 -1.763511 -2.574445
      ESP Fit Center  547 is at  -1.382144 -1.763511 -2.574445
      ESP Fit Center  548 is at  -1.746607 -2.394778 -2.574445
      ESP Fit Center  549 is at  -1.382144 -3.026045 -2.574445
      ESP Fit Center  550 is at  -0.653220 -3.026045 -2.574445
      ESP Fit Center  551 is at  -1.017682 -2.394778 -2.740817
      ESP Fit Center  552 is at  -1.640589 -2.533795  2.270268
      ESP Fit Center  553 is at  -0.911664 -2.533795  2.103896
      ESP Fit Center  554 is at  -2.369514 -2.533795  2.103896
      ESP Fit Center  555 is at  -2.005051 -3.165062  2.103896
      ESP Fit Center  556 is at  -1.276127 -3.165062  2.103896
      ESP Fit Center  557 is at  -0.327112 -2.533795  1.637731
      ESP Fit Center  558 is at  -2.954066 -2.533795  1.637731
      ESP Fit Center  559 is at  -2.703214 -3.305837  1.637731
      ESP Fit Center  560 is at  -2.046476 -3.782986  1.637731
      ESP Fit Center  561 is at  -1.234702 -3.782986  1.637731
      ESP Fit Center  562 is at  -0.577964 -3.305837  1.637731
      ESP Fit Center  563 is at  -3.230874 -2.925765  0.964103
      ESP Fit Center  564 is at  -2.866559 -3.619909  0.964103
      ESP Fit Center  565 is at  -2.221389 -4.065238  0.964103
      ESP Fit Center  566 is at  -1.443165 -4.159732  0.964103
      ESP Fit Center  567 is at  -0.710168 -3.881743  0.964103
      ESP Fit Center  568 is at  -0.190319 -3.294955  0.964103
      ESP Fit Center  569 is at  -2.866559 -3.619909  0.216433
      ESP Fit Center  570 is at  -2.221389 -4.065238  0.216433
      ESP Fit Center  571 is at  -1.443165 -4.159732  0.216433
      ESP Fit Center  572 is at  -0.710168 -3.881743  0.216433
      ESP Fit Center  573 is at   2.543675  0.538049  2.479506
      ESP Fit Center  574 is at   3.275529  0.538049  2.363592
      ESP Fit Center  575 is at   2.909602  1.171853  2.363592
      ESP Fit Center  576 is at   2.177748 -0.095755  2.363592
      ESP Fit Center  577 is at   3.714758  1.290658  2.027196
      ESP Fit Center  578 is at   3.935743  0.538049 -1.804840
      ESP Fit Center  579 is at   3.714758  1.290658 -1.804840
      ESP Fit Center  580 is at   3.275529  0.538049 -2.141236
      ESP Fit Center  581 is at   0.404379 -0.547934  2.424776
      ESP Fit Center  582 is at   1.136233 -0.547934  2.308862
[...]
 2775 Fit      -0.007904
 2776 Fit      -0.006920
 2777 Fit      -0.006883
 2778 Fit      -0.007526
 2779 Fit      -0.008611
 2780 Fit      -0.011531
 2781 Fit      -0.012428
 2782 Fit      -0.011458
 2783 Fit      -0.010516
 2784 Fit      -0.009771
 2785 Fit      -0.010159
 2786 Fit      -0.011460
 2787 Fit       0.007649
 2788 Fit       0.007572
 2789 Fit       0.008975
 2790 Fit      -0.006784
 2791 Fit       0.004380
 2792 Fit      -0.006625
 2793 Fit       0.002819
 2794 Fit       0.001106
 2795 Fit      -0.001490
 2796 Fit      -0.005337
 2797 Fit      -0.010929
 2798 Fit      -0.001630
 2799 Fit      -0.005334
 2800 Fit      -0.003831
 2801 Fit      -0.008527
 2802 Fit      -0.005265
 2803 Fit      -0.007595
 2804 Fit      -0.009858
 2805 Fit      -0.012178
 2806 Fit      -0.011362
 2807 Fit      -0.008060
 2808 Fit      -0.010728
 2809 Fit      -0.014177
 2810 Fit      -0.015126
 2811 Fit      -0.013949
 2812 Fit      -0.011105
 2813 Fit      -0.007025
 2814 Fit      -0.013444
 2815 Fit      -0.016185
 2816 Fit      -0.016859
 2817 Fit      -0.015726
 2818 Fit      -0.013135
 2819 Fit      -0.009474
 2820 Fit      -0.013714
 2821 Fit      -0.016652
 2822 Fit      -0.017724
 2823 Fit      -0.017060
 2824 Fit      -0.014871
 2825 Fit      -0.011464
 2826 Fit      -0.013337
 2827 Fit      -0.016452
 2828 Fit      -0.017770
 2829 Fit      -0.017297
 2830 Fit      -0.015137
 2831 Fit      -0.011475
 2832 Fit      -0.014038
 2833 Fit      -0.016462
 2834 Fit      -0.017112
 2835 Fit      -0.015929
 2836 Fit      -0.012941
 2837 Fit      -0.011978
 2838 Fit      -0.014637
 2839 Fit      -0.015596
 2840 Fit      -0.014674
 2841 Fit      -0.011801
 2842 Fit      -0.011514
 2843 Fit      -0.013058
 2844 Fit      -0.012543
 2845 Fit      -0.008235
 2846 Fit      -0.009707
 2847 Fit      -0.004265
 2848 Fit      -0.009717
 2849 Fit      -0.008823
 2850 Fit      -0.007801
 2851 Fit      -0.005184
 2852 Fit      -0.003869
 2853 Fit      -0.003562
 2854 Fit      -0.001734
 2855 Fit       0.009539
 2856 Fit       0.000822
 2857 Fit       0.002895
 2858 Fit       0.007857
 2859 Fit       0.008374
 2860 Fit       0.003585
 2861 Fit       0.005267
 2862 Fit       0.006544
 2863 Fit       0.007050
 2864 Fit       0.006535
 2865 Fit       0.007576
 2866 Fit       0.006610
 2867 Fit       0.005408
 2868 Fit       0.003941
 2869 Fit       0.007825
 2870 Fit       0.009482
 2871 Fit       0.000537
 2872 Fit      -0.000165
 2873 Fit      -0.000298
 2874 Fit       0.000394
 2875 Fit       0.001476
 2876 Fit       0.001615
 2877 Fit       0.000640
 2878 Fit      -0.000628
 2879 Fit      -0.000888
 2880 Fit      -0.000913
 2881 Fit      -0.000549
 2882 Fit       0.000254
 2883 Fit       0.001425
 2884 Fit       0.002646
 2885 Fit       0.003295
 2886 Fit       0.002957
 2887 Fit       0.001855
 2888 Fit       0.000641
 2889 Fit      -0.000186
 2890 Fit      -0.000848
 2891 Fit      -0.001063
 2892 Fit      -0.001283
 2893 Fit      -0.001340
 2894 Fit      -0.001133
 2895 Fit      -0.000638
 2896 Fit       0.000149
 2897 Fit       0.001245
 2898 Fit       0.002620
 2899 Fit       0.004049
 2900 Fit       0.005060
 2901 Fit       0.005276
 2902 Fit       0.004624
 2903 Fit       0.003284
 2904 Fit       0.001758
 2905 Fit       0.000465
 2906 Fit      -0.000357
 2907 Fit      -0.000693
 2908 Fit      -0.000820
 2909 Fit      -0.000952
 2910 Fit      -0.001251
 2911 Fit      -0.001516
 2912 Fit      -0.001612
 2913 Fit      -0.001492
 2914 Fit      -0.001160
 2915 Fit      -0.000633
 2916 Fit       0.000097
 2917 Fit       0.001072
 2918 Fit       0.002354
 2919 Fit       0.003955
 2920 Fit       0.005696
 2921 Fit       0.007113
 2922 Fit       0.003073
 2923 Fit       0.001392
 2924 Fit       0.000027
 2925 Fit      -0.000912
 2926 Fit      -0.001167
 2927 Fit      -0.000965
 2928 Fit      -0.000530
 2929 Fit      -0.000576
 2930 Fit      -0.000954
 2931 Fit      -0.001380
 2932 Fit      -0.001675
 2933 Fit      -0.001768
 2934 Fit      -0.001656
 2935 Fit      -0.001368
 2936 Fit      -0.000934
 2937 Fit      -0.000366
 2938 Fit       0.000362
 2939 Fit       0.001313
 2940 Fit       0.002589
 2941 Fit       0.004298
 2942 Fit       0.006461
 2943 Fit       0.008768
 2944 Fit       0.002629
 2945 Fit       0.001012
 2946 Fit      -0.000467
 2947 Fit      -0.002054
 2948 Fit      -0.002688
 2949 Fit      -0.002050
 2950 Fit      -0.001065
 2951 Fit       0.000056
 2952 Fit       0.000069
 2953 Fit      -0.000443
 2954 Fit      -0.001054
 2955 Fit      -0.001535
 2956 Fit      -0.001797
 2957 Fit      -0.001834
 2958 Fit      -0.001679
 2959 Fit      -0.001376
 2960 Fit      -0.000964
 2961 Fit      -0.000462
 2962 Fit       0.000143
 2963 Fit       0.000902
 2964 Fit       0.001911
 2965 Fit       0.003319
 2966 Fit       0.005337
 2967 Fit       0.008208
 2968 Fit      -0.001020
 2969 Fit       0.000967
 2970 Fit       0.000957
 2971 Fit       0.000250
 2972 Fit      -0.000574
 2973 Fit      -0.001249
 2974 Fit      -0.001682
 2975 Fit      -0.001865
 2976 Fit      -0.001833
 2977 Fit      -0.001634
 2978 Fit      -0.001318
 2979 Fit      -0.000926
 2980 Fit      -0.000480
 2981 Fit       0.000022
 2982 Fit       0.000611
 2983 Fit       0.001357
 2984 Fit       0.002375
 2985 Fit       0.003851
 2986 Fit       0.006112
 2987 Fit       0.001917
 2988 Fit       0.000940
 2989 Fit      -0.000115
 2990 Fit      -0.000969
 2991 Fit      -0.001541
 2992 Fit      -0.001835
 2993 Fit      -0.001890
 2994 Fit      -0.001758
 2995 Fit      -0.001493
 2996 Fit      -0.001146
 2997 Fit      -0.000754
 2998 Fit      -0.000339
 2999 Fit       0.000100
 3000 Fit       0.000590
 3001 Fit       0.001188
 3002 Fit       0.001987
 3003 Fit       0.003134
 3004 Fit       0.004886
 3005 Fit       0.002552
 3006 Fit       0.001308
 3007 Fit       0.000068
 3008 Fit      -0.000899
 3009 Fit      -0.001536
 3010 Fit      -0.001865
 3011 Fit      -0.001933
 3012 Fit      -0.001802
 3013 Fit      -0.001532
 3014 Fit      -0.001180
 3015 Fit      -0.000792
 3016 Fit      -0.000398
 3017 Fit      -0.000007
 3018 Fit       0.000395
 3019 Fit       0.000847
 3020 Fit       0.001419
 3021 Fit       0.002215
 3022 Fit       0.003383
 3023 Fit       0.005163
 3024 Fit       0.002473
 3025 Fit       0.001226
 3026 Fit      -0.000015
 3027 Fit      -0.000983
 3028 Fit      -0.001621
 3029 Fit      -0.001951
 3030 Fit      -0.002021
 3031 Fit      -0.001891
 3032 Fit      -0.001622
 3033 Fit      -0.001273
 3034 Fit      -0.000891
 3035 Fit      -0.000514
 3036 Fit      -0.000158
 3037 Fit       0.000179
 3038 Fit       0.000521
 3039 Fit       0.000917
 3040 Fit       0.001436
 3041 Fit       0.002166
 3042 Fit       0.003200
 3043 Fit       0.001550
 3044 Fit       0.000577
 3045 Fit      -0.000476
 3046 Fit      -0.001317
 3047 Fit      -0.001869
 3048 Fit      -0.002137
 3049 Fit      -0.002164
 3050 Fit      -0.002004
 3051 Fit      -0.001716
 3052 Fit      -0.001359
 3053 Fit      -0.000981
 3054 Fit      -0.000620
 3055 Fit      -0.000295
 3056 Fit      -0.000007
 3057 Fit       0.000265
 3058 Fit       0.000560
 3059 Fit       0.000936
 3060 Fit       0.001460
 3061 Fit       0.002189
 3062 Fit      -0.000169
 3063 Fit       0.000127
 3064 Fit      -0.000456
 3065 Fit      -0.001213
 3066 Fit      -0.001843
 3067 Fit      -0.002243
 3068 Fit      -0.002403
 3069 Fit      -0.002351
 3070 Fit      -0.002138
 3071 Fit      -0.001820
 3072 Fit      -0.001455
 3073 Fit      -0.001088
 3074 Fit      -0.000755
 3075 Fit      -0.000473
 3076 Fit      -0.000237
 3077 Fit      -0.000025
 3078 Fit       0.000204
 3079 Fit       0.000508
 3080 Fit       0.000950
 3081 Fit       0.001592
 3082 Fit      -0.001833
 3083 Fit      -0.001338
 3084 Fit      -0.001570
 3085 Fit      -0.002019
 3086 Fit      -0.002418
 3087 Fit      -0.002657
 3088 Fit      -0.002708
 3089 Fit      -0.002588
 3090 Fit      -0.002340
 3091 Fit      -0.002015
 3092 Fit      -0.001662
 3093 Fit      -0.001326
 3094 Fit      -0.001034
 3095 Fit      -0.000801
 3096 Fit      -0.000618
 3097 Fit      -0.000461
 3098 Fit      -0.000288
 3099 Fit      -0.000043
 3100 Fit       0.000337
 3101 Fit       0.000926
 3102 Fit      -0.003851
 3103 Fit      -0.003097
 3104 Fit      -0.002581
 3105 Fit      -0.002610
 3106 Fit      -0.002828
 3107 Fit      -0.003020
 3108 Fit      -0.003085
 3109 Fit      -0.003000
 3110 Fit      -0.002785
 3111 Fit      -0.002483
 3112 Fit      -0.002145
 3113 Fit      -0.001818
 3114 Fit      -0.001538
 3115 Fit      -0.001321
 3116 Fit      -0.001164
 3117 Fit      -0.001042
 3118 Fit      -0.000913
 3119 Fit      -0.000722
 3120 Fit      -0.000407
 3121 Fit       0.000086
 3122 Fit      -0.007331
 3123 Fit      -0.004595
 3124 Fit      -0.003983
 3125 Fit      -0.003527
 3126 Fit      -0.003446
 3127 Fit      -0.003497
 3128 Fit      -0.003516
 3129 Fit      -0.003428
 3130 Fit      -0.003224
 3131 Fit      -0.002935
 3132 Fit      -0.002612
 3133 Fit      -0.002304
 3134 Fit      -0.002050
 3135 Fit      -0.001866
 3136 Fit      -0.001743
 3137 Fit      -0.001649
 3138 Fit      -0.001536
 3139 Fit      -0.001348
 3140 Fit      -0.001034
 3141 Fit      -0.000566
 3142 Fit       0.000154
 3143 Fit      -0.001049
 3144 Fit      -0.004067
 3145 Fit      -0.006326
 3146 Fit      -0.007670
 3147 Fit      -0.008731
 3148 Fit      -0.009168
 3149 Fit      -0.008355
 3150 Fit      -0.006674
 3151 Fit      -0.005040
 3152 Fit      -0.004581
 3153 Fit      -0.004206
 3154 Fit      -0.004061
 3155 Fit      -0.003990
 3156 Fit      -0.003879
 3157 Fit      -0.003684
 3158 Fit      -0.003416
 3159 Fit      -0.003117
 3160 Fit      -0.002837
 3161 Fit      -0.002614
 3162 Fit      -0.002463
 3163 Fit      -0.002368
 3164 Fit      -0.002292
 3165 Fit      -0.002184
 3166 Fit      -0.001996
 3167 Fit      -0.001686
 3168 Fit      -0.001193
 3169 Fit      -0.000490
 3170 Fit       0.000045
 3171 Fit      -0.000194
 3172 Fit      -0.001103
 3173 Fit      -0.002481
 3174 Fit      -0.004148
 3175 Fit      -0.005620
 3176 Fit      -0.006632
 3177 Fit      -0.007128
 3178 Fit      -0.006965
 3179 Fit      -0.006211
 3180 Fit      -0.005286
 3181 Fit      -0.004958
 3182 Fit      -0.004651
 3183 Fit      -0.004468
 3184 Fit      -0.004305
 3185 Fit      -0.004096
 3186 Fit      -0.003833
 3187 Fit      -0.003556
 3188 Fit      -0.003313
 3189 Fit      -0.003138
 3190 Fit      -0.003032
 3191 Fit      -0.002962
 3192 Fit      -0.002879
 3193 Fit      -0.002736
 3194 Fit      -0.002511
 3195 Fit      -0.002246
 3196 Fit      -0.002150
 3197 Fit      -0.002463
 3198 Fit      -0.003197
 3199 Fit      -0.004207
 3200 Fit      -0.005209
 3201 Fit      -0.005910
 3202 Fit      -0.006149
 3203 Fit      -0.005920
 3204 Fit      -0.005428
 3205 Fit      -0.005158
 3206 Fit      -0.004893
 3207 Fit      -0.004671
 3208 Fit      -0.004431
 3209 Fit      -0.004161
 3210 Fit      -0.003907
 3211 Fit      -0.003721
 3212 Fit      -0.003612
 3213 Fit      -0.003545
 3214 Fit      -0.003470
 3215 Fit      -0.003384
 3216 Fit      -0.003388
 3217 Fit      -0.003653
 3218 Fit      -0.004225
 3219 Fit      -0.004933
 3220 Fit      -0.005475
 3221 Fit      -0.005641
 3222 Fit      -0.005463
 3223 Fit      -0.005203
 3224 Fit      -0.004962
 3225 Fit      -0.004697
 3226 Fit      -0.004426
 3227 Fit      -0.004218
 3228 Fit      -0.004108
 3229 Fit      -0.004070
 3230 Fit      -0.004113
 3231 Fit      -0.004355
 3232 Fit      -0.004820
 3233 Fit      -0.005247
 3234 Fit      -0.005361
 3235 Fit      -0.005110
 3236 Fit      -0.004860
 3237 Fit      -0.004607
 3238 Fit      -0.004541
 3239 Fit      -0.004738
 3240 Fit      -0.005083
 3241 Fit      -0.004888
 3242 Fit       0.001126
 3243 Fit      -0.003977
 3244 Fit       0.000624
 3245 Fit      -0.004665
 3246 Fit       0.000356
 3247 Fit       0.002892
 3248 Fit      -0.005056
 3249 Fit      -0.000002
 3250 Fit      -0.005138
 3251 Fit      -0.000455
 3252 Fit       0.008536
 3253 Fit       0.009643
 3254 Fit       0.003647
 3255 Fit       0.013065
 3256 Fit       0.010255
 3257 Fit       0.004581
 3258 Fit       0.015613
 3259 Fit       0.013642
 3260 Fit       0.010211
 3261 Fit       0.004889
 3262 Fit       0.016855
 3263 Fit       0.015478
 3264 Fit       0.013474
 3265 Fit       0.009389
 3266 Fit       0.003865
 3267 Fit       0.015975
 3268 Fit       0.014673
 3269 Fit       0.012696
 3270 Fit       0.007685
 3271 Fit       0.002142
 3272 Fit       0.013842
 3273 Fit       0.012767
 3274 Fit       0.010928
 3275 Fit       0.004994
 3276 Fit      -0.000369
 3277 Fit       0.009589
 3278 Fit       0.008045
 3279 Fit       0.001186
 3280 Fit       0.004053
 3281 Fit       0.007180
 3282 Fit       0.012175
 3283 Fit       0.014748
 3284 Fit       0.007445
 3285 Fit       0.012600
 3286 Fit       0.015449
 3287 Fit       0.016869
 3288 Fit       0.017578
 3289 Fit       0.010899
 3290 Fit       0.014519
 3291 Fit       0.016519
 3292 Fit       0.017543
 3293 Fit       0.018117
 3294 Fit       0.006929
 3295 Fit       0.012217
 3296 Fit       0.015059
 3297 Fit       0.016525
 3298 Fit       0.017174
 3299 Fit       0.017522
 3300 Fit       0.006158
 3301 Fit       0.011153
 3302 Fit       0.013767
 3303 Fit       0.015013
 3304 Fit       0.015393
 3305 Fit       0.015357
 3306 Fit       0.007745
 3307 Fit       0.010690
 3308 Fit       0.012056
 3309 Fit       0.012317
 3310 Fit       0.006008
 3311 Fit       0.007798
 3312 Fit       0.005358
 3313 Fit       0.005273
 3314 Fit       0.005684
 3315 Fit       0.005896
 3316 Fit       0.005048
 3317 Fit       0.004665
 3318 Fit       0.005033
 3319 Fit       0.004902
 3320 Fit       0.006832
 3321 Fit       0.006768
 3322 Fit       0.005213
 3323 Fit       0.003431
 3324 Fit       0.003215
 3325 Fit       0.004096
 3326 Fit       0.004668
 3327 Fit       0.004790
 3328 Fit       0.002560
 3329 Fit       0.000207
 3330 Fit       0.000473
 3331 Fit       0.002283
 3332 Fit       0.003802
 3333 Fit       0.004195
 3334 Fit       0.004007
 3335 Fit       0.004119
 3336 Fit      -0.005648
 3337 Fit      -0.002328
 3338 Fit       0.001511
 3339 Fit       0.002456
 3340 Fit       0.002489
 3341 Fit       0.001239
 3342 Fit       0.001412
 3343 Fit       0.000035
 3344 Fit      -0.002482
 3345 Fit       0.000591
 3346 Fit      -0.001021
 3347 Fit      -0.003582
 3348 Fit       0.000597
 3349 Fit      -0.000298
 3350 Fit       0.006195
 3351 Fit       0.007965
 3352 Fit       0.006286
 3353 Fit       0.004190
 3354 Fit       0.003363
 3355 Fit       0.008780
 3356 Fit       0.007305
 3357 Fit       0.005690
 3358 Fit       0.003555
 3359 Fit       0.000969
 3360 Fit      -0.000997
 3361 Fit       0.007709
 3362 Fit       0.006497
 3363 Fit       0.005018
 3364 Fit       0.003000
 3365 Fit       0.000268
 3366 Fit      -0.003153
 3367 Fit      -0.006681
 3368 Fit       0.007406
 3369 Fit       0.006358
 3370 Fit       0.005126
 3371 Fit       0.003479
 3372 Fit       0.001192
 3373 Fit      -0.001977
 3374 Fit      -0.006287
 3375 Fit       0.006060
 3376 Fit       0.004853
 3377 Fit       0.003255
 3378 Fit       0.000992
 3379 Fit      -0.002295
 3380 Fit      -0.007153
 3381 Fit       0.005310
 3382 Fit       0.003959
 3383 Fit       0.002156
 3384 Fit      -0.000448
 3385 Fit      -0.004396
 3386 Fit      -0.000182
 3387 Fit      -0.002206
 3388 Fit      -0.003504
 3389 Fit       0.001652
 3390 Fit       0.000657
 3391 Fit       0.001038
 3392 Fit       0.000361
 3393 Fit      -0.000333
 3394 Fit      -0.000099
 3395 Fit       0.002665
 3396 Fit       0.001024
 3397 Fit       0.000947
 3398 Fit       0.001518
 3399 Fit       0.001557
 3400 Fit       0.001508
 3401 Fit       0.002302
 3402 Fit       0.003937
 3403 Fit       0.005493
 3404 Fit       0.005973
 3405 Fit       0.004850
 3406 Fit       0.003243
 3407 Fit       0.002355
 3408 Fit       0.002422
 3409 Fit       0.002850
 3410 Fit       0.003962
 3411 Fit       0.004395
 3412 Fit       0.003317
 3413 Fit      -0.003926
 3414 Fit       0.000423
 3415 Fit       0.003606
 3416 Fit      -0.008581
 3417 Fit      -0.003164
 3418 Fit       0.000559
 3419 Fit       0.003281
 3420 Fit       0.005417
 3421 Fit      -0.008249
 3422 Fit      -0.003076
 3423 Fit       0.000579
 3424 Fit       0.003266
 3425 Fit       0.005318
 3426 Fit       0.006977
 3427 Fit       0.008420
 3428 Fit      -0.004632
 3429 Fit      -0.000768
 3430 Fit       0.002167
 3431 Fit       0.004414
 3432 Fit       0.006165
 3433 Fit       0.007601
 3434 Fit       0.008913
 3435 Fit      -0.003238
 3436 Fit      -0.000157
 3437 Fit       0.002425
 3438 Fit       0.004505
 3439 Fit       0.006159
 3440 Fit       0.007512
 3441 Fit       0.008750
 3442 Fit      -0.000280
 3443 Fit       0.002067
 3444 Fit       0.004210
 3445 Fit       0.005975
 3446 Fit       0.007411
 3447 Fit       0.008738
 3448 Fit       0.002984
 3449 Fit       0.004941
 3450 Fit       0.006667
 3451 Fit       0.008155
 3452 Fit       0.004061
 3453 Fit       0.006085
 3454 Fit       0.004123
 3455 Fit       0.008626
 3456 Fit       0.006618
 3457 Fit       0.004405
 3458 Fit       0.001027
 3459 Fit       0.008539
 3460 Fit       0.006411
 3461 Fit       0.003800
 3462 Fit       0.000000
 3463 Fit      -0.001720
 3464 Fit      -0.001561
 3465 Fit       0.008643
 3466 Fit       0.006607
 3467 Fit       0.003918
 3468 Fit       0.000577
 3469 Fit       0.001863
 3470 Fit       0.002265
 3471 Fit       0.006530
 3472 Fit       0.004083
 3473 Fit       0.004655
 3474 Fit       0.003381
 3475 Fit       0.002867
 3476 Fit       0.003175
 3477 Fit      -0.000892
 3478 Fit       0.001765
 3479 Fit       0.003188
 3480 Fit       0.003008
 3481 Fit       0.001297
 3482 Fit      -0.003379
 3483 Fit       0.000907
 3484 Fit       0.003089
 3485 Fit       0.003828
 3486 Fit       0.003382
 3487 Fit       0.001292
 3488 Fit      -0.000702
 3489 Fit       0.002607
 3490 Fit       0.004072
 3491 Fit       0.004497
 3492 Fit       0.004156
 3493 Fit       0.002741
 3494 Fit       0.002652
 3495 Fit       0.004629
 3496 Fit       0.005236
 3497 Fit       0.005120
 3498 Fit       0.004451
 3499 Fit       0.006563
 3500 Fit       0.005814
 -----------------------------------------------------------------
 Leave Link  602 at Thu Jan 16 22:40:07 2014, MaxMem=   235929600 cpu:         1.5

 Test job not archived.
 1\1\GINC-G59\SP\RHF\Gen\C8H11Br1N4O1\KOLAR\16-Jan-2014\0\\# hf/gen pop
 =mk iop(6/33=2,6/41=5,6/42=2)\\na resp\\0,1\C,0,-2.543675,0.538049,-0.
 111178\C,0,-1.161368,0.651578,-0.049283\C,0,-0.404379,-0.547934,-0.056
 448\N,0,-1.05488,-1.720908,-0.04663\C,0,-2.396694,-1.71087,-0.060074\N
 ,0,-3.191859,-0.62787,-0.136429\N,0,-3.019832,-2.925504,0.024748\N,0,0
 .978972,-0.595844,-0.014762\C,0,1.786434,0.167326,-0.981174\C,0,3.1975
 73,0.349734,-0.429981\O,0,3.804672,-0.900028,-0.13381\C,0,3.027278,-1.
 628972,0.806485\C,0,1.6088,-1.884521,0.298484\Br,0,-0.424109,2.398838,
 0.197715\H,0,-3.15572,1.437554,-0.123668\H,0,-3.996163,-2.948833,-0.23
 0522\H,0,-2.462835,-3.741676,-0.179945\H,0,1.836754,-0.386624,-1.93318
 5\H,0,1.334711,1.138993,-1.174021\H,0,3.155608,0.980339,0.473024\H,0,3
 .835872,0.83722,-1.172936\H,0,2.982401,-1.084559,1.764231\H,0,3.546929
 ,-2.578421,0.967443\H,0,1.017682,-2.394778,1.060817\H,0,1.640589,-2.53
 3795,-0.590268\\Version=AM64L-G09RevD.01\State=1-A\HF=-3171.5875759\RM
 SD=6.953e-09\Dipole=-0.1691282,-0.5491232,-0.3304502\Quadrupole=-5.316
 5853,6.3099148,-0.9933295,4.7139631,2.5746229,-0.1334196\PG=C01 [X(C8H
 11Br1N4O1)]\\@


 HE WHO LOVES TO READ, AND KNOWS HOW TO REFLECT,
 HAS LAID BY A PERPETUAL FEAST FOR HIS OLD AGE.
 -- UNCLE ESEK, "SCRIBNER'S MONTHLY", SEPT. 1880
 Job cpu time:       0 days  0 hours  3 minutes 20.2 seconds.
 File lengths (MBytes):  RWF=     31 Int=      0 D2E=      0 Chk=      3 Scr=      1
 Normal termination of Gaussian 09 at Thu Jan 16 22:40:07 2014.
199.83user 0.42system 3:20.61elapsed 99%CPU (0avgtext+0avgdata 603456maxresident)k
8inputs+135016outputs (0major+171938minor)pagefaults 0swaps
