Linux g28 2.6.38.6-client #1 SMP Tue Jun 12 11:27:21 CEST 2012 x86_64 GNU/Linux
Fri Jan 17 11:54:31 CET 2014

 Entering Gaussian System, Link 0=/usr/local/programs/common/gaussian/gaussian09_d01/arch/amd64-pgi_10.4.0-acml/g09/g09
 Initial command:
 /usr/local/programs/common/gaussian/gaussian09_d01/arch/amd64-pgi_10.4.0-acml/g09/l1.exe "/scratch/kolar/g09_20262/Gau-2774.inp" -scrdir="/scratch/kolar/g09_20262/"
 Entering Link 1 = /usr/local/programs/common/gaussian/gaussian09_d01/arch/amd64-pgi_10.4.0-acml/g09/l1.exe PID=      2781.
  
 Copyright (c) 1988,1990,1992,1993,1995,1998,2003,2009,2013,
            Gaussian, Inc.  All Rights Reserved.
  
 This is part of the Gaussian(R) 09 program.  It is based on
 the Gaussian(R) 03 system (copyright 2003, Gaussian, Inc.),
 the Gaussian(R) 98 system (copyright 1998, Gaussian, Inc.),
 the Gaussian(R) 94 system (copyright 1995, Gaussian, Inc.),
 the Gaussian 92(TM) system (copyright 1992, Gaussian, Inc.),
 the Gaussian 90(TM) system (copyright 1990, Gaussian, Inc.),
 the Gaussian 88(TM) system (copyright 1988, Gaussian, Inc.),
 the Gaussian 86(TM) system (copyright 1986, Carnegie Mellon
 University), and the Gaussian 82(TM) system (copyright 1983,
 Carnegie Mellon University). Gaussian is a federally registered
 trademark of Gaussian, Inc.
  
 This software contains proprietary and confidential information,
 including trade secrets, belonging to Gaussian, Inc.
  
 This software is provided under written license and may be
 used, copied, transmitted, or stored only in accord with that
 written license.
  
 The following legend is applicable only to US Government
 contracts under FAR:
  
                    RESTRICTED RIGHTS LEGEND
  
 Use, reproduction and disclosure by the US Government is
 subject to restrictions as set forth in subparagraphs (a)
 and (c) of the Commercial Computer Software - Restricted
 Rights clause in FAR 52.227-19.
  
 Gaussian, Inc.
 340 Quinnipiac St., Bldg. 40, Wallingford CT 06492
  
  
 ---------------------------------------------------------------
 Warning -- This program may not be used in any manner that
 competes with the business of Gaussian, Inc. or will provide
 assistance to any competitor of Gaussian, Inc.  The licensee
 of this program is prohibited from giving any competitor of
 Gaussian, Inc. access to this program.  By using this program,
 the user acknowledges that Gaussian, Inc. is engaged in the
 business of creating and licensing software in the field of
 computational chemistry and represents and warrants to the
 licensee that it is not a competitor of Gaussian, Inc. and that
 it will not use this program in any manner prohibited above.
 ---------------------------------------------------------------
  

 Cite this work as:
 Gaussian 09, Revision D.01,
 M. J. Frisch, G. W. Trucks, H. B. Schlegel, G. E. Scuseria, 
 M. A. Robb, J. R. Cheeseman, G. Scalmani, V. Barone, B. Mennucci, 
 G. A. Petersson, H. Nakatsuji, M. Caricato, X. Li, H. P. Hratchian, 
 A. F. Izmaylov, J. Bloino, G. Zheng, J. L. Sonnenberg, M. Hada, 
 M. Ehara, K. Toyota, R. Fukuda, J. Hasegawa, M. Ishida, T. Nakajima, 
 Y. Honda, O. Kitao, H. Nakai, T. Vreven, J. A. Montgomery, Jr., 
 J. E. Peralta, F. Ogliaro, M. Bearpark, J. J. Heyd, E. Brothers, 
 K. N. Kudin, V. N. Staroverov, T. Keith, R. Kobayashi, J. Normand, 
 K. Raghavachari, A. Rendell, J. C. Burant, S. S. Iyengar, J. Tomasi, 
 M. Cossi, N. Rega, J. M. Millam, M. Klene, J. E. Knox, J. B. Cross, 
 V. Bakken, C. Adamo, J. Jaramillo, R. Gomperts, R. E. Stratmann, 
 O. Yazyev, A. J. Austin, R. Cammi, C. Pomelli, J. W. Ochterski, 
 R. L. Martin, K. Morokuma, V. G. Zakrzewski, G. A. Voth, 
 P. Salvador, J. J. Dannenberg, S. Dapprich, A. D. Daniels, 
 O. Farkas, J. B. Foresman, J. V. Ortiz, J. Cioslowski, 
 and D. J. Fox, Gaussian, Inc., Wallingford CT, 2013.
 
 ******************************************
 Gaussian 09:  AM64L-G09RevD.01 24-Apr-2013
                17-Jan-2014 
 ******************************************
 %mem=1800mb
 ------------------------------------------------------------------
 # hf/gen pseudo=read pop=(mk, readradii) iop(6/33=2,6/41=5,6/42=2)
 ------------------------------------------------------------------
 1/38=1/1;
 2/12=2,17=6,18=5,40=1/2;
 3/5=7,11=9,16=1,17=8,25=1,30=1/1,2,3;
 4//1;
 5/5=2,38=5/2;
 6/7=2,8=2,9=2,10=2,15=8,20=101,28=1,33=2,41=5,42=2/1,2;
 99/5=1,9=1/99;
 -------
 na resp
 -------
 Symbolic Z-matrix:
 Charge =  0 Multiplicity = 1
 6                     1.13288   2.87147   0.47276 
 6                    -0.16522   2.36413   0.54026 
 6                    -0.39841   0.99456   0.37967 
 6                     0.68707   0.13416   0.15781 
 6                     1.97486   0.656     0.08218 
 6                     2.21529   2.02158   0.23906 
 53                    3.62166  -0.67348  -0.26747 
 6                    -1.8137    0.46178   0.40184 
 1                    -2.48939   1.24917   0.74667 
 6                    -3.4241   -0.86237  -0.77367 
 1                    -3.53451  -1.43986  -1.69977 
 6                    -3.24425  -1.81425   0.43221 
 16                   -2.04618  -1.00089   1.56866 
 6                    -4.71336  -0.01396  -0.65485 
 8                    -4.59659   1.21093  -1.19601 
 1                     1.30699   3.9359    0.60254 
 1                    -1.00127   3.03528   0.7183 
 1                     0.51713  -0.93405   0.07545 
 1                     3.22361   2.41739   0.18666 
 1                    -4.20488  -1.97585   0.9248 
 1                    -2.83517  -2.77711   0.11649 
 7                    -2.2666    0.02803  -0.92258 
 1                    -1.50626  -0.4454   -1.40688 
 1                    -3.65614   1.28769  -1.48289 
 8                    -5.73709  -0.42583  -0.1677 
 
                          Input orientation:                          
 ---------------------------------------------------------------------
 Center     Atomic      Atomic             Coordinates (Angstroms)
 Number     Number       Type             X           Y           Z
 ---------------------------------------------------------------------
      1          6           0        1.132876    2.871471    0.472755
      2          6           0       -0.165218    2.364128    0.540261
      3          6           0       -0.398406    0.994558    0.379666
      4          6           0        0.687074    0.134164    0.157810
      5          6           0        1.974863    0.656004    0.082184
      6          6           0        2.215290    2.021581    0.239056
      7         53           0        3.621660   -0.673481   -0.267466
      8          6           0       -1.813696    0.461775    0.401843
      9          1           0       -2.489394    1.249167    0.746668
     10          6           0       -3.424098   -0.862373   -0.773669
     11          1           0       -3.534514   -1.439856   -1.699771
     12          6           0       -3.244250   -1.814248    0.432207
     13         16           0       -2.046176   -1.000892    1.568655
     14          6           0       -4.713364   -0.013961   -0.654854
     15          8           0       -4.596594    1.210926   -1.196010
     16          1           0        1.306994    3.935895    0.602535
     17          1           0       -1.001266    3.035280    0.718300
     18          1           0        0.517128   -0.934045    0.075453
     19          1           0        3.223614    2.417392    0.186662
     20          1           0       -4.204875   -1.975847    0.924797
     21          1           0       -2.835172   -2.777107    0.116494
     22          7           0       -2.266604    0.028033   -0.922582
     23          1           0       -1.506263   -0.445401   -1.406875
     24          1           0       -3.656140    1.287692   -1.482892
     25          8           0       -5.737089   -0.425834   -0.167697
 ---------------------------------------------------------------------
                    Distance matrix (angstroms):
                    1          2          3          4          5
     1  C    0.000000
     2  C    1.395350   0.000000
     3  C    2.424107   1.398531   0.000000
     4  C    2.791197   2.417728   1.402770   0.000000
     5  C    2.402037   2.776233   2.415682   1.391559   0.000000
     6  C    1.395904   2.423815   2.811753   2.429895   1.395426
     7  I    4.394162   4.921375   4.400235   3.073263   2.145163
     8  C    3.807092   2.521029   1.512414   2.533916   3.806979
     9  H    3.978409   2.586027   2.138164   3.417592   4.552249
    10  C    6.021725   4.770432   3.732718   4.331567   5.673335
    11  H    6.715053   5.553395   4.481696   4.873392   6.158021
    12  C    6.412241   5.191429   3.998872   4.396238   5.784791
    13  S    5.128603   3.989857   2.847922   3.278642   4.596048
    14  C    6.616324   5.269653   4.550407   5.463249   6.761986
    15  O    6.194273   4.897102   4.489360   5.559622   6.717571
    16  H    1.086351   2.154469   3.407275   3.877530   3.387403
    17  H    2.154458   1.086793   2.154683   3.403104   3.863022
    18  H    3.875429   3.399939   2.156446   1.084774   2.157149
    19  H    2.158523   3.407646   3.896246   3.412916   2.161662
    20  H    7.224432   5.941555   4.858979   5.382525   6.769475
    21  H    6.912218   5.808660   4.498060   4.569838   5.909642
    22  N    4.646350   3.465988   2.473901   3.146859   4.403856
    23  H    4.636777   3.671947   2.548050   2.755878   3.943175
    24  H    5.409952   4.175931   3.764025   4.783935   5.878494
    25  O    7.647144   6.271430   5.551455   6.456735   7.791471
                    6          7          8          9         10
     6  C    0.000000
     7  I    3.081850   0.000000
     8  C    4.323450   5.592841   0.000000
     9  H    4.794616   6.486141   1.093370   0.000000
    10  C    6.414476   7.066444   2.393448   2.764724   0.000000
    11  H    6.985760   7.338232   3.315750   3.782616   1.096970
    12  C    6.675138   6.995113   2.688436   3.170679   1.546786
    13  S    5.391036   5.966817   1.885442   2.436159   2.721091
    14  C    7.276589   8.370045   3.122660   2.916470   1.547943
    15  O    7.008448   8.482504   3.295282   2.866313   2.419026
    16  H    2.149818   5.230767   4.674237   4.653154   6.877539
    17  H    3.406390   6.008168   2.717189   2.324979   4.825742
    18  H    3.412660   3.134263   2.736345   3.775728   4.032296
    19  H    1.084495   3.149312   5.407886   5.858056   7.474702
    20  H    7.593957   8.023235   3.454449   3.657229   2.175827
    21  H    6.967754   6.801716   3.408107   4.089934   2.192129
    22  N    5.040933   5.965983   1.465387   2.080192   1.467920
    23  H    4.758681   5.257934   2.046691   2.911332   2.062258
    24  H    6.162580   7.634778   2.762058   2.516688   2.275878
    25  O    8.330403   9.362557   4.062664   3.766857   2.430575
                   11         12         13         14         15
    11  H    0.000000
    12  C    2.183976   0.000000
    13  S    3.618072   1.840772   0.000000
    14  C    2.124786   2.565352   3.609975   0.000000
    15  O    2.899730   3.692100   4.363501   1.344185   0.000000
    16  H    7.592069   7.335324   6.045577   7.309384   6.746301
    17  H    5.682539   5.350771   4.255070   4.996308   4.463097
    18  H    4.452310   3.879432   2.967263   5.360779   5.689259
    19  H    8.006827   7.733068   6.431583   8.343575   8.032621
    20  H    2.761345   1.091586   2.454602   2.569602   3.847959
    21  H    2.361385   1.092757   2.426155   3.428930   4.552986
    22  N    2.089573   2.487015   2.704355   2.461722   2.627328
    23  H    2.277835   2.876902   3.074712   3.322224   3.512553
    24  H    2.738859   3.668690   4.140234   1.870206   0.986229
    25  O    2.868245   2.915789   4.119278   1.206223   2.244357
                   16         17         18         19         20
    16  H    0.000000
    17  H    2.480438   0.000000
    18  H    4.961655   4.298176   0.000000
    19  H    2.480370   4.302794   4.309242   0.000000
    20  H    8.089082   5.951231   4.909587   8.661861   0.000000
    21  H    7.903048   6.124477   3.825765   7.981017   1.780859
    22  N    5.510714   3.652001   3.109796   6.089495   3.344434
    23  H    5.581030   4.109322   2.555422   5.753840   3.880910
    24  H    5.999557   3.866221   4.978024   7.169006   4.092525
    25  O    8.320880   5.932312   6.279541   9.407641   2.437983
                   21         22         23         24         25
    21  H    0.000000
    22  N    3.044956   0.000000
    23  H    3.086018   1.018233   0.000000
    24  H    4.444616   1.957421   2.762492   0.000000
    25  O    3.745714   3.580519   4.408609   2.999376   0.000000
 Stoichiometry    C10H10INO2S
 Framework group  C1[X(C10H10INO2S)]
 Deg. of freedom    69
 Full point group                 C1      NOp   1
 Largest Abelian subgroup         C1      NOp   1
 Largest concise Abelian subgroup C1      NOp   1
                         Standard orientation:                         
 ---------------------------------------------------------------------
 Center     Atomic      Atomic             Coordinates (Angstroms)
 Number     Number       Type             X           Y           Z
 ---------------------------------------------------------------------
      1          6           0        1.132876    2.871471    0.472755
      2          6           0       -0.165218    2.364128    0.540261
      3          6           0       -0.398406    0.994558    0.379666
      4          6           0        0.687074    0.134164    0.157810
      5          6           0        1.974863    0.656004    0.082184
      6          6           0        2.215290    2.021581    0.239056
      7         53           0        3.621660   -0.673481   -0.267466
      8          6           0       -1.813696    0.461775    0.401843
      9          1           0       -2.489394    1.249167    0.746668
     10          6           0       -3.424098   -0.862373   -0.773669
     11          1           0       -3.534514   -1.439856   -1.699771
     12          6           0       -3.244250   -1.814248    0.432207
     13         16           0       -2.046176   -1.000892    1.568655
     14          6           0       -4.713364   -0.013961   -0.654854
     15          8           0       -4.596594    1.210926   -1.196010
     16          1           0        1.306994    3.935895    0.602535
     17          1           0       -1.001266    3.035280    0.718300
     18          1           0        0.517128   -0.934045    0.075453
     19          1           0        3.223614    2.417392    0.186662
     20          1           0       -4.204875   -1.975847    0.924797
     21          1           0       -2.835172   -2.777107    0.116494
     22          7           0       -2.266604    0.028033   -0.922582
     23          1           0       -1.506263   -0.445401   -1.406875
     24          1           0       -3.656140    1.287692   -1.482892
     25          8           0       -5.737089   -0.425834   -0.167697
 ---------------------------------------------------------------------
 Rotational constants (GHZ):      0.8377591      0.1386078      0.1284647
 General basis read from cards:  (5D, 7F)
 ======================================================================================================
                                       Pseudopotential Parameters
 ======================================================================================================
  Center     Atomic      Valence      Angular      Power
  Number     Number     Electrons     Momentum     of R      Exponent        Coefficient   SO-Coeffient
 ======================================================================================================
    1          6
                                   No pseudopotential on this center.
    2          6
                                   No pseudopotential on this center.
    3          6
                                   No pseudopotential on this center.
    4          6
                                   No pseudopotential on this center.
    5          6
                                   No pseudopotential on this center.
    6          6
                                   No pseudopotential on this center.
    7         53            7
                                      F and up 
                                                     0        1.0715702       -0.07476210    0.00000000
                                                     1       44.1936028      -30.08112240    0.00000000
                                                     2       12.9367609      -75.37227210    0.00000000
                                                     2        3.1956412      -22.05637580    0.00000000
                                                     2        0.8589806       -1.69795850    0.00000000
                                      S - F
                                                     0      127.9202670        2.93800360    0.00000000
                                                     1       78.6211465       41.24712670    0.00000000
                                                     2       36.5146237      287.86800950    0.00000000
                                                     2        9.9065681      114.37585060    0.00000000
                                                     2        1.9420086       37.65477140    0.00000000
                                      P - F
                                                     0       13.0035304        2.22226300    0.00000000
                                                     1       76.0331404       39.40908310    0.00000000
                                                     2       24.1961684      177.40750020    0.00000000
                                                     2        6.4053433       77.98894620    0.00000000
                                                     2        1.5851786       25.75476410    0.00000000
                                      D - F
                                                     0       40.4278108        7.05243600    0.00000000
                                                     1       28.9084375       33.30416350    0.00000000
                                                     2       15.6268936      186.94538750    0.00000000
                                                     2        4.1442856       71.96883610    0.00000000
                                                     2        0.9377235        9.36306570    0.00000000
    8          6
                                   No pseudopotential on this center.
    9          1
                                   No pseudopotential on this center.
   10          6
                                   No pseudopotential on this center.
   11          1
                                   No pseudopotential on this center.
   12          6
                                   No pseudopotential on this center.
   13         16
                                   No pseudopotential on this center.
   14          6
                                   No pseudopotential on this center.
   15          8
                                   No pseudopotential on this center.
   16          1
                                   No pseudopotential on this center.
   17          1
                                   No pseudopotential on this center.
   18          1
                                   No pseudopotential on this center.
   19          1
                                   No pseudopotential on this center.
   20          1
                                   No pseudopotential on this center.
   21          1
                                   No pseudopotential on this center.
   22          7
                                   No pseudopotential on this center.
   23          1
                                   No pseudopotential on this center.
   24          1
                                   No pseudopotential on this center.
   25          8
                                   No pseudopotential on this center.
 ======================================================================================================
 There are   242 symmetry adapted cartesian basis functions of A   symmetry.
 There are   228 symmetry adapted basis functions of A   symmetry.
   228 basis functions,   468 primitive gaussians,   242 cartesian basis functions
    58 alpha electrons       58 beta electrons
       nuclear repulsion energy      1041.3960408898 Hartrees.
 NAtoms=   25 NActive=   25 NUniq=   25 SFac= 1.00D+00 NAtFMM=   60 NAOKFM=F Big=F
 Integral buffers will be    131072 words long.
 Raffenetti 1 integral format.
 Two-electron integral symmetry is turned on.
 One-electron integrals computed using PRISM.
   1 Symmetry operations used in ECPInt.
 ECPInt:  NShTT=    3321 NPrTT=   21620 LenC2=    3063 LenP2D=   12394.
 LDataN:  DoStor=T MaxTD1= 5 Len=  102
 NBasis=   228 RedAO= T EigKep=  4.87D-04  NBF=   228
 NBsUse=   228 1.00D-06 EigRej= -1.00D+00 NBFU=   228
 ExpMin= 1.05D-01 ExpMax= 2.19D+04 ExpMxC= 3.30D+03 IAcc=1 IRadAn=         1 AccDes= 0.00D+00
 Harris functional with IExCor=  205 and IRadAn=       1 diagonalized for initial guess.
 HarFok:  IExCor=  205 AccDes= 0.00D+00 IRadAn=         1 IDoV= 1 UseB2=F ITyADJ=14
 ICtDFT=  3500011 ScaDFX=  1.000000  1.000000  1.000000  1.000000
 Defaulting to unpruned grid for atomic number  53.
 FoFCou: FMM=F IPFlag=           0 FMFlag=      100000 FMFlg1=           0
         NFxFlg=           0 DoJE=T BraDBF=F KetDBF=T FulRan=T
         wScrn=  0.000000 ICntrl=     500 IOpCl=  0 I1Cent=   200000004 NGrid=           0
         NMat0=    1 NMatS0=      1 NMatT0=    0 NMatD0=    1 NMtDS0=    0 NMtDT0=    0
 Petite list used in FoFCou.
 Requested convergence on RMS density matrix=1.00D-08 within 128 cycles.
 Requested convergence on MAX density matrix=1.00D-06.
 Requested convergence on             energy=1.00D-06.
 No special actions if energy rises.
 Integral accuracy reduced to 1.0D-05 until final iterations.
 Initial convergence to 1.0D-05 achieved.  Increase integral accuracy.
 SCF Done:  E(RHF) =  -997.340556299     A.U. after   16 cycles
            NFock= 16  Conv=0.41D-08     -V/T= 2.0088

 **********************************************************************

            Population analysis using the SCF density.

 **********************************************************************

 Orbital symmetries:
 BldTbl:  Degeneracy threshold= 1.00D-02
       Occupied  (A) (A) (A) (A) (A) (A) (A) (A) (A) (A) (A) (A)
                 (A) (A) (A) (A) (A) (A) (A) (A) (A) (A) (A) (A)
                 (A) (A) (A) (A) (A) (A) (A) (A) (A) (A) (A) (A)
                 (A) (A) (A) (A) (A) (A) (A) (A) (A) (A) (A) (A)
                 (A) (A) (A) (A) (A) (A) (A) (A) (A) (A)
       Virtual   (A) (A) (A) (A) (A) (A) (A) (A) (A) (A) (A) (A)
                 (A) (A) (A) (A) (A) (A) (A) (A) (A) (A) (A) (A)
                 (A) (A) (A) (A) (A) (A) (A) (A) (A) (A) (A) (A)
                 (A) (A) (A) (A) (A) (A) (A) (A) (A) (A) (A) (A)
                 (A) (A) (A) (A) (A) (A) (A) (A) (A) (A) (A) (A)
                 (A) (A) (A) (A) (A) (A) (A) (A) (A) (A) (A) (A)
                 (A) (A) (A) (A) (A) (A) (A) (A) (A) (A) (A) (A)
                 (A) (A) (A) (A) (A) (A) (A) (A) (A) (A) (A) (A)
                 (A) (A) (A) (A) (A) (A) (A) (A) (A) (A) (A) (A)
                 (A) (A) (A) (A) (A) (A) (A) (A) (A) (A) (A) (A)
                 (A) (A) (A) (A) (A) (A) (A) (A) (A) (A) (A) (A)
                 (A) (A) (A) (A) (A) (A) (A) (A) (A) (A) (A) (A)
                 (A) (A) (A) (A) (A) (A) (A) (A) (A) (A) (A) (A)
                 (A) (A) (A) (A) (A) (A) (A) (A) (A) (A) (A) (A)
                 (A) (A)
 The electronic state is 1-A.
 Alpha  occ. eigenvalues --  -91.94411 -20.61090 -20.55570 -15.60872 -11.39370
 Alpha  occ. eigenvalues --  -11.32631 -11.31165 -11.31132 -11.27700 -11.27606
 Alpha  occ. eigenvalues --  -11.26963 -11.26907 -11.26543 -11.26377  -8.95920
 Alpha  occ. eigenvalues --   -6.64098  -6.63991  -6.63767  -1.45946  -1.36462
 Alpha  occ. eigenvalues --   -1.27915  -1.18479  -1.08253  -1.05953  -1.04866
 Alpha  occ. eigenvalues --   -1.00469  -0.90752  -0.89947  -0.85992  -0.82660
 Alpha  occ. eigenvalues --   -0.81207  -0.80339  -0.73856  -0.72245  -0.70377
 Alpha  occ. eigenvalues --   -0.68093  -0.66095  -0.63729  -0.63046  -0.62353
 Alpha  occ. eigenvalues --   -0.61353  -0.58903  -0.58039  -0.57386  -0.55100
 Alpha  occ. eigenvalues --   -0.54513  -0.52954  -0.51023  -0.47892  -0.47153
 Alpha  occ. eigenvalues --   -0.46418  -0.44696  -0.41697  -0.40740  -0.37868
 Alpha  occ. eigenvalues --   -0.36696  -0.35031  -0.33753
 Alpha virt. eigenvalues --    0.09784   0.10073   0.10808   0.15583   0.16205
 Alpha virt. eigenvalues --    0.20977   0.21852   0.23066   0.25381   0.26235
 Alpha virt. eigenvalues --    0.28112   0.28966   0.29887   0.30321   0.31603
 Alpha virt. eigenvalues --    0.31694   0.32635   0.35746   0.38693   0.40745
 Alpha virt. eigenvalues --    0.42688   0.43877   0.44496   0.45093   0.46270
 Alpha virt. eigenvalues --    0.47800   0.50455   0.53440   0.53983   0.54375
 Alpha virt. eigenvalues --    0.54945   0.57006   0.58611   0.58985   0.61659
 Alpha virt. eigenvalues --    0.67625   0.69614   0.72141   0.72612   0.74004
 Alpha virt. eigenvalues --    0.75960   0.76984   0.77210   0.77698   0.79582
 Alpha virt. eigenvalues --    0.80570   0.81824   0.82175   0.82482   0.83864
 Alpha virt. eigenvalues --    0.85355   0.86693   0.87999   0.88570   0.89950
 Alpha virt. eigenvalues --    0.91815   0.92196   0.93185   0.96725   0.98190
 Alpha virt. eigenvalues --    0.99529   1.02042   1.03944   1.04672   1.07571
 Alpha virt. eigenvalues --    1.08393   1.09219   1.10358   1.10632   1.10937
 Alpha virt. eigenvalues --    1.12235   1.13047   1.14639   1.16084   1.17387
 Alpha virt. eigenvalues --    1.18753   1.19850   1.22318   1.23995   1.24187
 Alpha virt. eigenvalues --    1.25041   1.26297   1.28630   1.30862   1.31035
 Alpha virt. eigenvalues --    1.33207   1.34305   1.35865   1.37372   1.40490
 Alpha virt. eigenvalues --    1.41909   1.42238   1.44134   1.48095   1.49144
 Alpha virt. eigenvalues --    1.52540   1.56764   1.60438   1.61416   1.63833
 Alpha virt. eigenvalues --    1.66987   1.70821   1.72291   1.72917   1.73389
 Alpha virt. eigenvalues --    1.76048   1.80385   1.81640   1.89941   1.92457
 Alpha virt. eigenvalues --    1.95049   1.97191   1.99146   2.00948   2.02590
 Alpha virt. eigenvalues --    2.04429   2.08549   2.09502   2.09826   2.12499
 Alpha virt. eigenvalues --    2.14224   2.16512   2.17114   2.18551   2.20551
 Alpha virt. eigenvalues --    2.24570   2.26365   2.27309   2.32021   2.33222
 Alpha virt. eigenvalues --    2.35532   2.36234   2.38270   2.40873   2.41931
 Alpha virt. eigenvalues --    2.42811   2.44401   2.46316   2.51161   2.54721
 Alpha virt. eigenvalues --    2.57083   2.58232   2.60207   2.62102   2.63798
 Alpha virt. eigenvalues --    2.65535   2.68995   2.72380   2.77273   2.82562
 Alpha virt. eigenvalues --    2.83495   2.85777   2.88871   2.91869   2.96223
 Alpha virt. eigenvalues --    2.97317   3.00546   3.02301   3.05843   3.07157
 Alpha virt. eigenvalues --    3.08453   3.12078   3.15518   3.22563   3.27773
 Alpha virt. eigenvalues --    3.37743   3.40885   3.46513   3.71994  10.25968
          Condensed to atoms (all electrons):
               1          2          3          4          5          6
     1  C    4.919671   0.520588  -0.029100  -0.052164  -0.008730   0.515715
     2  C    0.520588   4.920980   0.547457  -0.015972  -0.062025  -0.022589
     3  C   -0.029100   0.547457   4.913424   0.498452  -0.002568  -0.044860
     4  C   -0.052164  -0.015972   0.498452   5.007288   0.449464  -0.014810
     5  C   -0.008730  -0.062025  -0.002568   0.449464   5.349795   0.461361
     6  C    0.515715  -0.022589  -0.044860  -0.014810   0.461361   4.944460
     7  I   -0.000006   0.001134  -0.000626  -0.058199   0.254564  -0.053778
     8  C    0.003482  -0.033959   0.304041  -0.052332   0.004075  -0.000102
     9  H    0.000151  -0.000398  -0.051687   0.003663  -0.000076   0.000007
    10  C    0.000001  -0.000060   0.004837   0.000018   0.000003   0.000000
    11  H    0.000000   0.000000  -0.000075   0.000001   0.000000   0.000000
    12  C    0.000000  -0.000047   0.002383   0.000078  -0.000002   0.000000
    13  S   -0.000059   0.001251  -0.064577  -0.007222   0.000486  -0.000045
    14  C    0.000000   0.000003  -0.000213  -0.000002   0.000000   0.000000
    15  O    0.000000  -0.000014   0.000072   0.000000   0.000000   0.000000
    16  H    0.383751  -0.029263   0.002333  -0.000020   0.003867  -0.032467
    17  H   -0.027444   0.379264  -0.032963   0.003556  -0.000463   0.003057
    18  H   -0.000045   0.002567  -0.030051   0.381206  -0.024343   0.002232
    19  H   -0.026833   0.002546   0.000078   0.002294  -0.027844   0.383448
    20  H    0.000000   0.000000  -0.000091   0.000001   0.000000   0.000000
    21  H    0.000000   0.000001   0.000132   0.000010   0.000000   0.000000
    22  N   -0.000060   0.000314  -0.039335  -0.003079   0.000082   0.000023
    23  H   -0.000036   0.000458  -0.005160   0.005397   0.000068  -0.000013
    24  H    0.000001   0.000102  -0.000223  -0.000009   0.000000   0.000000
    25  O    0.000000   0.000000  -0.000001   0.000000   0.000000   0.000000
               7          8          9         10         11         12
     1  C   -0.000006   0.003482   0.000151   0.000001   0.000000   0.000000
     2  C    0.001134  -0.033959  -0.000398  -0.000060   0.000000  -0.000047
     3  C   -0.000626   0.304041  -0.051687   0.004837  -0.000075   0.002383
     4  C   -0.058199  -0.052332   0.003663   0.000018   0.000001   0.000078
     5  C    0.254564   0.004075  -0.000076   0.000003   0.000000  -0.000002
     6  C   -0.053778  -0.000102   0.000007   0.000000   0.000000   0.000000
     7  I    6.656119  -0.000162   0.000003   0.000000   0.000000   0.000000
     8  C   -0.000162   5.198052   0.402636  -0.078624   0.005338  -0.020724
     9  H    0.000003   0.402636   0.504144  -0.002896  -0.000102  -0.000505
    10  C    0.000000  -0.078624  -0.002896   5.256043   0.394068   0.284666
    11  H    0.000000   0.005338  -0.000102   0.394068   0.450561  -0.024961
    12  C    0.000000  -0.020724  -0.000505   0.284666  -0.024961   5.397334
    13  S    0.000016   0.297118  -0.054476  -0.046687   0.002506   0.238490
    14  C    0.000000  -0.003622   0.002978   0.353016  -0.028035  -0.053954
    15  O    0.000000   0.000248   0.003971  -0.092422   0.001086   0.002254
    16  H   -0.000157  -0.000110  -0.000007   0.000000   0.000000   0.000000
    17  H    0.000019  -0.002554   0.003155  -0.000005   0.000000   0.000000
    18  H    0.000437  -0.003020   0.000095  -0.000050   0.000005  -0.000059
    19  H    0.000270   0.000004   0.000000   0.000000   0.000000   0.000000
    20  H    0.000000   0.000904   0.000452  -0.035673   0.001142   0.379951
    21  H    0.000000   0.001199  -0.000222  -0.031218  -0.004250   0.382381
    22  N    0.000002   0.188966  -0.045049   0.230766  -0.032915  -0.078466
    23  H    0.000005  -0.033076   0.003724  -0.030598  -0.005233   0.000083
    24  H    0.000000  -0.001235  -0.001191  -0.004525   0.000133   0.001125
    25  O    0.000000  -0.000034  -0.000236  -0.078415   0.000419  -0.001358
              13         14         15         16         17         18
     1  C   -0.000059   0.000000   0.000000   0.383751  -0.027444  -0.000045
     2  C    0.001251   0.000003  -0.000014  -0.029263   0.379264   0.002567
     3  C   -0.064577  -0.000213   0.000072   0.002333  -0.032963  -0.030051
     4  C   -0.007222  -0.000002   0.000000  -0.000020   0.003556   0.381206
     5  C    0.000486   0.000000   0.000000   0.003867  -0.000463  -0.024343
     6  C   -0.000045   0.000000   0.000000  -0.032467   0.003057   0.002232
     7  I    0.000016   0.000000   0.000000  -0.000157   0.000019   0.000437
     8  C    0.297118  -0.003622   0.000248  -0.000110  -0.002554  -0.003020
     9  H   -0.054476   0.002978   0.003971  -0.000007   0.003155   0.000095
    10  C   -0.046687   0.353016  -0.092422   0.000000  -0.000005  -0.000050
    11  H    0.002506  -0.028035   0.001086   0.000000   0.000000   0.000005
    12  C    0.238490  -0.053954   0.002254   0.000000   0.000000  -0.000059
    13  S   15.648199  -0.001133  -0.000099   0.000003  -0.000019   0.000482
    14  C   -0.001133   4.086475   0.268722   0.000000  -0.000002   0.000002
    15  O   -0.000099   0.268722   8.417838   0.000000   0.000001   0.000000
    16  H    0.000003   0.000000   0.000000   0.451927  -0.001451   0.000007
    17  H   -0.000019  -0.000002   0.000001  -0.001451   0.451461  -0.000088
    18  H    0.000482   0.000002   0.000000   0.000007  -0.000088   0.422871
    19  H    0.000000   0.000000   0.000000  -0.001643  -0.000084  -0.000075
    20  H   -0.033302  -0.000844   0.000292   0.000000   0.000000   0.000001
    21  H   -0.050100   0.002916  -0.000043   0.000000   0.000000   0.000039
    22  N   -0.076521  -0.054524  -0.017007   0.000001   0.000083   0.001066
    23  H    0.003267   0.003688   0.000101   0.000000   0.000003   0.000996
    24  H    0.000415  -0.028763   0.241622   0.000000   0.000007  -0.000002
    25  O    0.000864   0.601872  -0.062337   0.000000   0.000000   0.000000
              19         20         21         22         23         24
     1  C   -0.026833   0.000000   0.000000  -0.000060  -0.000036   0.000001
     2  C    0.002546   0.000000   0.000001   0.000314   0.000458   0.000102
     3  C    0.000078  -0.000091   0.000132  -0.039335  -0.005160  -0.000223
     4  C    0.002294   0.000001   0.000010  -0.003079   0.005397  -0.000009
     5  C   -0.027844   0.000000   0.000000   0.000082   0.000068   0.000000
     6  C    0.383448   0.000000   0.000000   0.000023  -0.000013   0.000000
     7  I    0.000270   0.000000   0.000000   0.000002   0.000005   0.000000
     8  C    0.000004   0.000904   0.001199   0.188966  -0.033076  -0.001235
     9  H    0.000000   0.000452  -0.000222  -0.045049   0.003724  -0.001191
    10  C    0.000000  -0.035673  -0.031218   0.230766  -0.030598  -0.004525
    11  H    0.000000   0.001142  -0.004250  -0.032915  -0.005233   0.000133
    12  C    0.000000   0.379951   0.382381  -0.078466   0.000083   0.001125
    13  S    0.000000  -0.033302  -0.050100  -0.076521   0.003267   0.000415
    14  C    0.000000  -0.000844   0.002916  -0.054524   0.003688  -0.028763
    15  O    0.000000   0.000292  -0.000043  -0.017007   0.000101   0.241622
    16  H   -0.001643   0.000000   0.000000   0.000001   0.000000   0.000000
    17  H   -0.000084   0.000000   0.000000   0.000083   0.000003   0.000007
    18  H   -0.000075   0.000001   0.000039   0.001066   0.000996  -0.000002
    19  H    0.434429   0.000000   0.000000   0.000000   0.000000   0.000000
    20  H    0.000000   0.442680  -0.029154   0.003003  -0.000028  -0.000039
    21  H    0.000000  -0.029154   0.517355   0.001958   0.000101  -0.000021
    22  N    0.000000   0.003003   0.001958   7.319925   0.327697   0.031051
    23  H    0.000000  -0.000028   0.000101   0.327697   0.343349   0.000082
    24  H    0.000000  -0.000039  -0.000021   0.031051   0.000082   0.241699
    25  O    0.000000   0.008657  -0.000015   0.001666  -0.000052   0.002609
              25
     1  C    0.000000
     2  C    0.000000
     3  C   -0.000001
     4  C    0.000000
     5  C    0.000000
     6  C    0.000000
     7  I    0.000000
     8  C   -0.000034
     9  H   -0.000236
    10  C   -0.078415
    11  H    0.000419
    12  C   -0.001358
    13  S    0.000864
    14  C    0.601872
    15  O   -0.062337
    16  H    0.000000
    17  H    0.000000
    18  H    0.000000
    19  H    0.000000
    20  H    0.008657
    21  H   -0.000015
    22  N    0.001666
    23  H   -0.000052
    24  H    0.002609
    25  O    8.090385
 Mulliken charges:
               1
     1  C   -0.198882
     2  C   -0.212337
     3  C    0.028321
     4  C   -0.147621
     5  C   -0.397714
     6  C   -0.141640
     7  I    0.200359
     8  C   -0.176510
     9  H    0.231866
    10  C   -0.122246
    11  H    0.240313
    12  C   -0.508671
    13  S    0.141142
    14  C    0.851421
    15  O   -0.764284
    16  H    0.223231
    17  H    0.224468
    18  H    0.245729
    19  H    0.233411
    20  H    0.262048
    21  H    0.208931
    22  N   -0.759647
    23  H    0.385176
    24  H    0.517161
    25  O   -0.564024
 Sum of Mulliken charges =   0.00000
 Mulliken charges with hydrogens summed into heavy atoms:
               1
     1  C    0.024349
     2  C    0.012131
     3  C    0.028321
     4  C    0.098108
     5  C   -0.397714
     6  C    0.091770
     7  I    0.200359
     8  C    0.055357
    10  C    0.118067
    12  C   -0.037693
    13  S    0.141142
    14  C    0.851421
    15  O   -0.247123
    22  N   -0.374471
    25  O   -0.564024
 DipInt: DoE/N= T F RetVal/Mat= T F Init=T NMatP=  1 IDeriv=0 Min/MaxMlt=  0  4
 Entering OneElI...
 OneElI was handed   235777134 working-precision words.
 Multipole integrals L=0 to 4 MinM= 0 MaxM= 0.
 Requested accuracy = 0.1000D-12
 ShPair: Thresh= 1.00D-13 NBox=     0 BxSize= 0.00D+00 RnKept= 1.78D+01
         NSMCal=                 3321 NSMKep=                2860
 PrsmSu:  NPrtUS=   1 ThrOK=F IAlg=1 NPAlg=1 LenDen=           0.
 Prism:   IPart=     0 DynPar=F LinDyn=F Incr=          28.
 PRISM was handed   235513296 working-precision words and  2860 shell-pairs
 IPart=  0 NShTot=        2860 NBatch=         113 AvBLen=        25.3
 PrSmSu:  NxtVal=             29.
 Electronic moments (au):
       -116.00000000        316.25148893        -58.31018995        -24.03998657
      -3865.34256582       -867.54465029       -368.29968279       -394.74073091
       -156.38904954         34.13511063      23209.83217177      -2124.11894688
       -273.31214663        668.65299379        769.84434858       2079.48552995
       1441.04957112        112.37516783       -558.52223901       -862.01380204
    -270096.26925756     -18870.88812659      -3198.04013823      -8620.23890632
     -20005.01808723      -7194.65110999      -1490.09317426         64.26639305
        884.84483260     -17776.23219506     -11366.66983066      -2202.72936133
       3958.56802231       -582.02074425       -767.66574582
 Electronic spatial extent (au):  <R**2>=           5101.1869
 DipInt: DoE/N= F T RetVal/Mat= T F Init=T NMatP=  1 IDeriv=0 Min/MaxMlt=  0  4
 Nuclear    moments (au):
        116.00000000       -314.82149437         58.54391069         23.25011219
       3755.14896484        794.78123104        284.45547272        400.67133590
        159.12235464        -29.59021377     -22511.95935581       2085.00539959
        213.79060861       -561.04870658       -818.35723846      -2095.92277406
      -1351.79803718       -142.45893923        553.24731622        849.24804922
     249157.39186775      15941.97441068       1804.25180869       8312.04776492
      19748.94172916       6864.92401468       1577.87537575        -81.75579282
       -855.61216750      14671.33848799       8409.56796022       1416.94755233
      -3805.91852382        522.30097937        626.25149301
 Total      moments (au):
          0.00000000          1.42999455          0.23372075         -0.78987438
       -110.19360098        -72.76341926        -83.84421007          5.93060499
          2.73330510          4.54489685        697.87281596        -39.11354729
        -59.52153802        107.60428720        -48.51288989        -16.43724410
         89.25153394        -30.08377140         -5.27492278        -12.76575282
     -20938.87738981      -2928.91371591      -1393.78832954       -308.19114140
       -256.07635807       -329.72709531         87.78220149        -17.48939977
         29.23266510      -3104.89370707      -2957.10187044       -785.78180901
        152.64949850        -59.71976488       -141.41425282
 Traceless Quadrup. (au):
        -21.25985754         16.17032418          5.08953337          5.93060499
          2.73330510          4.54489685
 Charge=              0.0000 electrons
 Dipole moment (field-independent basis, Debye):
    X=              3.6347    Y=              0.5941    Z=             -2.0077  Tot=              4.1946
 Quadrupole moment (field-independent basis, Debye-Ang):
   XX=           -148.2142   YY=            -97.8693   ZZ=           -112.7733
   XY=              7.9769   XZ=              3.6764   YZ=              6.1130
 Traceless Quadrupole moment (field-independent basis, Debye-Ang):
   XX=            -28.5952   YY=             21.7496   ZZ=              6.8456
   XY=              7.9769   XZ=              3.6764   YZ=              6.1130
 Octapole moment (field-independent basis, Debye-Ang**2):
  XXX=            496.7190  YYY=            -27.8395  ZZZ=            -42.3651  XYY=             76.5886
  XXY=            -34.5296  XXZ=            -11.6994  XZZ=             63.5258  YZZ=            -21.4125
  YYZ=             -3.7545  XYZ=             -9.0862
 Hexadecapole moment (field-independent basis, Debye-Ang**3):
 XXXX=          -7886.5848 YYYY=          -1103.1693 ZZZZ=           -524.9675 XXXY=           -116.0796
 XXXZ=            -96.4506 YYYX=           -124.1910 YYYZ=             33.0630 ZZZX=             -6.5873
 ZZZY=             11.0104 XXYY=          -1169.4518 XXZZ=          -1113.7863 YYZZ=           -295.9631
 XXYZ=             57.4951 YYXZ=            -22.4933 ZZXY=            -53.2634
 N-N= 1.041396040890D+03 E-N=-4.427742322005D+03  KE= 9.885963750697D+02
 Entering OneElI...
 OneElI was handed   235812264 working-precision words.
 Calculate electrostatic properties
    NBasis =   228  MinDer = 0  MaxDer = 0
    NGrid  =    25  NMatD  =   1
 Requested accuracy = 0.1000D-12
 ShPair: Thresh= 1.00D-13 NBox=     0 BxSize= 0.00D+00 RnKept= 1.77D+01
         NSMCal=                 3321 NSMKep=                2619
 PrsmSu:  NPrtUS=   1 ThrOK=F IAlg=1 NPAlg=1 LenDen=           0.
 Prism:   IPart=     0 DynPar=F LinDyn=F Incr=         512.
 PRISM was handed   235571723 working-precision words and  2619 shell-pairs
 IPart=  0 NShTot=       65475 NBatch=        2698 AvBLen=        24.3
 PrSmSu:  NxtVal=            513.
 --------------------------------------------------------
       Center         ----      EFG at Nuclei      ----
                      3XX-RR        3YY-RR        3ZZ-RR
 --------------------------------------------------------
     1   Atom        0.182628      0.139552     -0.322180
     2   Atom        0.170379      0.150914     -0.321292
     3   Atom        0.079828      0.188088     -0.267916
     4   Atom        0.135728      0.167268     -0.302996
     5   Atom       -0.009838      0.120535     -0.110697
     6   Atom        0.182000      0.130356     -0.312356
     7   Atom       -0.034487     -0.007539      0.042026
     8   Atom        0.172908      0.016642     -0.189550
     9   Atom       -0.023920     -0.076734      0.100654
    10   Atom       -0.103861     -0.012320      0.116181
    11   Atom        0.133357      0.024695     -0.158052
    12   Atom        0.052370      0.045129     -0.097499
    13   Atom        0.830624     -1.088061      0.257437
    14   Atom        0.373096     -0.000063     -0.373033
    15   Atom       -0.229531     -0.420142      0.649673
    16   Atom        0.130716     -0.289100      0.158384
    17   Atom       -0.124588     -0.028863      0.153450
    18   Atom        0.127654     -0.289825      0.162171
    19   Atom       -0.245565      0.081056      0.164509
    20   Atom       -0.183538      0.135004      0.048534
    21   Atom        0.087517     -0.191720      0.104203
    22   Atom       -0.380916      0.498830     -0.117915
    23   Atom       -0.138561      0.073198      0.065363
    24   Atom       -0.293560      0.149751      0.143809
    25   Atom       -0.245353      1.038343     -0.792990
 --------------------------------------------------------
                        XY            XZ            YZ
 --------------------------------------------------------
     1   Atom        0.008119     -0.054492      0.063977
     2   Atom        0.035480     -0.048899      0.066539
     3   Atom       -0.032988     -0.016838      0.067129
     4   Atom       -0.010164     -0.051969      0.046473
     5   Atom        0.307673      0.026086     -0.002653
     6   Atom       -0.013010     -0.055817      0.063717
     7   Atom        0.062861      0.016747     -0.013910
     8   Atom       -0.066539     -0.070843      0.117954
     9   Atom        0.184681      0.078064     -0.102200
    10   Atom       -0.113843      0.022469      0.044911
    11   Atom       -0.023167     -0.033552     -0.190545
    12   Atom       -0.081206     -0.200185     -0.039783
    13   Atom       -2.069152     -1.149803      0.775807
    14   Atom       -0.090381     -0.237677     -0.187078
    15   Atom       -0.576642      0.623397      0.831420
    16   Atom       -0.070970     -0.006148     -0.055626
    17   Atom        0.210981      0.058887     -0.048318
    18   Atom       -0.067377     -0.006651     -0.040011
    19   Atom       -0.153365      0.022695      0.004578
    20   Atom       -0.059586      0.173415      0.032684
    21   Atom        0.149264      0.045597     -0.112855
    22   Atom       -0.389304      0.167737     -0.664556
    23   Atom        0.184559      0.190904     -0.151468
    24   Atom       -0.056034      0.161721      0.035881
    25   Atom       -1.025060      0.221903     -0.502872
 --------------------------------------------------------


 ---------------------------------------------------------------------------------
              Nuclear Quadrupole Coupling Constant in Principal Axis System
 ---------------------------------------------------------------------------------

       Atom             a.u.   MegaHertz   Gauss  10(-4) cm-1        Axes

              Baa    -0.0889   -14.834    -5.293    -4.948  0.7669 -0.6204 -0.1640
     7 I(127) Bbb     0.0432     7.214     2.574     2.406  0.6396  0.7599  0.1162
              Bcc     0.0457     7.620     2.719     2.542  0.0525 -0.1940  0.9796
 
              Baa    -0.5912     2.839     1.013     0.947  0.5766  0.5655  0.5897
    22 N(14)  Bbb    -0.4548     2.184     0.779     0.729  0.7669 -0.1256 -0.6294
              Bcc     1.0460    -5.024    -1.793    -1.676 -0.2819  0.8151 -0.5060
 

 ---------------------------------------------------------------------------------

 No NMR shielding tensors so no spin-rotation constants.
 Leave Link  601 at Fri Jan 17 11:57:31 2014, MaxMem=   235929600 cpu:         0.3
 FitSet:  NAtFit=    25 NAtPot=    25 NAtFrz=     0 MDM=    29 TotChg=   0.00000
 Merz-Kollman atomic radii used.
 Read replacement radii for each type of atom:
 Rad(53) =   2.700000000000D+00
 Atom Element Radius
    1     6    1.50
    2     6    1.50
    3     6    1.50
    4     6    1.50
    5     6    1.50
    6     6    1.50
    7    53    2.70
    8     6    1.50
    9     1    1.20
   10     6    1.50
   11     1    1.20
   12     6    1.50
   13    16    1.75
   14     6    1.50
   15     8    1.40
   16     1    1.20
   17     1    1.20
   18     1    1.20
   19     1    1.20
   20     1    1.20
   21     1    1.20
   22     7    1.50
   23     1    1.20
   24     1    1.20
   25     8    1.40
 Generate VDW surfaces: Layer= 5 Dens= 2 Start= 1.400 Inc= 0.179

 **********************************************************************

            Electrostatic Properties Using The SCF Density

 **********************************************************************

       Atomic Center    1 is at   1.132876  2.871471  0.472755
       Atomic Center    2 is at  -0.165218  2.364128  0.540261
       Atomic Center    3 is at  -0.398406  0.994558  0.379666
       Atomic Center    4 is at   0.687074  0.134164  0.157810
       Atomic Center    5 is at   1.974863  0.656004  0.082184
       Atomic Center    6 is at   2.215290  2.021581  0.239056
       Atomic Center    7 is at   3.621660 -0.673481 -0.267466
       Atomic Center    8 is at  -1.813696  0.461775  0.401843
       Atomic Center    9 is at  -2.489394  1.249167  0.746668
       Atomic Center   10 is at  -3.424098 -0.862373 -0.773669
       Atomic Center   11 is at  -3.534514 -1.439856 -1.699771
       Atomic Center   12 is at  -3.244250 -1.814248  0.432207
       Atomic Center   13 is at  -2.046176 -1.000892  1.568655
       Atomic Center   14 is at  -4.713364 -0.013961 -0.654854
       Atomic Center   15 is at  -4.596594  1.210926 -1.196010
       Atomic Center   16 is at   1.306994  3.935895  0.602535
       Atomic Center   17 is at  -1.001266  3.035280  0.718300
       Atomic Center   18 is at   0.517128 -0.934045  0.075453
       Atomic Center   19 is at   3.223614  2.417392  0.186662
       Atomic Center   20 is at  -4.204875 -1.975847  0.924797
       Atomic Center   21 is at  -2.835172 -2.777107  0.116494
       Atomic Center   22 is at  -2.266604  0.028033 -0.922582
       Atomic Center   23 is at  -1.506263 -0.445401 -1.406875
       Atomic Center   24 is at  -3.656140  1.287692 -1.482892
       Atomic Center   25 is at  -5.737089 -0.425834 -0.167697
      ESP Fit Center   26 is at   1.132876  2.871471  2.572755
      ESP Fit Center   27 is at   1.851118  2.871471  2.446110
      ESP Fit Center   28 is at   1.491997  3.493487  2.446110
      ESP Fit Center   29 is at   0.773755  3.493487  2.446110
      ESP Fit Center   30 is at   0.773755  2.249455  2.446110
      ESP Fit Center   31 is at   1.491997  2.249455  2.446110
      ESP Fit Center   32 is at   2.268445  3.601257  2.081448
      ESP Fit Center   33 is at   0.248909  3.891623  2.081448
      ESP Fit Center   34 is at   2.794298  3.611184  1.522755
      ESP Fit Center   35 is at   0.223549  4.446471 -0.577245
      ESP Fit Center   36 is at   1.693625  4.099342 -1.135938
      ESP Fit Center   37 is at   0.940771  4.207586 -1.135938
      ESP Fit Center   38 is at   0.248909  3.891623 -1.135938
      ESP Fit Center   39 is at   1.491997  3.493487 -1.500599
      ESP Fit Center   40 is at   0.773755  3.493487 -1.500599
      ESP Fit Center   41 is at   0.414633  2.871471 -1.500599
      ESP Fit Center   42 is at   0.773755  2.249455 -1.500599
      ESP Fit Center   43 is at   1.132876  2.871471 -1.627245
      ESP Fit Center   44 is at  -0.165218  2.364128  2.640261
      ESP Fit Center   45 is at   0.553024  2.364128  2.513616
      ESP Fit Center   46 is at   0.193903  2.986144  2.513616
      ESP Fit Center   47 is at  -0.524339  2.986144  2.513616
      ESP Fit Center   48 is at  -0.883461  2.364128  2.513616
      ESP Fit Center   49 is at  -0.524339  1.742112  2.513616
      ESP Fit Center   50 is at   0.193903  1.742112  2.513616
      ESP Fit Center   51 is at  -0.357322  3.700243  2.148954
      ESP Fit Center   52 is at  -1.460394  1.983830  2.148954
      ESP Fit Center   53 is at  -0.355319  4.172819 -0.509739
      ESP Fit Center   54 is at  -0.357322  3.700243 -1.068432
      ESP Fit Center   55 is at  -1.049185  3.384280 -1.068432
      ESP Fit Center   56 is at  -1.460394  2.744426 -1.068432
      ESP Fit Center   57 is at   0.193903  2.986144 -1.433093
      ESP Fit Center   58 is at  -0.524339  2.986144 -1.433093
      ESP Fit Center   59 is at  -0.883461  2.364128 -1.433093
      ESP Fit Center   60 is at  -0.165218  2.364128 -1.559739
      ESP Fit Center   61 is at  -0.398406  0.994558  2.479666
      ESP Fit Center   62 is at   0.319836  0.994558  2.353021
      ESP Fit Center   63 is at  -0.039285  0.372542  2.353021
      ESP Fit Center   64 is at  -1.282373  2.014710 -1.229027
      ESP Fit Center   65 is at  -0.039285  1.616574 -1.593688
      ESP Fit Center   66 is at  -0.757527  1.616574 -1.593688
      ESP Fit Center   67 is at  -0.398406  0.994558 -1.720334
      ESP Fit Center   68 is at   0.687074  0.134164  2.257810
      ESP Fit Center   69 is at   1.046195  0.756180  2.131165
      ESP Fit Center   70 is at   0.327953 -0.487852  2.131165
      ESP Fit Center   71 is at   0.327953  0.756180 -1.815544
      ESP Fit Center   72 is at   2.215290  2.021581  2.339056
      ESP Fit Center   73 is at   2.574411  2.643597  2.212411
      ESP Fit Center   74 is at   3.350859  2.751368  1.847749
      ESP Fit Center   75 is at   2.776039  3.249452  1.847749
      ESP Fit Center   76 is at   2.777285  3.751224 -0.810944
      ESP Fit Center   77 is at   2.776039  3.249452 -1.369637
      ESP Fit Center   78 is at   2.023186  3.357696 -1.369637
      ESP Fit Center   79 is at   1.856169  2.643597 -1.734298
      ESP Fit Center   80 is at   3.621660 -0.673481  3.512534
      ESP Fit Center   81 is at   4.359101 -0.673481  3.439903
      ESP Fit Center   82 is at   3.990381 -0.034838  3.439903
      ESP Fit Center   83 is at   3.252939 -0.034838  3.439903
      ESP Fit Center   84 is at   2.884219 -0.673481  3.439903
      ESP Fit Center   85 is at   3.252939 -1.312124  3.439903
      ESP Fit Center   86 is at   3.990381 -1.312124  3.439903
      ESP Fit Center   87 is at   5.068203 -0.673481  3.224799
      ESP Fit Center   88 is at   4.874403  0.049791  3.224799
      ESP Fit Center   89 is at   4.344932  0.579263  3.224799
      ESP Fit Center   90 is at   3.621660  0.773063  3.224799
      ESP Fit Center   91 is at   2.898388  0.579263  3.224799
      ESP Fit Center   92 is at   2.368917  0.049791  3.224799
      ESP Fit Center   93 is at   2.175117 -0.673481  3.224799
      ESP Fit Center   94 is at   2.368917 -1.396752  3.224799
      ESP Fit Center   95 is at   2.898388 -1.926224  3.224799
      ESP Fit Center   96 is at   3.621660 -2.120024  3.224799
      ESP Fit Center   97 is at   4.344932 -1.926224  3.224799
      ESP Fit Center   98 is at   4.874403 -1.396752  3.224799
      ESP Fit Center   99 is at   5.721715 -0.673481  2.875489
      ESP Fit Center  100 is at   5.595067  0.044781  2.875489
      ESP Fit Center  101 is at   5.230396  0.676409  2.875489
      ESP Fit Center  102 is at   4.671688  1.145221  2.875489
      ESP Fit Center  103 is at   3.986331  1.394670  2.875489
      ESP Fit Center  104 is at   3.256989  1.394670  2.875489
      ESP Fit Center  105 is at   2.571632  1.145221  2.875489
      ESP Fit Center  106 is at   2.012924  0.676409  2.875489
      ESP Fit Center  107 is at   1.648253  0.044781  2.875489
      ESP Fit Center  108 is at   1.521605 -0.673481  2.875489
      ESP Fit Center  109 is at   1.648253 -1.391742  2.875489
      ESP Fit Center  110 is at   2.012924 -2.023370  2.875489
      ESP Fit Center  111 is at   2.571632 -2.492182  2.875489
      ESP Fit Center  112 is at   3.256989 -2.741631  2.875489
      ESP Fit Center  113 is at   3.986331 -2.741631  2.875489
      ESP Fit Center  114 is at   4.671688 -2.492182  2.875489
      ESP Fit Center  115 is at   5.230396 -2.023370  2.875489
      ESP Fit Center  116 is at   5.595067 -1.391742  2.875489
      ESP Fit Center  117 is at   6.294524 -0.673481  2.405398
      ESP Fit Center  118 is at   6.195407  0.047649  2.405398
      ESP Fit Center  119 is at   5.905407  0.715297  2.405398
      ESP Fit Center  120 is at   5.446031  1.279944  2.405398
      ESP Fit Center  121 is at   4.851351  1.699716  2.405398
      ESP Fit Center  122 is at   4.165470  1.943478  2.405398
      ESP Fit Center  123 is at   3.439257  1.993152  2.405398
      ESP Fit Center  124 is at   2.726572  1.845054  2.405398
      ESP Fit Center  125 is at   2.080272  1.510169  2.405398
      ESP Fit Center  126 is at   1.548289  1.013332  2.405398
      ESP Fit Center  127 is at   1.170079  0.391391  2.405398
      ESP Fit Center  128 is at   0.973692 -0.309526  2.405398
      ESP Fit Center  129 is at   0.973692 -1.037435  2.405398
      ESP Fit Center  130 is at   1.170079 -1.738352  2.405398
      ESP Fit Center  131 is at   1.548289 -2.360293  2.405398
      ESP Fit Center  132 is at   2.080272 -2.857130  2.405398
      ESP Fit Center  133 is at   2.726572 -3.192015  2.405398
      ESP Fit Center  134 is at   3.439257 -3.340113  2.405398
      ESP Fit Center  135 is at   4.165470 -3.290439  2.405398
      ESP Fit Center  136 is at   4.851351 -3.046677  2.405398
      ESP Fit Center  137 is at   5.446031 -2.626905  2.405398
      ESP Fit Center  138 is at   5.905407 -2.062258  2.405398
      ESP Fit Center  139 is at   6.195407 -1.394610  2.405398
      ESP Fit Center  140 is at   6.764615 -0.673481  1.832590
      ESP Fit Center  141 is at   6.679896  0.051335  1.832590
      ESP Fit Center  142 is at   6.430307  0.737075  1.832590
      ESP Fit Center  143 is at   6.029303  1.346772  1.832590
      ESP Fit Center  144 is at   5.498503  1.847557  1.832590
      ESP Fit Center  145 is at   4.866521  2.212432  1.832590
      ESP Fit Center  146 is at   4.167428  2.421726  1.832590
      ESP Fit Center  147 is at   0.668248 -1.748434  1.832590
      ESP Fit Center  148 is at   0.995759 -2.400563  1.832590
      ESP Fit Center  149 is at   1.464833 -2.959583  1.832590
      ESP Fit Center  150 is at   2.050182 -3.395359  1.832590
      ESP Fit Center  151 is at   2.720250 -3.684399  1.832590
      ESP Fit Center  152 is at   3.438913 -3.811118  1.832590
      ESP Fit Center  153 is at   4.167428 -3.768687  1.832590
      ESP Fit Center  154 is at   4.866521 -3.559393  1.832590
      ESP Fit Center  155 is at   5.498503 -3.194518  1.832590
      ESP Fit Center  156 is at   6.029303 -2.693733  1.832590
      ESP Fit Center  157 is at   6.430307 -2.084036  1.832590
      ESP Fit Center  158 is at   6.679896 -1.398296  1.832590
      ESP Fit Center  159 is at   7.113925 -0.673481  1.179078
      ESP Fit Center  160 is at   7.037610  0.052602  1.179078
      ESP Fit Center  161 is at   6.812002  0.746951  1.179078
      ESP Fit Center  162 is at   6.446961  1.379221  1.179078
      ESP Fit Center  163 is at   5.958441  1.921778  1.179078
      ESP Fit Center  164 is at   5.367792  2.350909  1.179078
      ESP Fit Center  165 is at   4.700829  2.647861  1.179078
      ESP Fit Center  166 is at   0.796359 -2.726182  1.179078
      ESP Fit Center  167 is at   1.284879 -3.268739  1.179078
      ESP Fit Center  168 is at   1.875528 -3.697870  1.179078
      ESP Fit Center  169 is at   2.542491 -3.994822  1.179078
      ESP Fit Center  170 is at   3.256619 -4.146614  1.179078
      ESP Fit Center  171 is at   3.986701 -4.146614  1.179078
      ESP Fit Center  172 is at   4.700829 -3.994822  1.179078
      ESP Fit Center  173 is at   5.367792 -3.697870  1.179078
      ESP Fit Center  174 is at   5.958441 -3.268739  1.179078
      ESP Fit Center  175 is at   6.446961 -2.726182  1.179078
      ESP Fit Center  176 is at   6.812002 -2.093912  1.179078
      ESP Fit Center  177 is at   7.037610 -1.399563  1.179078
      ESP Fit Center  178 is at   7.329028 -0.673481  0.469976
      ESP Fit Center  179 is at   7.257792  0.049791  0.469976
      ESP Fit Center  180 is at   7.046822  0.745268  0.469976
      ESP Fit Center  181 is at   6.704224  1.386223  0.469976
      ESP Fit Center  182 is at   6.243165  1.948025  0.469976
      ESP Fit Center  183 is at   5.681363  2.409084  0.469976
      ESP Fit Center  184 is at   5.040408  2.751681  0.469976
      ESP Fit Center  185 is at   0.539096 -2.733184  0.469976
      ESP Fit Center  186 is at   1.000155 -3.294986  0.469976
      ESP Fit Center  187 is at   1.561956 -3.756045  0.469976
      ESP Fit Center  188 is at   2.202912 -4.098642  0.469976
      ESP Fit Center  189 is at   2.898388 -4.309613  0.469976
      ESP Fit Center  190 is at   3.621660 -4.380849  0.469976
      ESP Fit Center  191 is at   4.344932 -4.309613  0.469976
      ESP Fit Center  192 is at   5.040408 -4.098642  0.469976
      ESP Fit Center  193 is at   5.681363 -3.756045  0.469976
      ESP Fit Center  194 is at   6.243165 -3.294986  0.469976
      ESP Fit Center  195 is at   6.704224 -2.733184  0.469976
      ESP Fit Center  196 is at   7.046822 -2.092229  0.469976
      ESP Fit Center  197 is at   7.257792 -1.396752  0.469976
      ESP Fit Center  198 is at   7.401660 -0.673481 -0.267466
      ESP Fit Center  199 is at   7.333350  0.041889 -0.267466
      ESP Fit Center  200 is at   7.130891  0.731404 -0.267466
      ESP Fit Center  201 is at   6.801598  1.370142 -0.267466
      ESP Fit Center  202 is at   6.357375  1.935018 -0.267466
      ESP Fit Center  203 is at   5.814275  2.405617 -0.267466
      ESP Fit Center  204 is at   5.191929  2.764928 -0.267466
      ESP Fit Center  205 is at   0.650379 -3.010121 -0.267466
      ESP Fit Center  206 is at   1.146286 -3.530214 -0.267466
      ESP Fit Center  207 is at   1.731660 -3.947057 -0.267466
      ESP Fit Center  208 is at   2.385343 -4.245584 -0.267466
      ESP Fit Center  209 is at   3.083710 -4.415006 -0.267466
      ESP Fit Center  210 is at   3.801520 -4.449199 -0.267466
      ESP Fit Center  211 is at   4.512829 -4.346928 -0.267466
      ESP Fit Center  212 is at   5.191929 -4.111889 -0.267466
      ESP Fit Center  213 is at   5.814275 -3.752578 -0.267466
      ESP Fit Center  214 is at   6.357375 -3.281979 -0.267466
      ESP Fit Center  215 is at   6.801598 -2.717103 -0.267466
      ESP Fit Center  216 is at   7.130891 -2.078365 -0.267466
      ESP Fit Center  217 is at   7.333350 -1.388850 -0.267466
      ESP Fit Center  218 is at   7.329028 -0.673481 -1.004907
      ESP Fit Center  219 is at   7.257792  0.049791 -1.004907
      ESP Fit Center  220 is at   7.046822  0.745268 -1.004907
      ESP Fit Center  221 is at   6.704224  1.386223 -1.004907
      ESP Fit Center  222 is at   6.243165  1.948025 -1.004907
      ESP Fit Center  223 is at   5.681363  2.409084 -1.004907
      ESP Fit Center  224 is at   5.040408  2.751681 -1.004907
      ESP Fit Center  225 is at   4.344932  2.962652 -1.004907
      ESP Fit Center  226 is at   0.539096 -2.733184 -1.004907
      ESP Fit Center  227 is at   1.000155 -3.294986 -1.004907
      ESP Fit Center  228 is at   1.561956 -3.756045 -1.004907
      ESP Fit Center  229 is at   2.202912 -4.098642 -1.004907
      ESP Fit Center  230 is at   2.898388 -4.309613 -1.004907
      ESP Fit Center  231 is at   3.621660 -4.380849 -1.004907
      ESP Fit Center  232 is at   4.344932 -4.309613 -1.004907
      ESP Fit Center  233 is at   5.040408 -4.098642 -1.004907
      ESP Fit Center  234 is at   5.681363 -3.756045 -1.004907
      ESP Fit Center  235 is at   6.243165 -3.294986 -1.004907
      ESP Fit Center  236 is at   6.704224 -2.733184 -1.004907
      ESP Fit Center  237 is at   7.046822 -2.092229 -1.004907
      ESP Fit Center  238 is at   7.257792 -1.396752 -1.004907
      ESP Fit Center  239 is at   7.113925 -0.673481 -1.714009
      ESP Fit Center  240 is at   7.037610  0.052602 -1.714009
      ESP Fit Center  241 is at   6.812002  0.746951 -1.714009
      ESP Fit Center  242 is at   6.446961  1.379221 -1.714009
      ESP Fit Center  243 is at   5.958441  1.921778 -1.714009
      ESP Fit Center  244 is at   5.367792  2.350909 -1.714009
      ESP Fit Center  245 is at   4.700829  2.647861 -1.714009
      ESP Fit Center  246 is at   3.986701  2.799653 -1.714009
      ESP Fit Center  247 is at   3.256619  2.799653 -1.714009
      ESP Fit Center  248 is at   1.284879  1.921778 -1.714009
      ESP Fit Center  249 is at   0.796359  1.379221 -1.714009
      ESP Fit Center  250 is at   0.205710 -1.399563 -1.714009
      ESP Fit Center  251 is at   0.431317 -2.093912 -1.714009
      ESP Fit Center  252 is at   0.796359 -2.726182 -1.714009
      ESP Fit Center  253 is at   1.284879 -3.268739 -1.714009
      ESP Fit Center  254 is at   1.875528 -3.697870 -1.714009
      ESP Fit Center  255 is at   2.542491 -3.994822 -1.714009
      ESP Fit Center  256 is at   3.256619 -4.146614 -1.714009
      ESP Fit Center  257 is at   3.986701 -4.146614 -1.714009
      ESP Fit Center  258 is at   4.700829 -3.994822 -1.714009
      ESP Fit Center  259 is at   5.367792 -3.697870 -1.714009
      ESP Fit Center  260 is at   5.958441 -3.268739 -1.714009
      ESP Fit Center  261 is at   6.446961 -2.726182 -1.714009
      ESP Fit Center  262 is at   6.812002 -2.093912 -1.714009
      ESP Fit Center  263 is at   7.037610 -1.399563 -1.714009
      ESP Fit Center  264 is at   6.764615 -0.673481 -2.367521
      ESP Fit Center  265 is at   6.679896  0.051335 -2.367521
      ESP Fit Center  266 is at   6.430307  0.737075 -2.367521
      ESP Fit Center  267 is at   6.029303  1.346772 -2.367521
      ESP Fit Center  268 is at   5.498503  1.847557 -2.367521
      ESP Fit Center  269 is at   4.866521  2.212432 -2.367521
      ESP Fit Center  270 is at   4.167428  2.421726 -2.367521
      ESP Fit Center  271 is at   3.438913  2.464157 -2.367521
      ESP Fit Center  272 is at   2.720250  2.337438 -2.367521
      ESP Fit Center  273 is at   2.050182  2.048398 -2.367521
      ESP Fit Center  274 is at   1.464833  1.612622 -2.367521
      ESP Fit Center  275 is at   0.995759  1.053602 -2.367521
      ESP Fit Center  276 is at   0.668248  0.401473 -2.367521
      ESP Fit Center  277 is at   0.499956 -0.308606 -2.367521
      ESP Fit Center  278 is at   0.499956 -1.038355 -2.367521
      ESP Fit Center  279 is at   0.668248 -1.748434 -2.367521
      ESP Fit Center  280 is at   0.995759 -2.400563 -2.367521
      ESP Fit Center  281 is at   1.464833 -2.959583 -2.367521
      ESP Fit Center  282 is at   2.050182 -3.395359 -2.367521
      ESP Fit Center  283 is at   2.720250 -3.684399 -2.367521
      ESP Fit Center  284 is at   3.438913 -3.811118 -2.367521
      ESP Fit Center  285 is at   4.167428 -3.768687 -2.367521
      ESP Fit Center  286 is at   4.866521 -3.559393 -2.367521
      ESP Fit Center  287 is at   5.498503 -3.194518 -2.367521
      ESP Fit Center  288 is at   6.029303 -2.693733 -2.367521
      ESP Fit Center  289 is at   6.430307 -2.084036 -2.367521
      ESP Fit Center  290 is at   6.679896 -1.398296 -2.367521
      ESP Fit Center  291 is at   6.294524 -0.673481 -2.940329
      ESP Fit Center  292 is at   6.195407  0.047649 -2.940329
      ESP Fit Center  293 is at   5.905407  0.715297 -2.940329
      ESP Fit Center  294 is at   5.446031  1.279944 -2.940329
      ESP Fit Center  295 is at   4.851351  1.699716 -2.940329
      ESP Fit Center  296 is at   4.165470  1.943478 -2.940329
      ESP Fit Center  297 is at   3.439257  1.993152 -2.940329
      ESP Fit Center  298 is at   2.726572  1.845054 -2.940329
      ESP Fit Center  299 is at   2.080272  1.510169 -2.940329
      ESP Fit Center  300 is at   1.548289  1.013332 -2.940329
      ESP Fit Center  301 is at   1.170079  0.391391 -2.940329
      ESP Fit Center  302 is at   0.973692 -0.309526 -2.940329
      ESP Fit Center  303 is at   0.973692 -1.037435 -2.940329
      ESP Fit Center  304 is at   1.170079 -1.738352 -2.940329
      ESP Fit Center  305 is at   1.548289 -2.360293 -2.940329
      ESP Fit Center  306 is at   2.080272 -2.857130 -2.940329
      ESP Fit Center  307 is at   2.726572 -3.192015 -2.940329
      ESP Fit Center  308 is at   3.439257 -3.340113 -2.940329
      ESP Fit Center  309 is at   4.165470 -3.290439 -2.940329
      ESP Fit Center  310 is at   4.851351 -3.046677 -2.940329
      ESP Fit Center  311 is at   5.446031 -2.626905 -2.940329
      ESP Fit Center  312 is at   5.905407 -2.062258 -2.940329
      ESP Fit Center  313 is at   6.195407 -1.394610 -2.940329
      ESP Fit Center  314 is at   5.721715 -0.673481 -3.410421
      ESP Fit Center  315 is at   5.595067  0.044781 -3.410421
      ESP Fit Center  316 is at   5.230396  0.676409 -3.410421
      ESP Fit Center  317 is at   4.671688  1.145221 -3.410421
      ESP Fit Center  318 is at   3.986331  1.394670 -3.410421
      ESP Fit Center  319 is at   3.256989  1.394670 -3.410421
      ESP Fit Center  320 is at   2.571632  1.145221 -3.410421
      ESP Fit Center  321 is at   2.012924  0.676409 -3.410421
      ESP Fit Center  322 is at   1.648253  0.044781 -3.410421
      ESP Fit Center  323 is at   1.521605 -0.673481 -3.410421
      ESP Fit Center  324 is at   1.648253 -1.391742 -3.410421
      ESP Fit Center  325 is at   2.012924 -2.023370 -3.410421
      ESP Fit Center  326 is at   2.571632 -2.492182 -3.410421
      ESP Fit Center  327 is at   3.256989 -2.741631 -3.410421
      ESP Fit Center  328 is at   3.986331 -2.741631 -3.410421
      ESP Fit Center  329 is at   4.671688 -2.492182 -3.410421
      ESP Fit Center  330 is at   5.230396 -2.023370 -3.410421
      ESP Fit Center  331 is at   5.595067 -1.391742 -3.410421
      ESP Fit Center  332 is at   5.068203 -0.673481 -3.759730
      ESP Fit Center  333 is at   4.874403  0.049791 -3.759730
      ESP Fit Center  334 is at   4.344932  0.579263 -3.759730
      ESP Fit Center  335 is at   3.621660  0.773063 -3.759730
      ESP Fit Center  336 is at   2.898388  0.579263 -3.759730
      ESP Fit Center  337 is at   2.368917  0.049791 -3.759730
      ESP Fit Center  338 is at   2.175117 -0.673481 -3.759730
      ESP Fit Center  339 is at   2.368917 -1.396752 -3.759730
      ESP Fit Center  340 is at   2.898388 -1.926224 -3.759730
      ESP Fit Center  341 is at   3.621660 -2.120024 -3.759730
      ESP Fit Center  342 is at   4.344932 -1.926224 -3.759730
      ESP Fit Center  343 is at   4.874403 -1.396752 -3.759730
      ESP Fit Center  344 is at   4.359101 -0.673481 -3.974834
      ESP Fit Center  345 is at   3.990381 -0.034838 -3.974834
      ESP Fit Center  346 is at   3.252939 -0.034838 -3.974834
      ESP Fit Center  347 is at   2.884219 -0.673481 -3.974834
      ESP Fit Center  348 is at   3.252939 -1.312124 -3.974834
      ESP Fit Center  349 is at   3.990381 -1.312124 -3.974834
      ESP Fit Center  350 is at   3.621660 -0.673481 -4.047466
      ESP Fit Center  351 is at  -2.003797  2.270466 -0.648157
      ESP Fit Center  352 is at  -2.124932  1.880434  2.260296
      ESP Fit Center  353 is at  -2.853857  1.880434  2.260296
      ESP Fit Center  354 is at  -3.218319  1.249167  2.260296
      ESP Fit Center  355 is at  -2.895281  2.498358  1.794131
      ESP Fit Center  356 is at  -3.552019  2.021209  1.794131
      ESP Fit Center  357 is at  -3.802871  1.249167  1.794131
      ESP Fit Center  358 is at  -3.070194  2.780610  1.120503
      ESP Fit Center  359 is at  -3.715364  2.335282  1.120503
      ESP Fit Center  360 is at  -4.079679  1.641137  1.120503
      ESP Fit Center  361 is at  -3.070194  2.780610  0.372833
      ESP Fit Center  362 is at  -3.715364  2.335282  0.372833
      ESP Fit Center  363 is at  -2.895281  2.498358 -0.300795
      ESP Fit Center  364 is at  -4.760484 -2.525971 -1.325936
      ESP Fit Center  365 is at  -4.115314 -2.971299 -1.325936
      ESP Fit Center  366 is at  -5.124799 -1.831826 -2.073606
      ESP Fit Center  367 is at  -4.760484 -2.525971 -2.073606
      ESP Fit Center  368 is at  -4.115314 -2.971299 -2.073606
      ESP Fit Center  369 is at  -3.337089 -3.065793 -2.073606
      ESP Fit Center  370 is at  -2.604093 -2.787804 -2.073606
      ESP Fit Center  371 is at  -2.084244 -2.201016 -2.073606
      ESP Fit Center  372 is at  -2.221037 -1.439856 -2.747234
      ESP Fit Center  373 is at  -3.940401 -0.190665 -2.747234
      ESP Fit Center  374 is at  -4.597139 -0.667814 -2.747234
      ESP Fit Center  375 is at  -4.847991 -1.439856 -2.747234
      ESP Fit Center  376 is at  -4.597139 -2.211898 -2.747234
      ESP Fit Center  377 is at  -3.940401 -2.689047 -2.747234
      ESP Fit Center  378 is at  -3.128627 -2.689047 -2.747234
      ESP Fit Center  379 is at  -2.471889 -2.211898 -2.747234
      ESP Fit Center  380 is at  -2.805589 -1.439856 -3.213399
      ESP Fit Center  381 is at  -3.170052 -0.808589 -3.213399
      ESP Fit Center  382 is at  -3.898976 -0.808589 -3.213399
      ESP Fit Center  383 is at  -4.263439 -1.439856 -3.213399
      ESP Fit Center  384 is at  -3.898976 -2.071123 -3.213399
      ESP Fit Center  385 is at  -3.170052 -2.071123 -3.213399
      ESP Fit Center  386 is at  -3.534514 -1.439856 -3.379771
      ESP Fit Center  387 is at  -3.436354 -3.150362  2.040900
      ESP Fit Center  388 is at  -3.434351 -3.622939  1.482207
      ESP Fit Center  389 is at  -4.490556 -3.464625  0.067546
      ESP Fit Center  390 is at  -4.715571 -2.883226 -0.617793
      ESP Fit Center  391 is at  -2.046176 -1.000892  4.018655
      ESP Fit Center  392 is at  -1.289084 -1.000892  3.898744
      ESP Fit Center  393 is at  -1.667630 -0.345231  3.898744
      ESP Fit Center  394 is at  -2.424722 -0.345231  3.898744
      ESP Fit Center  395 is at  -2.803268 -1.000892  3.898744
      ESP Fit Center  396 is at  -2.424722 -1.656553  3.898744
      ESP Fit Center  397 is at  -1.667630 -1.656553  3.898744
      ESP Fit Center  398 is at  -0.606102 -1.000892  3.550747
      ESP Fit Center  399 is at  -0.799035 -0.280855  3.550747
      ESP Fit Center  400 is at  -1.326139  0.246249  3.550747
      ESP Fit Center  401 is at  -2.046176  0.439182  3.550747
      ESP Fit Center  402 is at  -2.766213  0.246249  3.550747
      ESP Fit Center  403 is at  -3.293317 -0.280855  3.550747
      ESP Fit Center  404 is at  -3.486250 -1.000892  3.550747
      ESP Fit Center  405 is at  -3.293317 -1.720929  3.550747
      ESP Fit Center  406 is at  -2.766213 -2.248033  3.550747
      ESP Fit Center  407 is at  -2.046176 -2.440966  3.550747
      ESP Fit Center  408 is at  -1.326139 -2.248033  3.550747
      ESP Fit Center  409 is at  -0.799035 -1.720929  3.550747
      ESP Fit Center  410 is at  -0.064084 -1.000892  3.008729
      ESP Fit Center  411 is at  -0.214962 -0.242378  3.008729
      ESP Fit Center  412 is at  -0.644626  0.400658  3.008729
      ESP Fit Center  413 is at  -1.287662  0.830322  3.008729
      ESP Fit Center  414 is at  -2.046176  0.981200  3.008729
      ESP Fit Center  415 is at  -2.804690  0.830322  3.008729
      ESP Fit Center  416 is at  -3.447726  0.400658  3.008729
      ESP Fit Center  417 is at  -3.877390 -0.242378  3.008729
      ESP Fit Center  418 is at  -4.028268 -1.000892  3.008729
      ESP Fit Center  419 is at  -3.877390 -1.759406  3.008729
      ESP Fit Center  420 is at  -3.447726 -2.402442  3.008729
      ESP Fit Center  421 is at  -2.804690 -2.832106  3.008729
      ESP Fit Center  422 is at  -2.046176 -2.982984  3.008729
      ESP Fit Center  423 is at  -1.287662 -2.832106  3.008729
      ESP Fit Center  424 is at  -0.644626 -2.402442  3.008729
      ESP Fit Center  425 is at  -0.214962 -1.759406  3.008729
      ESP Fit Center  426 is at   0.283912 -1.000892  2.325747
      ESP Fit Center  427 is at   0.157662 -0.244313  2.325747
      ESP Fit Center  428 is at  -1.474173  1.257896  2.325747
      ESP Fit Center  429 is at  -3.624302  0.713410  2.325747
      ESP Fit Center  430 is at  -4.095428  0.108108  2.325747
      ESP Fit Center  431 is at  -4.344485 -0.617372  2.325747
      ESP Fit Center  432 is at  -3.624302 -2.715194  2.325747
      ESP Fit Center  433 is at  -2.982162 -3.134725  2.325747
      ESP Fit Center  434 is at  -2.238593 -3.323022  2.325747
      ESP Fit Center  435 is at  -1.474173 -3.259680  2.325747
      ESP Fit Center  436 is at  -0.771738 -2.951564  2.325747
      ESP Fit Center  437 is at  -0.207409 -2.432062  2.325747
      ESP Fit Center  438 is at   0.157662 -1.757470  2.325747
      ESP Fit Center  439 is at  -3.842153  0.665531  1.568655
      ESP Fit Center  440 is at  -4.253550  0.062123  1.568655
      ESP Fit Center  441 is at  -1.863087 -3.444041  1.568655
      ESP Fit Center  442 is at  -1.151090 -3.281533  1.568655
      ESP Fit Center  443 is at  -0.518626 -2.916379  1.568655
      ESP Fit Center  444 is at  -0.021891 -2.381026  1.568655
      ESP Fit Center  445 is at   0.294977 -1.723042  1.568655
      ESP Fit Center  446 is at  -0.771738 -2.951564  0.811564
      ESP Fit Center  447 is at  -0.207409 -2.432062  0.811564
      ESP Fit Center  448 is at  -0.644626 -2.402442  0.128581
      ESP Fit Center  449 is at  -1.326139 -2.248033 -0.413436
      ESP Fit Center  450 is at  -4.354243  0.608055  1.318501
      ESP Fit Center  451 is at  -4.905468  1.322153  0.953839
      ESP Fit Center  452 is at  -6.008539  0.366337 -2.263547
      ESP Fit Center  453 is at  -6.008539 -0.394259 -2.263547
      ESP Fit Center  454 is at  -5.597330 -1.034113 -2.263547
      ESP Fit Center  455 is at  -3.995122 -0.013961 -2.628208
      ESP Fit Center  456 is at  -5.431606 -0.013961 -2.628208
      ESP Fit Center  457 is at  -5.072485 -0.635977 -2.628208
      ESP Fit Center  458 is at  -4.713364 -0.013961 -2.754854
      ESP Fit Center  459 is at  -4.221564  1.860496  0.614794
      ESP Fit Center  460 is at  -4.971624  1.860496  0.614794
      ESP Fit Center  461 is at  -3.903630  2.411176  0.189919
      ESP Fit Center  462 is at  -4.596594  2.596855  0.189919
      ESP Fit Center  463 is at  -5.289559  2.411176  0.189919
      ESP Fit Center  464 is at  -5.796844  1.903890  0.189919
      ESP Fit Center  465 is at  -4.037025  2.933103 -0.445950
      ESP Fit Center  466 is at  -4.785875  3.011810 -0.445950
      ESP Fit Center  467 is at  -5.501996  2.779128 -0.445950
      ESP Fit Center  468 is at  -6.061565  2.275290 -0.445950
      ESP Fit Center  469 is at  -6.367828  1.587413 -0.445950
      ESP Fit Center  470 is at  -3.722947  2.965446 -1.196010
      ESP Fit Center  471 is at  -4.415748  3.162565 -1.196010
      ESP Fit Center  472 is at  -5.132974  3.096104 -1.196010
      ESP Fit Center  473 is at  -5.777758  2.775040 -1.196010
      ESP Fit Center  474 is at  -6.263020  2.242733 -1.196010
      ESP Fit Center  475 is at  -6.523221  1.571075 -1.196010
      ESP Fit Center  476 is at  -4.037025  2.933103 -1.946069
      ESP Fit Center  477 is at  -4.785875  3.011810 -1.946069
      ESP Fit Center  478 is at  -5.501996  2.779128 -1.946069
      ESP Fit Center  479 is at  -6.061565  2.275290 -1.946069
      ESP Fit Center  480 is at  -6.367828  1.587413 -1.946069
      ESP Fit Center  481 is at  -6.367828  0.834439 -1.946069
      ESP Fit Center  482 is at  -4.596594  2.596855 -2.581939
      ESP Fit Center  483 is at  -5.289559  2.411176 -2.581939
      ESP Fit Center  484 is at  -5.796844  1.903890 -2.581939
      ESP Fit Center  485 is at  -5.982523  1.210926 -2.581939
      ESP Fit Center  486 is at  -5.796844  0.517961 -2.581939
      ESP Fit Center  487 is at  -4.221564  1.860496 -3.006814
      ESP Fit Center  488 is at  -4.971624  1.860496 -3.006814
      ESP Fit Center  489 is at  -5.346654  1.210926 -3.006814
      ESP Fit Center  490 is at  -4.971624  0.561355 -3.006814
      ESP Fit Center  491 is at  -4.221564  0.561355 -3.006814
      ESP Fit Center  492 is at  -4.596594  1.210926 -3.156010
      ESP Fit Center  493 is at   1.306994  3.935895  2.282535
      ESP Fit Center  494 is at   2.035918  3.935895  2.116163
      ESP Fit Center  495 is at   1.671456  4.567163  2.116163
      ESP Fit Center  496 is at   0.942531  4.567163  2.116163
      ESP Fit Center  497 is at   2.620471  3.935895  1.649998
      ESP Fit Center  498 is at   2.369619  4.707938  1.649998
      ESP Fit Center  499 is at   1.712880  5.185086  1.649998
      ESP Fit Center  500 is at   0.901107  5.185086  1.649998
      ESP Fit Center  501 is at   0.244369  4.707938  1.649998
      ESP Fit Center  502 is at   2.944873  3.935895  0.976370
      ESP Fit Center  503 is at   2.757263  4.697056  0.976370
      ESP Fit Center  504 is at   2.237415  5.283843  0.976370
      ESP Fit Center  505 is at   1.504418  5.561832  0.976370
      ESP Fit Center  506 is at   0.726194  5.467339  0.976370
      ESP Fit Center  507 is at   0.081024  5.022010  0.976370
      ESP Fit Center  508 is at   2.757263  4.697056  0.228700
      ESP Fit Center  509 is at   2.237415  5.283843  0.228700
      ESP Fit Center  510 is at   1.504418  5.561832  0.228700
[...]
 3752 Fit       0.006556
 3753 Fit       0.007866
 3754 Fit       0.009008
 3755 Fit       0.009764
 3756 Fit       0.009893
 3757 Fit       0.029885
 3758 Fit       0.021058
 3759 Fit       0.014904
 3760 Fit       0.010613
 3761 Fit       0.007626
 3762 Fit       0.005556
 3763 Fit       0.004139
 3764 Fit       0.003196
 3765 Fit       0.002600
 3766 Fit       0.002253
 3767 Fit       0.002077
 3768 Fit       0.002011
 3769 Fit       0.002001
 3770 Fit       0.002009
 3771 Fit       0.002003
 3772 Fit       0.001966
 3773 Fit       0.001887
 3774 Fit       0.001772
 3775 Fit       0.001631
 3776 Fit       0.001486
 3777 Fit       0.001393
 3778 Fit       0.001327
 3779 Fit       0.001353
 3780 Fit       0.001507
 3781 Fit       0.001817
 3782 Fit       0.002305
 3783 Fit       0.002979
 3784 Fit       0.003822
 3785 Fit       0.004787
 3786 Fit       0.005784
 3787 Fit       0.006675
 3788 Fit       0.007294
 3789 Fit       0.007480
 3790 Fit       0.007137
 3791 Fit       0.006343
 3792 Fit       0.005461
 3793 Fit       0.005070
 3794 Fit       0.005657
 3795 Fit       0.007290
 3796 Fit       0.025033
 3797 Fit       0.018145
 3798 Fit       0.013157
 3799 Fit       0.009568
 3800 Fit       0.007008
 3801 Fit       0.005208
 3802 Fit       0.003970
 3803 Fit       0.003149
 3804 Fit       0.002634
 3805 Fit       0.002337
 3806 Fit       0.002184
 3807 Fit       0.002117
 3808 Fit       0.002087
 3809 Fit       0.002060
 3810 Fit       0.002010
 3811 Fit       0.001926
 3812 Fit       0.001807
 3813 Fit       0.001664
 3814 Fit       0.001517
 3815 Fit       0.001383
 3816 Fit       0.001317
 3817 Fit       0.001342
 3818 Fit       0.001491
 3819 Fit       0.001789
 3820 Fit       0.002248
 3821 Fit       0.002858
 3822 Fit       0.003584
 3823 Fit       0.004353
 3824 Fit       0.005060
 3825 Fit       0.005578
 3826 Fit       0.005798
 3827 Fit       0.005689
 3828 Fit       0.005360
 3829 Fit       0.005103
 3830 Fit       0.005313
 3831 Fit       0.006329
 3832 Fit       0.008335
 3833 Fit       0.011533
 3834 Fit       0.028581
 3835 Fit       0.022285
 3836 Fit       0.016822
 3837 Fit       0.012522
 3838 Fit       0.009274
 3839 Fit       0.006886
 3840 Fit       0.005174
 3841 Fit       0.003984
 3842 Fit       0.003190
 3843 Fit       0.002687
 3844 Fit       0.002390
 3845 Fit       0.002226
 3846 Fit       0.002136
 3847 Fit       0.002075
 3848 Fit       0.002008
 3849 Fit       0.001917
 3850 Fit       0.001796
 3851 Fit       0.001653
 3852 Fit       0.001507
 3853 Fit       0.001352
 3854 Fit       0.001290
 3855 Fit       0.001323
 3856 Fit       0.001480
 3857 Fit       0.001779
 3858 Fit       0.002221
 3859 Fit       0.002775
 3860 Fit       0.003382
 3861 Fit       0.003955
 3862 Fit       0.004395
 3863 Fit       0.004637
 3864 Fit       0.004697
 3865 Fit       0.004721
 3866 Fit       0.004972
 3867 Fit       0.005759
 3868 Fit       0.007339
 3869 Fit       0.009923
 3870 Fit       0.013724
 3871 Fit       0.018464
 3872 Fit       0.022170
 3873 Fit       0.022547
 3874 Fit       0.019962
 3875 Fit       0.016234
 3876 Fit       0.012608
 3877 Fit       0.009564
 3878 Fit       0.007188
 3879 Fit       0.005423
 3880 Fit       0.004166
 3881 Fit       0.003311
 3882 Fit       0.002758
 3883 Fit       0.002419
 3884 Fit       0.002218
 3885 Fit       0.002091
 3886 Fit       0.001991
 3887 Fit       0.001886
 3888 Fit       0.001761
 3889 Fit       0.001617
 3890 Fit       0.001472
 3891 Fit       0.001316
 3892 Fit       0.001265
 3893 Fit       0.001309
 3894 Fit       0.001474
 3895 Fit       0.001770
 3896 Fit       0.002180
 3897 Fit       0.002659
 3898 Fit       0.003139
 3899 Fit       0.003548
 3900 Fit       0.003850
 3901 Fit       0.004089
 3902 Fit       0.004409
 3903 Fit       0.005034
 3904 Fit       0.006188
 3905 Fit       0.008026
 3906 Fit       0.010540
 3907 Fit       0.013327
 3908 Fit       0.015353
 3909 Fit       0.015604
 3910 Fit       0.014135
 3911 Fit       0.011793
 3912 Fit       0.009348
 3913 Fit       0.007208
 3914 Fit       0.005506
 3915 Fit       0.004243
 3916 Fit       0.003358
 3917 Fit       0.002769
 3918 Fit       0.002394
 3919 Fit       0.002156
 3920 Fit       0.001992
 3921 Fit       0.001854
 3922 Fit       0.001717
 3923 Fit       0.001572
 3924 Fit       0.001430
 3925 Fit       0.001301
 3926 Fit       0.001263
 3927 Fit       0.001329
 3928 Fit       0.001520
 3929 Fit       0.001830
 3930 Fit       0.002226
 3931 Fit       0.002651
 3932 Fit       0.003053
 3933 Fit       0.003430
 3934 Fit       0.003861
 3935 Fit       0.004505
 3936 Fit       0.005535
 3937 Fit       0.007027
 3938 Fit       0.008834
 3939 Fit       0.010451
 3940 Fit       0.011174
 3941 Fit       0.010675
 3942 Fit       0.009271
 3943 Fit       0.007535
 3944 Fit       0.005894
 3945 Fit       0.004550
 3946 Fit       0.003550
 3947 Fit       0.002857
 3948 Fit       0.002400
 3949 Fit       0.002100
 3950 Fit       0.001888
 3951 Fit       0.001713
 3952 Fit       0.001553
 3953 Fit       0.001409
 3954 Fit       0.001330
 3955 Fit       0.001310
 3956 Fit       0.001407
 3957 Fit       0.001630
 3958 Fit       0.001960
 3959 Fit       0.002356
 3960 Fit       0.002785
 3961 Fit       0.003268
 3962 Fit       0.003898
 3963 Fit       0.004788
 3964 Fit       0.005949
 3965 Fit       0.007164
 3966 Fit       0.007975
 3967 Fit       0.007981
 3968 Fit       0.007196
 3969 Fit       0.005988
 3970 Fit       0.004749
 3971 Fit       0.003708
 3972 Fit       0.002935
 3973 Fit       0.002403
 3974 Fit       0.002044
 3975 Fit       0.001790
 3976 Fit       0.001592
 3977 Fit       0.001434
 3978 Fit       0.001432
 3979 Fit       0.001439
 3980 Fit       0.001598
 3981 Fit       0.001904
 3982 Fit       0.002325
 3983 Fit       0.002849
 3984 Fit       0.003519
 3985 Fit       0.004376
 3986 Fit       0.005287
 3987 Fit       0.005875
 3988 Fit       0.005787
 3989 Fit       0.005071
 3990 Fit       0.004097
 3991 Fit       0.003202
 3992 Fit       0.002529
 3993 Fit       0.002068
 3994 Fit       0.001758
 3995 Fit       0.001547
 3996 Fit       0.001639
 3997 Fit       0.001695
 3998 Fit       0.001983
 3999 Fit       0.002477
 4000 Fit       0.003147
 4001 Fit       0.003896
 4002 Fit       0.004371
 4003 Fit       0.004191
 4004 Fit       0.003490
 4005 Fit       0.002722
 4006 Fit       0.002149
 4007 Fit       0.001797
 4008 Fit       0.001987
 4009 Fit       0.002191
 4010 Fit       0.002806
 4011 Fit       0.003289
 4012 Fit       0.002957
 4013 Fit       0.002298
 4014 Fit       0.002519
 4015 Fit       0.008953
 4016 Fit       0.004109
 4017 Fit       0.010251
 4018 Fit       0.004629
 4019 Fit      -0.000856
 4020 Fit       0.007247
 4021 Fit       0.001007
 4022 Fit       0.009090
 4023 Fit       0.003890
 4024 Fit       0.009164
 4025 Fit       0.014696
 4026 Fit       0.019168
 4027 Fit       0.010689
 4028 Fit       0.014745
 4029 Fit       0.018344
 4030 Fit       0.021522
 4031 Fit       0.024462
 4032 Fit       0.027564
 4033 Fit       0.031753
 4034 Fit       0.012307
 4035 Fit       0.015255
 4036 Fit       0.018402
 4037 Fit       0.021373
 4038 Fit       0.024234
 4039 Fit       0.027382
 4040 Fit       0.031308
 4041 Fit       0.028103
 4042 Fit       0.020081
 4043 Fit       0.016295
 4044 Fit       0.014727
 4045 Fit       0.015405
 4046 Fit       0.017713
 4047 Fit       0.020602
 4048 Fit       0.023503
 4049 Fit       0.026323
 4050 Fit       0.024034
 4051 Fit       0.022280
 4052 Fit       0.019327
 4053 Fit       0.018133
 4054 Fit       0.019852
 4055 Fit       0.022592
 4056 Fit       0.021027
 4057 Fit       0.004747
 4058 Fit       0.005074
 4059 Fit       0.006639
 4060 Fit       0.007621
 4061 Fit       0.005283
 4062 Fit       0.007622
 4063 Fit       0.004015
 4064 Fit       0.007455
 4065 Fit       0.003781
 4066 Fit       0.008232
 4067 Fit       0.002192
 4068 Fit       0.008216
 4069 Fit       0.011167
 4070 Fit       0.015360
 4071 Fit      -0.009681
 4072 Fit      -0.008867
 4073 Fit      -0.009033
 4074 Fit      -0.010127
 4075 Fit      -0.010469
 4076 Fit      -0.009430
 4077 Fit      -0.008944
 4078 Fit      -0.008173
 4079 Fit      -0.007683
 4080 Fit      -0.007553
 4081 Fit      -0.008408
 4082 Fit      -0.010069
 4083 Fit      -0.011329
 4084 Fit      -0.011114
 4085 Fit      -0.009693
 4086 Fit      -0.008314
 4087 Fit      -0.007830
 4088 Fit      -0.008087
 4089 Fit      -0.008365
 4090 Fit      -0.007727
 4091 Fit      -0.006866
 4092 Fit      -0.005911
 4093 Fit      -0.005390
 4094 Fit      -0.005913
 4095 Fit      -0.007691
 4096 Fit      -0.010066
 4097 Fit      -0.011853
 4098 Fit      -0.012100
 4099 Fit      -0.010727
 4100 Fit      -0.008603
 4101 Fit      -0.006831
 4102 Fit      -0.006038
 4103 Fit      -0.006255
 4104 Fit      -0.007058
 4105 Fit      -0.007837
 4106 Fit      -0.008110
 4107 Fit      -0.005314
 4108 Fit      -0.003850
 4109 Fit      -0.002622
 4110 Fit      -0.002394
 4111 Fit      -0.003765
 4112 Fit      -0.006485
 4113 Fit      -0.009624
 4114 Fit      -0.012091
 4115 Fit      -0.012995
 4116 Fit      -0.011984
 4117 Fit      -0.009570
 4118 Fit      -0.006868
 4119 Fit      -0.004800
 4120 Fit      -0.003750
 4121 Fit      -0.003746
 4122 Fit      -0.004584
 4123 Fit      -0.005862
 4124 Fit      -0.007099
 4125 Fit      -0.007904
 4126 Fit      -0.001689
 4127 Fit       0.000893
 4128 Fit       0.002222
 4129 Fit       0.001191
 4130 Fit      -0.001926
 4131 Fit      -0.006098
 4132 Fit      -0.010196
 4133 Fit      -0.013208
 4134 Fit      -0.014219
 4135 Fit      -0.012754
 4136 Fit      -0.009435
 4137 Fit      -0.005788
 4138 Fit      -0.003008
 4139 Fit      -0.001383
 4140 Fit      -0.000829
 4141 Fit      -0.001252
 4142 Fit      -0.002466
 4143 Fit      -0.004126
 4144 Fit      -0.005808
 4145 Fit       0.003245
 4146 Fit      -0.002482
 4147 Fit      -0.008347
 4148 Fit      -0.013455
 4149 Fit      -0.016688
 4150 Fit      -0.016538
 4151 Fit       0.001872
 4152 Fit       0.002268
 4153 Fit       0.001756
 4154 Fit       0.000403
 4155 Fit      -0.001511
 4156 Fit      -0.003576
 4157 Fit      -0.008793
 4158 Fit       0.005412
 4159 Fit       0.004272
 4160 Fit       0.002314
 4161 Fit      -0.000028
 4162 Fit       0.005233
 4163 Fit       0.002572
 4164 Fit       0.007249
 4165 Fit      -0.012382
 4166 Fit      -0.021636
 4167 Fit       0.002536
 4168 Fit      -0.009916
 4169 Fit      -0.004052
 4170 Fit       0.004109
 4171 Fit      -0.004717
 4172 Fit       0.001566
 4173 Fit       0.010193
 4174 Fit       0.011090
 4175 Fit      -0.002918
 4176 Fit      -0.012718
 4177 Fit      -0.001183
 4178 Fit      -0.010470
 4179 Fit      -0.017891
 4180 Fit      -0.025199
 4181 Fit       0.008699
 4182 Fit      -0.002244
 4183 Fit      -0.010602
 4184 Fit      -0.017258
 4185 Fit      -0.023157
 4186 Fit      -0.029816
 4187 Fit       0.003946
 4188 Fit      -0.004974
 4189 Fit      -0.012157
 4190 Fit      -0.018001
 4191 Fit      -0.023043
 4192 Fit      -0.028170
 4193 Fit       0.014832
 4194 Fit       0.005481
 4195 Fit      -0.003041
 4196 Fit      -0.010240
 4197 Fit      -0.016148
 4198 Fit      -0.021014
 4199 Fit      -0.025306
 4200 Fit      -0.029854
 4201 Fit       0.005177
 4202 Fit      -0.002712
 4203 Fit      -0.009600
 4204 Fit      -0.015307
 4205 Fit      -0.019915
 4206 Fit      -0.023693
 4207 Fit      -0.027119
 4208 Fit      -0.030911
 4209 Fit       0.003504
 4210 Fit      -0.003796
 4211 Fit      -0.010147
 4212 Fit      -0.015333
 4213 Fit      -0.019365
 4214 Fit      -0.022396
 4215 Fit      -0.024669
 4216 Fit      -0.026390
 4217 Fit       0.006309
 4218 Fit      -0.001104
 4219 Fit      -0.007705
 4220 Fit      -0.013035
 4221 Fit      -0.016937
 4222 Fit      -0.019400
 4223 Fit      -0.020421
 4224 Fit      -0.019751
 4225 Fit       0.007280
 4226 Fit      -0.000031
 4227 Fit      -0.006551
 4228 Fit      -0.011494
 4229 Fit      -0.014475
 4230 Fit      -0.015236
 4231 Fit      -0.013379
 4232 Fit       0.006611
 4233 Fit      -0.000495
 4234 Fit      -0.006331
 4235 Fit      -0.009439
 4236 Fit      -0.008962
 4237 Fit      -0.004349
 4238 Fit       0.003993
 4239 Fit       0.018459
 4240 Fit       0.010421
 4241 Fit       0.004850
 4242 Fit      -0.001792
 4243 Fit      -0.002873
 4244 Fit       0.003419
 4245 Fit       0.010284
 4246 Fit       0.003683
 4247 Fit       0.011334
 4248 Fit       0.012342
 4249 Fit       0.012756
 4250 Fit       0.012828
 4251 Fit       0.013384
 4252 Fit       0.013855
 4253 Fit       0.014184
 4254 Fit       0.014441
 4255 Fit       0.014766
 4256 Fit       0.015487
 4257 Fit       0.015543
 4258 Fit       0.015378
 4259 Fit       0.015411
 4260 Fit       0.015539
 4261 Fit       0.015844
 4262 Fit       0.016644
 4263 Fit       0.016913
 4264 Fit       0.016217
 4265 Fit       0.016010
 4266 Fit       0.016010
 4267 Fit       0.016201
 4268 Fit       0.016835
 4269 Fit       0.018606
 4270 Fit       0.017395
 4271 Fit       0.016393
 4272 Fit       0.016039
 4273 Fit       0.015948
 4274 Fit       0.016062
 4275 Fit       0.016594
 4276 Fit       0.018154
 4277 Fit       0.016667
 4278 Fit       0.015777
 4279 Fit       0.015432
 4280 Fit       0.015312
 4281 Fit       0.015383
 4282 Fit       0.015847
 4283 Fit       0.014724
 4284 Fit       0.014308
 4285 Fit       0.014105
 4286 Fit       0.014011
 4287 Fit       0.012088
 4288 Fit       0.011621
 4289 Fit       0.011066
 4290 Fit       0.014607
 4291 Fit       0.013649
 4292 Fit       0.012836
 4293 Fit       0.012388
 4294 Fit       0.016551
 4295 Fit       0.015055
 4296 Fit       0.013971
 4297 Fit       0.013134
 4298 Fit       0.012940
 4299 Fit       0.018313
 4300 Fit       0.016125
 4301 Fit       0.014736
 4302 Fit       0.013606
 4303 Fit       0.012756
 4304 Fit       0.018306
 4305 Fit       0.016134
 4306 Fit       0.014775
 4307 Fit       0.013635
 4308 Fit       0.012629
 4309 Fit       0.016541
 4310 Fit       0.015195
 4311 Fit       0.014297
 4312 Fit       0.013654
 4313 Fit       0.013721
 4314 Fit       0.014269
 4315 Fit       0.014333
 4316 Fit       0.015959
 4317 Fit      -0.011385
 4318 Fit      -0.006839
 4319 Fit      -0.002471
 4320 Fit      -0.013520
 4321 Fit      -0.007550
 4322 Fit      -0.002570
 4323 Fit       0.001034
 4324 Fit      -0.012240
 4325 Fit      -0.005488
 4326 Fit      -0.000591
 4327 Fit       0.002944
 4328 Fit      -0.012084
 4329 Fit      -0.004156
 4330 Fit       0.001247
 4331 Fit      -0.004659
 4332 Fit       0.001976
 4333 Fit       0.007725
 4334 Fit       0.008701
 4335 Fit       0.009269
 4336 Fit       0.009187
 4337 Fit       0.008163
 4338 Fit       0.009195
 4339 Fit       0.010411
 4340 Fit       0.011144
 4341 Fit       0.011335
 4342 Fit       0.010911
 4343 Fit       0.010889
 4344 Fit       0.012212
 4345 Fit       0.013132
 4346 Fit       0.013694
 4347 Fit       0.013997
 4348 Fit       0.012932
 4349 Fit       0.014162
 4350 Fit       0.015192
 4351 Fit       0.016083
 4352 Fit       0.017010
 4353 Fit       0.018441
 4354 Fit       0.016693
 4355 Fit       0.017177
 4356 Fit       0.018095
 4357 Fit       0.019348
 4358 Fit       0.021328
 4359 Fit       0.022068
 4360 Fit       0.023559
 4361 Fit       0.027519
 4362 Fit       0.008891
 4363 Fit       0.010692
 4364 Fit       0.011998
 4365 Fit       0.011627
 4366 Fit       0.014065
 4367 Fit       0.015758
 4368 Fit       0.013753
 4369 Fit       0.014818
 4370 Fit       0.019736
 4371 Fit       0.016411
 4372 Fit       0.017127
 4373 Fit       0.020040
 4374 Fit       0.023519
 4375 Fit       0.023481
 4376 Fit       0.019590
 4377 Fit       0.032466
 4378 Fit       0.030731
 4379 Fit       0.025526
 4380 Fit       0.016693
 4381 Fit       0.016159
 4382 Fit       0.014286
 4383 Fit       0.014638
 4384 Fit       0.012335
 4385 Fit       0.014261
 4386 Fit       0.012494
 4387 Fit       0.014562
 4388 Fit       0.012259
 4389 Fit       0.015510
 4390 Fit       0.012354
 4391 Fit       0.017275
 4392 Fit       0.012155
 4393 Fit      -0.019511
 4394 Fit      -0.018403
 4395 Fit      -0.021617
 4396 Fit      -0.022596
 4397 Fit      -0.019402
 4398 Fit      -0.019119
 4399 Fit      -0.023248
 4400 Fit      -0.025361
 4401 Fit      -0.025366
 4402 Fit      -0.023372
 4403 Fit      -0.019130
 4404 Fit      -0.016690
 4405 Fit      -0.022405
 4406 Fit      -0.025941
 4407 Fit      -0.027654
 4408 Fit      -0.027895
 4409 Fit      -0.026902
 4410 Fit      -0.024692
 4411 Fit      -0.020898
 4412 Fit      -0.023349
 4413 Fit      -0.026979
 4414 Fit      -0.028979
 4415 Fit      -0.029743
 4416 Fit      -0.029509
 4417 Fit      -0.028441
 4418 Fit      -0.026573
 4419 Fit      -0.023716
 4420 Fit      -0.019335
 4421 Fit      -0.026923
 4422 Fit      -0.029194
 4423 Fit      -0.030525
 4424 Fit      -0.031040
 4425 Fit      -0.030809
 4426 Fit      -0.029927
 4427 Fit      -0.028462
 4428 Fit      -0.026386
 4429 Fit      -0.023496
 4430 Fit      -0.019350
 4431 Fit      -0.031673
 4432 Fit      -0.031816
 4433 Fit      -0.031512
 4434 Fit      -0.030677
 4435 Fit      -0.029329
 4436 Fit      -0.027476
 4437 Fit      -0.025026
 4438 Fit      -0.021720
 4439 Fit      -0.017098
 4440 Fit      -0.010500
 4441 Fit      -0.032611
 4442 Fit      -0.031913
 4443 Fit      -0.031197
 4444 Fit      -0.030120
 4445 Fit      -0.028594
 4446 Fit      -0.026580
 4447 Fit      -0.023972
 4448 Fit      -0.020517
 4449 Fit      -0.015786
 4450 Fit      -0.009196
 4451 Fit      -0.031884
 4452 Fit      -0.030555
 4453 Fit      -0.029369
 4454 Fit      -0.027871
 4455 Fit      -0.025901
 4456 Fit      -0.023340
 4457 Fit      -0.019973
 4458 Fit      -0.015421
 4459 Fit      -0.009115
 4460 Fit      -0.000305
 4461 Fit      -0.029759
 4462 Fit      -0.027871
 4463 Fit      -0.026238
 4464 Fit      -0.024190
 4465 Fit      -0.021437
 4466 Fit      -0.017689
 4467 Fit      -0.012480
 4468 Fit      -0.005078
 4469 Fit      -0.024667
 4470 Fit      -0.022609
 4471 Fit      -0.020083
 4472 Fit      -0.016438
 4473 Fit      -0.011098
 4474 Fit      -0.003217
 4475 Fit      -0.016050
 4476 Fit      -0.011759
 -----------------------------------------------------------------
 Leave Link  602 at Fri Jan 17 11:57:33 2014, MaxMem=   235929600 cpu:         1.7

 Test job not archived.
 1\1\GINC-G28\SP\RHF\Gen\C10H10I1N1O2S1\KOLAR\17-Jan-2014\0\\# hf/gen p
 seudo=read pop=(mk, readradii) iop(6/33=2,6/41=5,6/42=2)\\na resp\\0,1
 \C,0,1.132876,2.871471,0.472755\C,0,-0.165218,2.364128,0.540261\C,0,-0
 .398406,0.994558,0.379666\C,0,0.687074,0.134164,0.15781\C,0,1.974863,0
 .656004,0.082184\C,0,2.21529,2.021581,0.239056\I,0,3.62166,-0.673481,-
 0.267466\C,0,-1.813696,0.461775,0.401843\H,0,-2.489394,1.249167,0.7466
 68\C,0,-3.424098,-0.862373,-0.773669\H,0,-3.534514,-1.439856,-1.699771
 \C,0,-3.24425,-1.814248,0.432207\S,0,-2.046176,-1.000892,1.568655\C,0,
 -4.713364,-0.013961,-0.654854\O,0,-4.596594,1.210926,-1.19601\H,0,1.30
 6994,3.935895,0.602535\H,0,-1.001266,3.03528,0.7183\H,0,0.517128,-0.93
 4045,0.075453\H,0,3.223614,2.417392,0.186662\H,0,-4.204875,-1.975847,0
 .924797\H,0,-2.835172,-2.777107,0.116494\N,0,-2.266604,0.028033,-0.922
 582\H,0,-1.506263,-0.445401,-1.406875\H,0,-3.65614,1.287692,-1.482892\
 O,0,-5.737089,-0.425834,-0.167697\\Version=AM64L-G09RevD.01\State=1-A\
 HF=-997.3405563\RMSD=4.146e-09\Dipole=1.4299946,0.2337206,-0.7898744\Q
 uadrupole=-21.2598566,16.1703232,5.0895334,5.9306079,2.7333055,4.54489
 66\PG=C01 [X(C10H10I1N1O2S1)]\\@


 ... THE UNIVERSE IS NOT ONLY QUEERER THAN WE SUPPOSE,
 BUT QUEERER THAN WE CAN SUPPOSE ... 

                                   -- J. B. S. HALDANE
 Job cpu time:       0 days  0 hours  3 minutes  1.0 seconds.
 File lengths (MBytes):  RWF=     30 Int=      0 D2E=      0 Chk=      3 Scr=      1
 Normal termination of Gaussian 09 at Fri Jan 17 11:57:33 2014.
180.63user 0.43system 3:01.84elapsed 99%CPU (0avgtext+0avgdata 603456maxresident)k
8inputs+133848outputs (0major+171495minor)pagefaults 0swaps
