Linux g30 2.6.38.6-client #1 SMP Tue Jun 12 11:27:21 CEST 2012 x86_64 GNU/Linux
Thu Jan 16 21:46:47 CET 2014

 Entering Gaussian System, Link 0=/usr/local/programs/common/gaussian/gaussian09_d01/arch/amd64-pgi_10.4.0-acml/g09/g09
 Initial command:
 /usr/local/programs/common/gaussian/gaussian09_d01/arch/amd64-pgi_10.4.0-acml/g09/l1.exe "/scratch/kolar/g09_17392/Gau-3033.inp" -scrdir="/scratch/kolar/g09_17392/"
 Entering Link 1 = /usr/local/programs/common/gaussian/gaussian09_d01/arch/amd64-pgi_10.4.0-acml/g09/l1.exe PID=      3040.
  
 Copyright (c) 1988,1990,1992,1993,1995,1998,2003,2009,2013,
            Gaussian, Inc.  All Rights Reserved.
  
 This is part of the Gaussian(R) 09 program.  It is based on
 the Gaussian(R) 03 system (copyright 2003, Gaussian, Inc.),
 the Gaussian(R) 98 system (copyright 1998, Gaussian, Inc.),
 the Gaussian(R) 94 system (copyright 1995, Gaussian, Inc.),
 the Gaussian 92(TM) system (copyright 1992, Gaussian, Inc.),
 the Gaussian 90(TM) system (copyright 1990, Gaussian, Inc.),
 the Gaussian 88(TM) system (copyright 1988, Gaussian, Inc.),
 the Gaussian 86(TM) system (copyright 1986, Carnegie Mellon
 University), and the Gaussian 82(TM) system (copyright 1983,
 Carnegie Mellon University). Gaussian is a federally registered
 trademark of Gaussian, Inc.
  
 This software contains proprietary and confidential information,
 including trade secrets, belonging to Gaussian, Inc.
  
 This software is provided under written license and may be
 used, copied, transmitted, or stored only in accord with that
 written license.
  
 The following legend is applicable only to US Government
 contracts under FAR:
  
                    RESTRICTED RIGHTS LEGEND
  
 Use, reproduction and disclosure by the US Government is
 subject to restrictions as set forth in subparagraphs (a)
 and (c) of the Commercial Computer Software - Restricted
 Rights clause in FAR 52.227-19.
  
 Gaussian, Inc.
 340 Quinnipiac St., Bldg. 40, Wallingford CT 06492
  
  
 ---------------------------------------------------------------
 Warning -- This program may not be used in any manner that
 competes with the business of Gaussian, Inc. or will provide
 assistance to any competitor of Gaussian, Inc.  The licensee
 of this program is prohibited from giving any competitor of
 Gaussian, Inc. access to this program.  By using this program,
 the user acknowledges that Gaussian, Inc. is engaged in the
 business of creating and licensing software in the field of
 computational chemistry and represents and warrants to the
 licensee that it is not a competitor of Gaussian, Inc. and that
 it will not use this program in any manner prohibited above.
 ---------------------------------------------------------------
  

 Cite this work as:
 Gaussian 09, Revision D.01,
 M. J. Frisch, G. W. Trucks, H. B. Schlegel, G. E. Scuseria, 
 M. A. Robb, J. R. Cheeseman, G. Scalmani, V. Barone, B. Mennucci, 
 G. A. Petersson, H. Nakatsuji, M. Caricato, X. Li, H. P. Hratchian, 
 A. F. Izmaylov, J. Bloino, G. Zheng, J. L. Sonnenberg, M. Hada, 
 M. Ehara, K. Toyota, R. Fukuda, J. Hasegawa, M. Ishida, T. Nakajima, 
 Y. Honda, O. Kitao, H. Nakai, T. Vreven, J. A. Montgomery, Jr., 
 J. E. Peralta, F. Ogliaro, M. Bearpark, J. J. Heyd, E. Brothers, 
 K. N. Kudin, V. N. Staroverov, T. Keith, R. Kobayashi, J. Normand, 
 K. Raghavachari, A. Rendell, J. C. Burant, S. S. Iyengar, J. Tomasi, 
 M. Cossi, N. Rega, J. M. Millam, M. Klene, J. E. Knox, J. B. Cross, 
 V. Bakken, C. Adamo, J. Jaramillo, R. Gomperts, R. E. Stratmann, 
 O. Yazyev, A. J. Austin, R. Cammi, C. Pomelli, J. W. Ochterski, 
 R. L. Martin, K. Morokuma, V. G. Zakrzewski, G. A. Voth, 
 P. Salvador, J. J. Dannenberg, S. Dapprich, A. D. Daniels, 
 O. Farkas, J. B. Foresman, J. V. Ortiz, J. Cioslowski, 
 and D. J. Fox, Gaussian, Inc., Wallingford CT, 2013.
 
 ******************************************
 Gaussian 09:  AM64L-G09RevD.01 24-Apr-2013
                16-Jan-2014 
 ******************************************
 %mem=1800mb
 -----------------------------------------
 # hf/gen pop=mk iop(6/33=2,6/41=5,6/42=2)
 -----------------------------------------
 1/38=1/1;
 2/12=2,17=6,18=5,40=1/2;
 3/5=7,11=9,16=1,25=1,30=1/1,2,3;
 4//1;
 5/5=2,38=5/2;
 6/7=2,8=2,9=2,10=2,15=8,20=1,28=1,33=2,41=5,42=2/1,2;
 99/5=1,9=1/99;
 -------
 na resp
 -------
 Symbolic Z-matrix:
 Charge =  0 Multiplicity = 1
 6                    -1.0157    2.47053  -0.30054 
 6                    -1.6787    1.12414  -0.59894 
 6                    -1.01131  -0.08065   0.117 
 6                     0.4167   -0.29407  -0.37675 
 6                     1.48249  -0.06287   0.38282 
 17                    3.12393  -0.30392  -0.17654 
 6                    -1.78229  -1.31067  -0.16307 
 6                    -2.39609  -2.32799  -0.38026 
 8                    -1.04987   0.21565   1.51693 
 1                     0.02623   2.49121  -0.63571 
 1                    -1.55278   3.27284  -0.8181 
 1                    -1.03327   2.68464   0.77162 
 1                    -2.72711   1.13956  -0.28075 
 1                    -1.67353   0.9208   -1.67632 
 1                     0.52567  -0.64956  -1.39815 
 1                     1.42555   0.30106   1.40085 
 1                    -2.94449  -3.22295  -0.57071 
 1                    -0.84466  -0.60661   1.9914 
 
                          Input orientation:                          
 ---------------------------------------------------------------------
 Center     Atomic      Atomic             Coordinates (Angstroms)
 Number     Number       Type             X           Y           Z
 ---------------------------------------------------------------------
      1          6           0       -1.015701    2.470528   -0.300538
      2          6           0       -1.678702    1.124136   -0.598940
      3          6           0       -1.011309   -0.080649    0.116999
      4          6           0        0.416697   -0.294072   -0.376754
      5          6           0        1.482488   -0.062866    0.382823
      6         17           0        3.123928   -0.303922   -0.176536
      7          6           0       -1.782293   -1.310670   -0.163065
      8          6           0       -2.396085   -2.327986   -0.380260
      9          8           0       -1.049869    0.215646    1.516926
     10          1           0        0.026227    2.491213   -0.635713
     11          1           0       -1.552778    3.272843   -0.818099
     12          1           0       -1.033266    2.684637    0.771618
     13          1           0       -2.727110    1.139564   -0.280752
     14          1           0       -1.673530    0.920804   -1.676324
     15          1           0        0.525668   -0.649563   -1.398150
     16          1           0        1.425546    0.301055    1.400852
     17          1           0       -2.944488   -3.222953   -0.570708
     18          1           0       -0.844663   -0.606611    1.991399
 ---------------------------------------------------------------------
                    Distance matrix (angstroms):
                    1          2          3          4          5
     1  C    0.000000
     2  C    1.530159   0.000000
     3  C    2.585123   1.552253   0.000000
     4  C    3.114576   2.539956   1.525956   0.000000
     5  C    3.622984   3.516526   2.507988   1.329031   0.000000
     6  Cl   4.984925   5.028223   4.151650   2.714643   1.750804
     7  C    3.860573   2.475681   1.478446   2.432014   3.537485
     8  C    4.993751   3.532649   2.686149   3.471104   4.555918
     9  O    2.896349   2.386980   1.431458   2.448806   2.788654
    10  H    1.094707   2.185643   2.873592   2.824418   3.111500
    11  H    1.095459   2.163522   3.523281   4.098353   4.667120
    12  H    1.093467   2.174898   2.841798   3.506260   3.745524
    13  H    2.168128   1.095738   2.142685   3.456595   4.427966
    14  H    2.174206   1.096415   2.158113   2.744787   3.894630
    15  H    3.649046   2.940067   2.231958   1.086967   2.105132
    16  H    3.682530   3.783251   2.780690   2.128811   1.082619
    17  H    6.017386   4.527714   3.752892   4.462457   5.522091
    18  H    3.840705   3.225052   1.953915   2.701270   2.880765
                    6          7          8          9         10
     6  Cl   0.000000
     7  C    5.008466   0.000000
     8  C    5.882931   1.207827   0.000000
     9  O    4.534131   2.385048   3.446981   0.000000
    10  H    4.197544   4.236562   5.399771   3.312105   0.000000
    11  H    5.922536   4.635767   5.680859   3.879654   1.771290
    12  H    5.206990   4.170989   5.320760   2.579084   1.772151
    13  H    6.027367   2.628721   3.484736   2.626482   3.087688
    14  H    5.173482   2.698381   3.571625   3.329121   2.537367
    15  H    2.891844   2.699848   3.519921   3.424700   3.270356
    16  H    2.395548   3.915830   4.968811   2.479606   3.301891
    17  H    6.745501   2.274576   1.066762   4.446545   6.440580
    18  H    4.532249   2.452869   3.315842   0.971257   4.154116
                   11         12         13         14         15
    11  H    0.000000
    12  H    1.772873   0.000000
    13  H    2.493727   2.522665   0.000000
    14  H    2.506635   3.084391   1.762245   0.000000
    15  H    4.476792   4.272594   3.876870   2.716598   0.000000
    16  H    4.756646   3.481832   4.558008   4.411051   3.089962
    17  H    6.647814   6.352498   4.377543   4.473080   4.398747
    18  H    4.841990   3.515075   3.428615   4.058597   3.656323
                   16         17         18
    16  H    0.000000
    17  H    5.950032   0.000000
    18  H    2.515244   4.221244   0.000000
 Stoichiometry    C7H9ClO
 Framework group  C1[X(C7H9ClO)]
 Deg. of freedom    48
 Full point group                 C1      NOp   1
 Largest Abelian subgroup         C1      NOp   1
 Largest concise Abelian subgroup C1      NOp   1
                         Standard orientation:                         
 ---------------------------------------------------------------------
 Center     Atomic      Atomic             Coordinates (Angstroms)
 Number     Number       Type             X           Y           Z
 ---------------------------------------------------------------------
      1          6           0       -1.015701    2.470528   -0.300538
      2          6           0       -1.678702    1.124136   -0.598940
      3          6           0       -1.011309   -0.080649    0.116999
      4          6           0        0.416697   -0.294072   -0.376754
      5          6           0        1.482488   -0.062866    0.382823
      6         17           0        3.123928   -0.303922   -0.176536
      7          6           0       -1.782293   -1.310670   -0.163065
      8          6           0       -2.396085   -2.327986   -0.380260
      9          8           0       -1.049869    0.215646    1.516926
     10          1           0        0.026227    2.491213   -0.635713
     11          1           0       -1.552778    3.272843   -0.818099
     12          1           0       -1.033266    2.684637    0.771618
     13          1           0       -2.727110    1.139564   -0.280752
     14          1           0       -1.673530    0.920804   -1.676324
     15          1           0        0.525668   -0.649563   -1.398150
     16          1           0        1.425546    0.301055    1.400852
     17          1           0       -2.944488   -3.222953   -0.570708
     18          1           0       -0.844663   -0.606611    1.991399
 ---------------------------------------------------------------------
 Rotational constants (GHZ):      1.8148356      0.7905466      0.6362587
 General basis read from cards:  (5D, 7F)
 There are   157 symmetry adapted cartesian basis functions of A   symmetry.
 There are   148 symmetry adapted basis functions of A   symmetry.
   148 basis functions,   312 primitive gaussians,   157 cartesian basis functions
    38 alpha electrons       38 beta electrons
       nuclear repulsion energy       486.0348189366 Hartrees.
 NAtoms=   18 NActive=   18 NUniq=   18 SFac= 1.00D+00 NAtFMM=   60 NAOKFM=F Big=F
 Integral buffers will be    131072 words long.
 Raffenetti 1 integral format.
 Two-electron integral symmetry is turned on.
 One-electron integrals computed using PRISM.
 NBasis=   148 RedAO= T EigKep=  3.89D-04  NBF=   148
 NBsUse=   148 1.00D-06 EigRej= -1.00D+00 NBFU=   148
 ExpMin= 1.43D-01 ExpMax= 2.52D+04 ExpMxC= 3.78D+03 IAcc=1 IRadAn=         1 AccDes= 0.00D+00
 Harris functional with IExCor=  205 and IRadAn=       1 diagonalized for initial guess.
 HarFok:  IExCor=  205 AccDes= 0.00D+00 IRadAn=         1 IDoV= 1 UseB2=F ITyADJ=14
 ICtDFT=  3500011 ScaDFX=  1.000000  1.000000  1.000000  1.000000
 FoFCou: FMM=F IPFlag=           0 FMFlag=      100000 FMFlg1=           0
         NFxFlg=           0 DoJE=T BraDBF=F KetDBF=T FulRan=T
         wScrn=  0.000000 ICntrl=     500 IOpCl=  0 I1Cent=   200000004 NGrid=           0
         NMat0=    1 NMatS0=      1 NMatT0=    0 NMatD0=    1 NMtDS0=    0 NMtDT0=    0
 Petite list used in FoFCou.
 Keep R1 ints in memory in canonical form, NReq=62858548.
 Requested convergence on RMS density matrix=1.00D-08 within 128 cycles.
 Requested convergence on MAX density matrix=1.00D-06.
 Requested convergence on             energy=1.00D-06.
 No special actions if energy rises.
 SCF Done:  E(RHF) =  -804.552395066     A.U. after   15 cycles
            NFock= 15  Conv=0.55D-08     -V/T= 2.0003

 **********************************************************************

            Population analysis using the SCF density.

 **********************************************************************

 Orbital symmetries:
 BldTbl:  Degeneracy threshold= 1.00D-02
       Occupied  (A) (A) (A) (A) (A) (A) (A) (A) (A) (A) (A) (A)
                 (A) (A) (A) (A) (A) (A) (A) (A) (A) (A) (A) (A)
                 (A) (A) (A) (A) (A) (A) (A) (A) (A) (A) (A) (A)
                 (A) (A)
       Virtual   (A) (A) (A) (A) (A) (A) (A) (A) (A) (A) (A) (A)
                 (A) (A) (A) (A) (A) (A) (A) (A) (A) (A) (A) (A)
                 (A) (A) (A) (A) (A) (A) (A) (A) (A) (A) (A) (A)
                 (A) (A) (A) (A) (A) (A) (A) (A) (A) (A) (A) (A)
                 (A) (A) (A) (A) (A) (A) (A) (A) (A) (A) (A) (A)
                 (A) (A) (A) (A) (A) (A) (A) (A) (A) (A) (A) (A)
                 (A) (A) (A) (A) (A) (A) (A) (A) (A) (A) (A) (A)
                 (A) (A) (A) (A) (A) (A) (A) (A) (A) (A) (A) (A)
                 (A) (A) (A) (A) (A) (A) (A) (A) (A) (A) (A) (A)
                 (A) (A)
 The electronic state is 1-A.
 Alpha  occ. eigenvalues -- -104.82020 -20.58073 -11.33486 -11.29906 -11.25771
 Alpha  occ. eigenvalues --  -11.24617 -11.24245 -11.23567 -11.21298 -10.55916
 Alpha  occ. eigenvalues --   -8.02773  -8.02436  -8.02435  -1.38315  -1.15511
 Alpha  occ. eigenvalues --   -1.09653  -1.02772  -1.01650  -0.93062  -0.82777
 Alpha  occ. eigenvalues --   -0.77990  -0.75307  -0.70596  -0.68026  -0.63684
 Alpha  occ. eigenvalues --   -0.60162  -0.59114  -0.56732  -0.54231  -0.51819
 Alpha  occ. eigenvalues --   -0.51238  -0.49905  -0.49121  -0.47579  -0.44841
 Alpha  occ. eigenvalues --   -0.40455  -0.39476  -0.36374
 Alpha virt. eigenvalues --    0.14653   0.17745   0.20254   0.22466   0.24871
 Alpha virt. eigenvalues --    0.25770   0.26137   0.27467   0.30279   0.31593
 Alpha virt. eigenvalues --    0.32119   0.32595   0.34533   0.40216   0.42301
 Alpha virt. eigenvalues --    0.43162   0.44008   0.48148   0.51622   0.58568
 Alpha virt. eigenvalues --    0.61152   0.63721   0.64401   0.65423   0.68876
 Alpha virt. eigenvalues --    0.71050   0.74165   0.74620   0.76153   0.78860
 Alpha virt. eigenvalues --    0.81058   0.84532   0.86018   0.88603   0.89890
 Alpha virt. eigenvalues --    0.91773   0.95097   0.95879   0.98760   1.01033
 Alpha virt. eigenvalues --    1.04165   1.05740   1.08174   1.10131   1.10424
 Alpha virt. eigenvalues --    1.12774   1.13720   1.14497   1.15455   1.15828
 Alpha virt. eigenvalues --    1.16591   1.17987   1.20806   1.22380   1.22984
 Alpha virt. eigenvalues --    1.25132   1.28460   1.30760   1.34483   1.36099
 Alpha virt. eigenvalues --    1.38827   1.40814   1.49037   1.52286   1.53286
 Alpha virt. eigenvalues --    1.54962   1.62840   1.72848   1.74117   1.76196
 Alpha virt. eigenvalues --    1.81162   1.82884   1.83377   1.87816   1.92044
 Alpha virt. eigenvalues --    1.95468   2.03841   2.05532   2.06202   2.10783
 Alpha virt. eigenvalues --    2.16864   2.19926   2.23086   2.26444   2.27026
 Alpha virt. eigenvalues --    2.29365   2.30921   2.34644   2.38031   2.44681
 Alpha virt. eigenvalues --    2.45813   2.49700   2.52575   2.58156   2.62334
 Alpha virt. eigenvalues --    2.66200   2.68819   2.70061   2.77309   2.79933
 Alpha virt. eigenvalues --    2.83912   2.88307   2.95198   3.03825   3.08828
 Alpha virt. eigenvalues --    3.11434   3.23023   3.25868   3.36378   3.82032
          Condensed to atoms (all electrons):
               1          2          3          4          5          6
     1  C    5.139045   0.320720  -0.049736  -0.006458  -0.000744   0.000047
     2  C    0.320720   5.138004   0.391612  -0.074469  -0.003643  -0.000037
     3  C   -0.049736   0.391612   4.739052   0.394483  -0.039531   0.002116
     4  C   -0.006458  -0.074469   0.394483   5.121582   0.599296  -0.079001
     5  C   -0.000744  -0.003643  -0.039531   0.599296   5.178726   0.213184
     6  Cl   0.000047  -0.000037   0.002116  -0.079001   0.213184  16.937525
     7  C    0.005633  -0.088831   0.259447  -0.091270   0.001061  -0.000029
     8  C    0.000086  -0.007985  -0.080990  -0.007507  -0.000327   0.000006
     9  O   -0.001879  -0.055412   0.207201  -0.055139  -0.003100   0.000178
    10  H    0.389802  -0.036844  -0.005230   0.004886   0.001112  -0.000056
    11  H    0.391681  -0.037137   0.004355   0.000035   0.000025  -0.000001
    12  H    0.393262  -0.036096  -0.005216   0.000367   0.000345  -0.000001
    13  H   -0.035464   0.394031  -0.037925   0.005393  -0.000059   0.000002
    14  H   -0.036154   0.391282  -0.038805  -0.000918   0.000344  -0.000005
    15  H    0.000261   0.000933  -0.024878   0.378905  -0.032292  -0.000979
    16  H    0.000102  -0.000008  -0.003059  -0.038280   0.387721  -0.038276
    17  H    0.000001  -0.000068   0.001830  -0.000084  -0.000001   0.000000
    18  H   -0.000164   0.006420  -0.026728   0.000068   0.001344  -0.000062
               7          8          9         10         11         12
     1  C    0.005633   0.000086  -0.001879   0.389802   0.391681   0.393262
     2  C   -0.088831  -0.007985  -0.055412  -0.036844  -0.037137  -0.036096
     3  C    0.259447  -0.080990   0.207201  -0.005230   0.004355  -0.005216
     4  C   -0.091270  -0.007507  -0.055139   0.004886   0.000035   0.000367
     5  C    0.001061  -0.000327  -0.003100   0.001112   0.000025   0.000345
     6  Cl  -0.000029   0.000006   0.000178  -0.000056  -0.000001  -0.000001
     7  C    4.767053   1.081651  -0.047665  -0.000084  -0.000032  -0.000163
     8  C    1.081651   5.154000  -0.004250  -0.000001   0.000000  -0.000007
     9  O   -0.047665  -0.004250   8.483308   0.000152   0.000012   0.003579
    10  H   -0.000084  -0.000001   0.000152   0.522923  -0.026785  -0.026014
    11  H   -0.000032   0.000000   0.000012  -0.026785   0.529817  -0.026038
    12  H   -0.000163  -0.000007   0.003579  -0.026014  -0.026038   0.499227
    13  H   -0.003229   0.000661   0.000794   0.003559  -0.002801  -0.001902
    14  H   -0.002643  -0.000244   0.002651  -0.002212  -0.002844   0.003581
    15  H   -0.000548   0.000576   0.001971   0.000010  -0.000001  -0.000010
    16  H    0.000234   0.000000   0.007608   0.000015   0.000002   0.000017
    17  H    0.022300   0.328846  -0.000035   0.000000   0.000000   0.000000
    18  H   -0.002187   0.000411   0.257420  -0.000030   0.000004  -0.000099
              13         14         15         16         17         18
     1  C   -0.035464  -0.036154   0.000261   0.000102   0.000001  -0.000164
     2  C    0.394031   0.391282   0.000933  -0.000008  -0.000068   0.006420
     3  C   -0.037925  -0.038805  -0.024878  -0.003059   0.001830  -0.026728
     4  C    0.005393  -0.000918   0.378905  -0.038280  -0.000084   0.000068
     5  C   -0.000059   0.000344  -0.032292   0.387721  -0.000001   0.001344
     6  Cl   0.000002  -0.000005  -0.000979  -0.038276   0.000000  -0.000062
     7  C   -0.003229  -0.002643  -0.000548   0.000234   0.022300  -0.002187
     8  C    0.000661  -0.000244   0.000576   0.000000   0.328846   0.000411
     9  O    0.000794   0.002651   0.001971   0.007608  -0.000035   0.257420
    10  H    0.003559  -0.002212   0.000010   0.000015   0.000000  -0.000030
    11  H   -0.002801  -0.002844  -0.000001   0.000002   0.000000   0.000004
    12  H   -0.001902   0.003581  -0.000010   0.000017   0.000000  -0.000099
    13  H    0.510021  -0.025590  -0.000101  -0.000003  -0.000004  -0.000272
    14  H   -0.025590   0.538728   0.000520  -0.000003  -0.000005  -0.000161
    15  H   -0.000101   0.000520   0.440843   0.002147   0.000001  -0.000018
    16  H   -0.000003  -0.000003   0.002147   0.428486   0.000000  -0.000315
    17  H   -0.000004  -0.000005   0.000001   0.000000   0.343335  -0.000016
    18  H   -0.000272  -0.000161  -0.000018  -0.000315  -0.000016   0.306111
 Mulliken charges:
               1
     1  C   -0.510042
     2  C   -0.302474
     3  C    0.312005
     4  C   -0.151890
     5  C   -0.303460
     6  Cl  -0.034610
     7  C    0.099302
     8  C   -0.464926
     9  O   -0.797394
    10  H    0.174798
    11  H    0.169708
    12  H    0.195167
    13  H    0.192890
    14  H    0.172477
    15  H    0.232662
    16  H    0.253612
    17  H    0.303899
    18  H    0.458275
 Sum of Mulliken charges =   0.00000
 Mulliken charges with hydrogens summed into heavy atoms:
               1
     1  C    0.029631
     2  C    0.062893
     3  C    0.312005
     4  C    0.080773
     5  C   -0.049848
     6  Cl  -0.034610
     7  C    0.099302
     8  C   -0.161027
     9  O   -0.339119
 DipInt: DoE/N= T F RetVal/Mat= T F Init=T NMatP=  1 IDeriv=0 Min/MaxMlt=  0  4
 Entering OneElI...
 OneElI was handed   235863983 working-precision words.
 Multipole integrals L=0 to 4 MinM= 0 MaxM= 0.
 Requested accuracy = 0.1000D-12
 ShPair: Thresh= 1.00D-13 NBox=     0 BxSize= 0.00D+00 RnKept= 1.27D+01
         NSMCal=                 1540 NSMKep=                1447
 PrsmSu:  NPrtUS=   1 ThrOK=F IAlg=1 NPAlg=1 LenDen=           0.
 Prism:   IPart=     0 DynPar=F LinDyn=F Incr=          14.
 PRISM was handed   235728651 working-precision words and  1447 shell-pairs
 IPart=  0 NShTot=        1447 NBatch=          68 AvBLen=        21.3
 PrSmSu:  NxtVal=             15.
 Electronic moments (au):
        -76.00000000         -0.64469008         -0.40904212         -0.07679822
      -1109.95567381       -496.59174114       -176.87268454          3.11189371
          2.31522244         -1.09092376      -2164.02480356       -342.40811030
       -176.67251722       1329.70582520        843.95101351        318.48382262
        210.66708432        -63.12402687        295.44823440         10.13713253
     -31016.77184911     -11127.39020322      -1494.69205568       -796.80327079
        119.64970024      -1318.73360874        134.81810770        251.66601332
         -2.56282220      -6280.18803156      -1532.07660280       -833.97061334
       -418.55714179       -956.99253073        122.95244071
 Electronic spatial extent (au):  <R**2>=           1783.4201
 DipInt: DoE/N= F T RetVal/Mat= T F Init=T NMatP=  1 IDeriv=0 Min/MaxMlt=  0  4
 Nuclear    moments (au):
         76.00000000          0.00000000          0.00000000          0.00000000
       1060.95835592        453.84900589        132.98344823          0.00000000
          0.00005498          0.00002614       2150.69744540        319.95843740
        193.66183881      -1355.76864096       -858.08079998       -322.10594861
       -200.20976060         56.44710125       -297.46018720         -9.24128187
      27118.45381424       9475.89962571        968.56114463        888.15316560
       -129.29410625       1490.95001932        -92.64283148       -273.10414011
        -26.48348628       5492.15978597        773.11788734        437.21641929
        450.91716035        991.27539611       -119.41378381
 Total      moments (au):
          0.00000000         -0.64469008         -0.40904212         -0.07679822
        -48.99731789        -42.74273525        -43.88923631          3.11189371
          2.31527742         -1.09089762        -13.32735816        -22.44967290
         16.98932159        -26.06281576        -14.12978647         -3.62212599
         10.45732372         -6.67692561         -2.01195279          0.89585067
      -3898.31803486      -1651.49057751       -526.13091105         91.34989481
         -9.64440601        172.21641058         42.17527623        -21.43812679
        -29.04630849       -788.02824558       -758.95871547       -396.75419404
         32.36001856         34.28286538          3.53865690
 Traceless Quadrup. (au):
         -3.78755474          2.46702790          1.32052684          3.11189371
          2.31527742         -1.09089762
 Charge=              0.0000 electrons
 Dipole moment (field-independent basis, Debye):
    X=             -1.6386    Y=             -1.0397    Z=             -0.1952  Tot=              1.9504
 Quadrupole moment (field-independent basis, Debye-Ang):
   XX=            -65.9031   YY=            -57.4904   ZZ=            -59.0325
   XY=              4.1856   XZ=              3.1141   YZ=             -1.4673
 Traceless Quadrupole moment (field-independent basis, Debye-Ang):
   XX=             -5.0944   YY=              3.3182   ZZ=              1.7762
   XY=              4.1856   XZ=              3.1141   YZ=             -1.4673
 Octapole moment (field-independent basis, Debye-Ang**2):
  XXX=             -9.4859  YYY=            -15.9788  ZZZ=             12.0923  XYY=            -18.5505
  XXY=            -10.0570  XXZ=             -2.5781  XZZ=              7.4431  YZZ=             -4.7524
  YYZ=             -1.4320  XYZ=              0.6376
 Hexadecapole moment (field-independent basis, Debye-Ang**3):
 XXXX=          -1468.2934 YYYY=           -622.0305 ZZZZ=           -198.1661 XXXY=             34.4067
 XXXZ=             -3.6325 YYYX=             64.8650 YYYZ=             15.8852 ZZZX=             -8.0746
 ZZZY=            -10.9402 XXYY=           -296.8092 XXZZ=           -285.8602 YYZZ=           -149.4366
 XXYZ=             12.1883 YYXZ=             12.9126 ZZXY=              1.3328
 N-N= 4.860348189366D+02 E-N=-2.872971344409D+03  KE= 8.043355138494D+02
 Entering OneElI...
 OneElI was handed   235878533 working-precision words.
 Calculate electrostatic properties
    NBasis =   148  MinDer = 0  MaxDer = 0
    NGrid  =    18  NMatD  =   1
 Requested accuracy = 0.1000D-12
 ShPair: Thresh= 1.00D-13 NBox=     0 BxSize= 0.00D+00 RnKept= 1.27D+01
         NSMCal=                 1540 NSMKep=                1376
 PrsmSu:  NPrtUS=   1 ThrOK=F IAlg=1 NPAlg=1 LenDen=           0.
 Prism:   IPart=     0 DynPar=F LinDyn=F Incr=         247.
 PRISM was handed   235752339 working-precision words and  1376 shell-pairs
 IPart=  0 NShTot=       24768 NBatch=        1377 AvBLen=        18.0
 PrSmSu:  NxtVal=            248.
 --------------------------------------------------------
       Center         ----      EFG at Nuclei      ----
                      3XX-RR        3YY-RR        3ZZ-RR
 --------------------------------------------------------
     1   Atom        0.009150     -0.052334      0.043183
     2   Atom        0.026099     -0.049938      0.023839
     3   Atom        0.134554      0.113586     -0.248140
     4   Atom        0.137885     -0.245158      0.107274
     5   Atom       -0.159959     -0.065752      0.225711
     6   Atom       -2.949769      1.607440      1.342329
     7   Atom       -0.047397      0.142515     -0.095118
     8   Atom        0.007403      0.143528     -0.150932
     9   Atom        1.805325     -0.194379     -1.610946
    10   Atom       -0.253572      0.143574      0.109998
    11   Atom        0.041025     -0.092843      0.051818
    12   Atom        0.149961      0.128847     -0.278808
    13   Atom       -0.252788      0.138041      0.114747
    14   Atom        0.150822      0.124557     -0.275379
    15   Atom        0.136068      0.113791     -0.249859
    16   Atom        0.140643      0.113695     -0.254338
    17   Atom        0.036867     -0.189921      0.153053
    18   Atom        0.221202     -0.257331      0.036128
 --------------------------------------------------------
                        XY            XZ            YZ
 --------------------------------------------------------
     1   Atom       -0.025340     -0.011578     -0.006058
     2   Atom        0.061029     -0.043228      0.046885
     3   Atom       -0.102039      0.014502     -0.141304
     4   Atom        0.004212      0.041418      0.139214
     5   Atom        0.080790      0.247208      0.103458
     6   Atom        0.693548      1.608599     -0.160048
     7   Atom        0.183300      0.037298      0.069597
     8   Atom        0.137089      0.037310      0.061396
     9   Atom        0.526467     -0.187268      0.493164
    10   Atom       -0.009923      0.132004     -0.000118
    11   Atom        0.158018     -0.107458      0.154253
    12   Atom       -0.002003      0.007625     -0.089655
    13   Atom        0.007962      0.121669      0.001577
    14   Atom        0.004935      0.002414     -0.077493
    15   Atom        0.014819      0.040132     -0.142425
    16   Atom        0.003927      0.017523     -0.147507
    17   Atom       -0.222054     -0.047006     -0.076664
    18   Atom        0.127241     -0.068066      0.263650
 --------------------------------------------------------


 ---------------------------------------------------------------------------------
              Nuclear Quadrupole Coupling Constant in Principal Axis System
 ---------------------------------------------------------------------------------

       Atom             a.u.   MegaHertz   Gauss  10(-4) cm-1        Axes

              Baa    -3.5825   -68.729   -24.524   -22.926  0.9405 -0.1353 -0.3116
     6 Cl(35) Bbb     1.6815    32.260    11.511    10.761  0.0205  0.9382 -0.3455
              Bcc     1.9009    36.469    13.013    12.165  0.3391  0.3186  0.8852
 

 ---------------------------------------------------------------------------------

 No NMR shielding tensors so no spin-rotation constants.
 Leave Link  601 at Thu Jan 16 21:47:03 2014, MaxMem=   235929600 cpu:         0.2
 FitSet:  NAtFit=    18 NAtPot=    18 NAtFrz=     0 MDM=    22 TotChg=   0.00000
 Merz-Kollman atomic radii used.
 Atom Element Radius
    1     6    1.50
    2     6    1.50
    3     6    1.50
    4     6    1.50
    5     6    1.50
    6    17    1.70
    7     6    1.50
    8     6    1.50
    9     8    1.40
   10     1    1.20
   11     1    1.20
   12     1    1.20
   13     1    1.20
   14     1    1.20
   15     1    1.20
   16     1    1.20
   17     1    1.20
   18     1    1.20
 Generate VDW surfaces: Layer= 5 Dens= 2 Start= 1.400 Inc= 0.179

 **********************************************************************

            Electrostatic Properties Using The SCF Density

 **********************************************************************

       Atomic Center    1 is at  -1.015701  2.470528 -0.300538
       Atomic Center    2 is at  -1.678702  1.124136 -0.598940
       Atomic Center    3 is at  -1.011309 -0.080649  0.116999
       Atomic Center    4 is at   0.416697 -0.294072 -0.376754
       Atomic Center    5 is at   1.482488 -0.062866  0.382823
       Atomic Center    6 is at   3.123928 -0.303922 -0.176536
       Atomic Center    7 is at  -1.782293 -1.310670 -0.163065
       Atomic Center    8 is at  -2.396085 -2.327986 -0.380260
       Atomic Center    9 is at  -1.049869  0.215646  1.516926
       Atomic Center   10 is at   0.026227  2.491213 -0.635713
       Atomic Center   11 is at  -1.552778  3.272843 -0.818099
       Atomic Center   12 is at  -1.033266  2.684637  0.771618
       Atomic Center   13 is at  -2.727110  1.139564 -0.280752
       Atomic Center   14 is at  -1.673530  0.920804 -1.676324
       Atomic Center   15 is at   0.525668 -0.649563 -1.398150
       Atomic Center   16 is at   1.425546  0.301055  1.400852
       Atomic Center   17 is at  -2.944488 -3.222953 -0.570708
       Atomic Center   18 is at  -0.844663 -0.606611  1.991399
      ESP Fit Center   19 is at  -2.487022  3.539506  0.749462
      ESP Fit Center   20 is at  -2.794612  2.848647  0.749462
      ESP Fit Center   21 is at  -0.093871  4.321812  0.064123
      ESP Fit Center   22 is at  -0.824881  4.529802  0.064123
      ESP Fit Center   23 is at  -3.048584  2.850540  0.064123
      ESP Fit Center   24 is at  -0.093871  4.321812 -0.665199
      ESP Fit Center   25 is at  -0.656580  3.092544 -2.273893
      ESP Fit Center   26 is at  -1.015701  2.470528 -2.400538
      ESP Fit Center   27 is at  -3.150023  2.193114 -1.648940
      ESP Fit Center   28 is at  -3.150023  0.055158 -1.648940
      ESP Fit Center   29 is at   0.226596 -2.102763  0.673246
      ESP Fit Center   30 is at   0.607517 -2.353346 -0.012093
      ESP Fit Center   31 is at   1.338527 -2.145356 -0.012093
      ESP Fit Center   32 is at   0.607517 -2.353346 -0.741415
      ESP Fit Center   33 is at   1.338527 -2.145356 -0.741415
      ESP Fit Center   34 is at   0.977447  0.933798 -1.985447
      ESP Fit Center   35 is at   0.224593  1.042042 -1.985447
      ESP Fit Center   36 is at   1.290384 -1.398981  1.991516
      ESP Fit Center   37 is at   2.043238 -1.290737  1.991516
      ESP Fit Center   38 is at   0.573161 -1.637866  1.432823
      ESP Fit Center   39 is at   1.292387 -1.871557  1.432823
      ESP Fit Center   40 is at   2.044483 -1.792508  1.432823
      ESP Fit Center   41 is at   2.404318  1.788418  0.747484
      ESP Fit Center   42 is at   1.673308  1.996408  0.747484
      ESP Fit Center   43 is at   0.916527  1.926282  0.747484
      ESP Fit Center   44 is at   0.916527 -2.052014  0.747484
      ESP Fit Center   45 is at   1.673308 -2.122140  0.747484
      ESP Fit Center   46 is at   1.673308  1.996408  0.018162
      ESP Fit Center   47 is at   3.123928 -0.303922  2.203464
      ESP Fit Center   48 is at   3.859388 -0.303922  2.086978
      ESP Fit Center   49 is at   3.491658  0.333005  2.086978
      ESP Fit Center   50 is at   2.756198 -0.940850  2.086978
      ESP Fit Center   51 is at   3.491658 -0.940850  2.086978
      ESP Fit Center   52 is at   4.522857 -0.303922  1.748924
      ESP Fit Center   53 is at   4.335436  0.395542  1.748924
      ESP Fit Center   54 is at   3.823392  0.907586  1.748924
      ESP Fit Center   55 is at   3.123928  1.095007  1.748924
      ESP Fit Center   56 is at   2.424464 -1.515430  1.748924
      ESP Fit Center   57 is at   3.123928 -1.702851  1.748924
      ESP Fit Center   58 is at   3.823392 -1.515430  1.748924
      ESP Fit Center   59 is at   4.335436 -1.003387  1.748924
      ESP Fit Center   60 is at   5.049388 -0.303922  1.222393
      ESP Fit Center   61 is at   4.902821  0.432919  1.222393
      ESP Fit Center   62 is at   4.485434  1.057584  1.222393
      ESP Fit Center   63 is at   3.860770  1.474971  1.222393
      ESP Fit Center   64 is at   3.123928  1.621538  1.222393
      ESP Fit Center   65 is at   2.387086 -2.082816  1.222393
      ESP Fit Center   66 is at   3.123928 -2.229383  1.222393
      ESP Fit Center   67 is at   3.860770 -2.082816  1.222393
      ESP Fit Center   68 is at   4.485434 -1.665428  1.222393
      ESP Fit Center   69 is at   4.902821 -1.040764  1.222393
      ESP Fit Center   70 is at   5.387442 -0.303922  0.558924
      ESP Fit Center   71 is at   5.264799  0.431040  0.558924
      ESP Fit Center   72 is at   4.910159  1.086357  0.558924
      ESP Fit Center   73 is at   4.361953  1.591016  0.558924
      ESP Fit Center   74 is at   3.679588  1.890329  0.558924
      ESP Fit Center   75 is at   2.937008  1.951861  0.558924
      ESP Fit Center   76 is at   2.214685 -2.376789  0.558924
      ESP Fit Center   77 is at   2.937008 -2.559706  0.558924
      ESP Fit Center   78 is at   3.679588 -2.498174  0.558924
      ESP Fit Center   79 is at   4.361953 -2.198861  0.558924
      ESP Fit Center   80 is at   4.910159 -1.694202  0.558924
      ESP Fit Center   81 is at   5.264799 -1.038884  0.558924
      ESP Fit Center   82 is at   5.503928 -0.303922 -0.176536
      ESP Fit Center   83 is at   5.398191  0.397595 -0.176536
      ESP Fit Center   84 is at   5.090376  1.036779 -0.176536
      ESP Fit Center   85 is at   4.607834  1.556837 -0.176536
      ESP Fit Center   86 is at   3.993440  1.911557 -0.176536
      ESP Fit Center   87 is at   3.301786  2.069423 -0.176536
      ESP Fit Center   88 is at   2.594328  2.016406 -0.176536
      ESP Fit Center   89 is at   1.933928 -2.365063 -0.176536
      ESP Fit Center   90 is at   2.594328 -2.624251 -0.176536
      ESP Fit Center   91 is at   3.301786 -2.677267 -0.176536
      ESP Fit Center   92 is at   3.993440 -2.519402 -0.176536
      ESP Fit Center   93 is at   4.607834 -2.164681 -0.176536
      ESP Fit Center   94 is at   5.090376 -1.644624 -0.176536
      ESP Fit Center   95 is at   5.398191 -1.005440 -0.176536
      ESP Fit Center   96 is at   5.387442 -0.303922 -0.911997
      ESP Fit Center   97 is at   5.264799  0.431040 -0.911997
      ESP Fit Center   98 is at   4.910159  1.086357 -0.911997
      ESP Fit Center   99 is at   4.361953  1.591016 -0.911997
      ESP Fit Center  100 is at   3.679588  1.890329 -0.911997
      ESP Fit Center  101 is at   2.937008  1.951861 -0.911997
      ESP Fit Center  102 is at   2.214685  1.768944 -0.911997
      ESP Fit Center  103 is at   1.590891 -1.969244 -0.911997
      ESP Fit Center  104 is at   2.214685 -2.376789 -0.911997
      ESP Fit Center  105 is at   2.937008 -2.559706 -0.911997
      ESP Fit Center  106 is at   3.679588 -2.498174 -0.911997
      ESP Fit Center  107 is at   4.361953 -2.198861 -0.911997
      ESP Fit Center  108 is at   4.910159 -1.694202 -0.911997
      ESP Fit Center  109 is at   5.264799 -1.038884 -0.911997
      ESP Fit Center  110 is at   5.049388 -0.303922 -1.575465
      ESP Fit Center  111 is at   4.902821  0.432919 -1.575465
      ESP Fit Center  112 is at   4.485434  1.057584 -1.575465
      ESP Fit Center  113 is at   3.860770  1.474971 -1.575465
      ESP Fit Center  114 is at   3.123928  1.621538 -1.575465
      ESP Fit Center  115 is at   2.387086  1.474971 -1.575465
      ESP Fit Center  116 is at   1.762422  1.057584 -1.575465
      ESP Fit Center  117 is at   2.387086 -2.082816 -1.575465
      ESP Fit Center  118 is at   3.123928 -2.229383 -1.575465
      ESP Fit Center  119 is at   3.860770 -2.082816 -1.575465
      ESP Fit Center  120 is at   4.485434 -1.665428 -1.575465
      ESP Fit Center  121 is at   4.902821 -1.040764 -1.575465
      ESP Fit Center  122 is at   4.522857 -0.303922 -2.101997
      ESP Fit Center  123 is at   4.335436  0.395542 -2.101997
      ESP Fit Center  124 is at   3.823392  0.907586 -2.101997
      ESP Fit Center  125 is at   3.123928  1.095007 -2.101997
      ESP Fit Center  126 is at   2.424464  0.907586 -2.101997
      ESP Fit Center  127 is at   1.912420  0.395542 -2.101997
      ESP Fit Center  128 is at   2.424464 -1.515430 -2.101997
      ESP Fit Center  129 is at   3.123928 -1.702851 -2.101997
      ESP Fit Center  130 is at   3.823392 -1.515430 -2.101997
      ESP Fit Center  131 is at   4.335436 -1.003387 -2.101997
      ESP Fit Center  132 is at   3.859388 -0.303922 -2.440051
      ESP Fit Center  133 is at   3.491658  0.333005 -2.440051
      ESP Fit Center  134 is at   2.756198  0.333005 -2.440051
      ESP Fit Center  135 is at   2.388468 -0.303922 -2.440051
      ESP Fit Center  136 is at   2.756198 -0.940850 -2.440051
      ESP Fit Center  137 is at   3.491658 -0.940850 -2.440051
      ESP Fit Center  138 is at   3.123928 -0.303922 -2.556536
      ESP Fit Center  139 is at  -2.500535 -1.310670  1.810289
      ESP Fit Center  140 is at  -2.141414 -1.932686  1.810289
      ESP Fit Center  141 is at  -3.077469 -0.930372  1.445628
      ESP Fit Center  142 is at  -1.221543 -2.538540  1.445628
      ESP Fit Center  143 is at  -3.253615 -0.241692  0.886935
      ESP Fit Center  144 is at  -3.561205 -0.932551  0.886935
      ESP Fit Center  145 is at  -0.565376 -2.662193  0.886935
      ESP Fit Center  146 is at  -0.120871 -2.050383  0.886935
      ESP Fit Center  147 is at  -0.253951 -2.703937  0.201596
      ESP Fit Center  148 is at  -0.253951 -2.703937 -0.527726
      ESP Fit Center  149 is at  -3.253615 -0.241692 -1.213065
      ESP Fit Center  150 is at  -0.646724 -2.040456 -1.771758
      ESP Fit Center  151 is at  -1.064051 -1.310670 -2.136420
      ESP Fit Center  152 is at  -1.423172 -0.688654 -2.136420
      ESP Fit Center  153 is at  -2.141414 -0.688654 -2.136420
      ESP Fit Center  154 is at  -1.782293 -1.310670 -2.263065
      ESP Fit Center  155 is at  -2.396085 -2.327986  1.719740
      ESP Fit Center  156 is at  -3.114327 -2.327986  1.593094
      ESP Fit Center  157 is at  -2.755206 -2.950002  1.593094
      ESP Fit Center  158 is at  -2.036964 -2.950002  1.593094
      ESP Fit Center  159 is at  -3.691261 -1.947688  1.228433
      ESP Fit Center  160 is at  -3.691261 -2.708284  1.228433
      ESP Fit Center  161 is at  -3.280052 -3.348138  1.228433
      ESP Fit Center  162 is at  -2.588189 -3.664100  1.228433
      ESP Fit Center  163 is at  -1.835336 -3.555856  1.228433
      ESP Fit Center  164 is at  -1.260516 -3.057772  1.228433
      ESP Fit Center  165 is at  -3.867407 -1.259008  0.669740
      ESP Fit Center  166 is at  -4.174997 -1.949867  0.669740
      ESP Fit Center  167 is at  -4.174997 -2.706105  0.669740
      ESP Fit Center  168 is at  -1.834090 -4.057628  0.669740
      ESP Fit Center  169 is at  -1.179169 -3.679509  0.669740
      ESP Fit Center  170 is at  -0.734663 -3.067699  0.669740
      ESP Fit Center  171 is at  -4.154416 -1.239274 -0.015599
      ESP Fit Center  172 is at  -4.428968 -1.947974 -0.015599
      ESP Fit Center  173 is at  -1.474255 -4.179270 -0.015599
      ESP Fit Center  174 is at  -0.867744 -3.721253 -0.015599
      ESP Fit Center  175 is at  -0.467643 -3.075068 -0.015599
      ESP Fit Center  176 is at  -4.154416 -1.239274 -0.744921
      ESP Fit Center  177 is at  -4.428968 -1.947974 -0.744921
      ESP Fit Center  178 is at  -1.474255 -4.179270 -0.744921
      ESP Fit Center  179 is at  -0.867744 -3.721253 -0.744921
      ESP Fit Center  180 is at  -0.467643 -3.075068 -0.744921
      ESP Fit Center  181 is at  -3.867407 -1.259008 -1.430260
      ESP Fit Center  182 is at  -4.174997 -1.949867 -1.430260
      ESP Fit Center  183 is at  -1.179169 -3.679509 -1.430260
      ESP Fit Center  184 is at  -0.734663 -3.067699 -1.430260
      ESP Fit Center  185 is at  -1.046231 -2.327986 -1.988953
      ESP Fit Center  186 is at  -3.280052 -1.307834 -1.988953
      ESP Fit Center  187 is at  -3.691261 -1.947688 -1.988953
      ESP Fit Center  188 is at  -3.691261 -2.708284 -1.988953
      ESP Fit Center  189 is at  -1.835336 -3.555856 -1.988953
      ESP Fit Center  190 is at  -1.260516 -3.057772 -1.988953
      ESP Fit Center  191 is at  -1.677843 -2.327986 -2.353615
      ESP Fit Center  192 is at  -2.036964 -1.705970 -2.353615
      ESP Fit Center  193 is at  -2.755206 -1.705970 -2.353615
      ESP Fit Center  194 is at  -3.114327 -2.327986 -2.353615
      ESP Fit Center  195 is at  -2.755206 -2.950002 -2.353615
      ESP Fit Center  196 is at  -2.036964 -2.950002 -2.353615
      ESP Fit Center  197 is at  -2.396085 -2.327986 -2.480260
      ESP Fit Center  198 is at  -1.049869  0.215646  3.476926
      ESP Fit Center  199 is at  -0.674839  0.865217  3.327730
      ESP Fit Center  200 is at  -1.424899  0.865217  3.327730
      ESP Fit Center  201 is at  -1.799929  0.215646  3.327730
      ESP Fit Center  202 is at   0.336060  0.215646  2.902855
      ESP Fit Center  203 is at   0.150381  0.908611  2.902855
      ESP Fit Center  204 is at  -0.356904  1.415896  2.902855
      ESP Fit Center  205 is at  -1.049869  1.601575  2.902855
      ESP Fit Center  206 is at  -1.742834  1.415896  2.902855
      ESP Fit Center  207 is at  -2.250119  0.908611  2.902855
      ESP Fit Center  208 is at  -2.435798  0.215646  2.902855
      ESP Fit Center  209 is at  -2.250119 -0.477319  2.902855
      ESP Fit Center  210 is at   0.161795  1.561335  2.266985
      ESP Fit Center  211 is at  -0.490300  1.937823  2.266985
      ESP Fit Center  212 is at  -1.955271  1.783848  2.266985
      ESP Fit Center  213 is at  -2.514840  1.280010  2.266985
      ESP Fit Center  214 is at  -2.821102  0.592133  2.266985
      ESP Fit Center  215 is at  -2.821102 -0.160841  2.266985
      ESP Fit Center  216 is at  -2.514840 -0.848718  2.266985
      ESP Fit Center  217 is at  -2.716295  1.247453  1.516926
      ESP Fit Center  218 is at  -2.976496  0.575795  1.516926
      ESP Fit Center  219 is at  -2.976496 -0.144503  1.516926
      ESP Fit Center  220 is at   0.755152  2.491213  0.877915
      ESP Fit Center  221 is at   1.339704  2.491213  0.411750
      ESP Fit Center  222 is at   1.088852  3.263255  0.411750
      ESP Fit Center  223 is at   1.664106  2.491213 -0.261878
      ESP Fit Center  224 is at   1.476497  3.252373 -0.261878
      ESP Fit Center  225 is at   0.956648  3.839161 -0.261878
      ESP Fit Center  226 is at   1.664106  2.491213 -1.009548
      ESP Fit Center  227 is at   1.476497  3.252373 -1.009548
      ESP Fit Center  228 is at   0.956648  3.839161 -1.009548
      ESP Fit Center  229 is at   0.223652  4.117150 -1.009548
      ESP Fit Center  230 is at   1.476497  1.730053 -1.009548
      ESP Fit Center  231 is at   1.339704  2.491213 -1.683176
      ESP Fit Center  232 is at   1.088852  3.263255 -1.683176
      ESP Fit Center  233 is at   0.432114  3.740404 -1.683176
      ESP Fit Center  234 is at   1.088852  1.719171 -1.683176
      ESP Fit Center  235 is at   0.755152  2.491213 -2.149341
      ESP Fit Center  236 is at   0.390690  3.122480 -2.149341
      ESP Fit Center  237 is at   0.390690  1.859946 -2.149341
      ESP Fit Center  238 is at   0.026227  2.491213 -2.315713
      ESP Fit Center  239 is at  -1.146891  4.522034  0.229364
      ESP Fit Center  240 is at  -1.958664  4.522034  0.229364
      ESP Fit Center  241 is at  -2.615403  4.044885  0.229364
      ESP Fit Center  242 is at  -0.622357  4.620791 -0.444264
      ESP Fit Center  243 is at  -1.355353  4.898780 -0.444264
      ESP Fit Center  244 is at  -2.133578  4.804286 -0.444264
      ESP Fit Center  245 is at  -2.778748  4.358958 -0.444264
      ESP Fit Center  246 is at  -3.143063  3.664813 -0.444264
      ESP Fit Center  247 is at  -3.143063  2.880873 -0.444264
      ESP Fit Center  248 is at  -0.622357  4.620791 -1.191934
      ESP Fit Center  249 is at  -1.355353  4.898780 -1.191934
      ESP Fit Center  250 is at  -2.133578  4.804286 -1.191934
      ESP Fit Center  251 is at  -2.778748  4.358958 -1.191934
      ESP Fit Center  252 is at  -3.143063  3.664813 -1.191934
      ESP Fit Center  253 is at  -3.143063  2.880873 -1.191934
      ESP Fit Center  254 is at  -0.490153  4.044885 -1.865562
      ESP Fit Center  255 is at  -1.146891  4.522034 -1.865562
      ESP Fit Center  256 is at  -1.958664  4.522034 -1.865562
      ESP Fit Center  257 is at  -2.615403  4.044885 -1.865562
      ESP Fit Center  258 is at  -2.866255  3.272843 -1.865562
      ESP Fit Center  259 is at  -0.823853  3.272843 -2.331727
      ESP Fit Center  260 is at  -1.188315  3.904110 -2.331727
      ESP Fit Center  261 is at  -1.917240  3.904110 -2.331727
      ESP Fit Center  262 is at  -2.281702  3.272843 -2.331727
      ESP Fit Center  263 is at  -1.917240  2.641576 -2.331727
      ESP Fit Center  264 is at  -1.552778  3.272843 -2.498099
      ESP Fit Center  265 is at  -1.033266  2.684637  2.451618
      ESP Fit Center  266 is at  -0.304341  2.684637  2.285246
      ESP Fit Center  267 is at  -0.668803  3.315904  2.285246
      ESP Fit Center  268 is at  -1.397728  3.315904  2.285246
      ESP Fit Center  269 is at  -1.762190  2.684637  2.285246
      ESP Fit Center  270 is at  -1.397728  2.053370  2.285246
      ESP Fit Center  271 is at  -0.668803  2.053370  2.285246
      ESP Fit Center  272 is at   0.280211  2.684637  1.819081
      ESP Fit Center  273 is at   0.029359  3.456679  1.819081
      ESP Fit Center  274 is at  -0.627379  3.933828  1.819081
      ESP Fit Center  275 is at  -1.439152  3.933828  1.819081
      ESP Fit Center  276 is at  -2.095891  3.456679  1.819081
      ESP Fit Center  277 is at  -2.346743  2.684637  1.819081
      ESP Fit Center  278 is at  -2.095891  1.912595  1.819081
      ESP Fit Center  279 is at   0.029359  1.912595  1.819081
      ESP Fit Center  280 is at   0.604613  2.684637  1.145453
      ESP Fit Center  281 is at   0.417004  3.445797  1.145453
      ESP Fit Center  282 is at  -0.102845  4.032585  1.145453
      ESP Fit Center  283 is at  -0.835841  4.310574  1.145453
      ESP Fit Center  284 is at  -1.614066  4.216080  1.145453
      ESP Fit Center  285 is at  -2.259236  3.770752  1.145453
      ESP Fit Center  286 is at  -2.623551  3.076607  1.145453
      ESP Fit Center  287 is at  -2.623551  2.292667  1.145453
      ESP Fit Center  288 is at   0.417004  1.923477  1.145453
      ESP Fit Center  289 is at  -3.091572  1.770831  1.232876
      ESP Fit Center  290 is at  -3.456035  1.139564  1.232876
      ESP Fit Center  291 is at  -3.091572  0.508297  1.232876
      ESP Fit Center  292 is at  -3.132997  2.388755  0.766711
      ESP Fit Center  293 is at  -3.789735  1.911606  0.766711
      ESP Fit Center  294 is at  -4.040587  1.139564  0.766711
      ESP Fit Center  295 is at  -3.789735  0.367522  0.766711
      ESP Fit Center  296 is at  -3.307910  2.671007  0.093083
      ESP Fit Center  297 is at  -3.953080  2.225679  0.093083
      ESP Fit Center  298 is at  -4.317395  1.531534  0.093083
      ESP Fit Center  299 is at  -4.317395  0.747594  0.093083
      ESP Fit Center  300 is at  -3.953080  0.053449  0.093083
      ESP Fit Center  301 is at  -3.307910  2.671007 -0.654587
      ESP Fit Center  302 is at  -3.953080  2.225679 -0.654587
      ESP Fit Center  303 is at  -4.317395  1.531534 -0.654587
      ESP Fit Center  304 is at  -4.317395  0.747594 -0.654587
      ESP Fit Center  305 is at  -3.953080  0.053449 -0.654587
      ESP Fit Center  306 is at  -3.789735  1.911606 -1.328215
      ESP Fit Center  307 is at  -4.040587  1.139564 -1.328215
      ESP Fit Center  308 is at  -3.789735  0.367522 -1.328215
      ESP Fit Center  309 is at  -3.456035  1.139564 -1.794380
      ESP Fit Center  310 is at  -0.035651  0.920804 -2.050159
      ESP Fit Center  311 is at  -3.263815  1.312774 -2.050159
      ESP Fit Center  312 is at  -3.263815  0.528834 -2.050159
      ESP Fit Center  313 is at  -2.899500 -0.165311 -2.050159
      ESP Fit Center  314 is at  -0.360053  0.920804 -2.723787
      ESP Fit Center  315 is at  -0.610905  1.692846 -2.723787
      ESP Fit Center  316 is at  -1.267643  2.169995 -2.723787
      ESP Fit Center  317 is at  -2.079417  2.169995 -2.723787
      ESP Fit Center  318 is at  -2.736155  1.692846 -2.723787
      ESP Fit Center  319 is at  -2.987007  0.920804 -2.723787
      ESP Fit Center  320 is at  -2.736155  0.148762 -2.723787
      ESP Fit Center  321 is at  -2.079417 -0.328387 -2.723787
      ESP Fit Center  322 is at  -1.267643 -0.328387 -2.723787
      ESP Fit Center  323 is at  -0.610905  0.148762 -2.723787
      ESP Fit Center  324 is at  -0.944605  0.920804 -3.189952
      ESP Fit Center  325 is at  -1.309068  1.552071 -3.189952
      ESP Fit Center  326 is at  -2.037992  1.552071 -3.189952
      ESP Fit Center  327 is at  -2.402455  0.920804 -3.189952
      ESP Fit Center  328 is at  -2.037992  0.289537 -3.189952
      ESP Fit Center  329 is at  -1.309068  0.289537 -3.189952
      ESP Fit Center  330 is at  -1.673530  0.920804 -3.356324
      ESP Fit Center  331 is at   0.723092 -2.275500 -1.024315
      ESP Fit Center  332 is at  -0.055132 -2.181007 -1.771985
      ESP Fit Center  333 is at   0.723092 -2.275500 -1.771985
      ESP Fit Center  334 is at   1.456089 -1.997511 -1.771985
      ESP Fit Center  335 is at   1.839145 -0.649563 -2.445613
      ESP Fit Center  336 is at   1.588293  0.122479 -2.445613
      ESP Fit Center  337 is at   0.931555  0.599628 -2.445613
      ESP Fit Center  338 is at   0.119781  0.599628 -2.445613
      ESP Fit Center  339 is at  -0.787809 -0.649563 -2.445613
      ESP Fit Center  340 is at  -0.536957 -1.421606 -2.445613
      ESP Fit Center  341 is at   0.119781 -1.898754 -2.445613
      ESP Fit Center  342 is at   0.931555 -1.898754 -2.445613
      ESP Fit Center  343 is at   1.588293 -1.421606 -2.445613
      ESP Fit Center  344 is at   1.254593 -0.649563 -2.911778
      ESP Fit Center  345 is at   0.890130 -0.018296 -2.911778
      ESP Fit Center  346 is at   0.161206 -0.018296 -2.911778
      ESP Fit Center  347 is at  -0.203257 -0.649563 -2.911778
      ESP Fit Center  348 is at   0.161206 -1.280830 -2.911778
      ESP Fit Center  349 is at   0.890130 -1.280830 -2.911778
      ESP Fit Center  350 is at   0.525668 -0.649563 -3.078150
      ESP Fit Center  351 is at   1.425546  0.301055  3.080852
      ESP Fit Center  352 is at   2.154471  0.301055  2.914480
      ESP Fit Center  353 is at   1.790008  0.932322  2.914480
      ESP Fit Center  354 is at   1.061084  0.932322  2.914480
      ESP Fit Center  355 is at   0.696621  0.301055  2.914480
      ESP Fit Center  356 is at   1.061084 -0.330213  2.914480
      ESP Fit Center  357 is at   1.790008 -0.330213  2.914480
      ESP Fit Center  358 is at   2.739023  0.301055  2.448315
      ESP Fit Center  359 is at   2.488171  1.073097  2.448315
      ESP Fit Center  360 is at   1.831433  1.550246  2.448315
      ESP Fit Center  361 is at   1.019659  1.550246  2.448315
      ESP Fit Center  362 is at   1.019659 -0.948136  2.448315
      ESP Fit Center  363 is at   1.831433 -0.948136  2.448315
      ESP Fit Center  364 is at   2.488171 -0.470988  2.448315
      ESP Fit Center  365 is at   2.875816  1.062215  1.774687
      ESP Fit Center  366 is at   2.355967  1.649003  1.774687
      ESP Fit Center  367 is at   1.622971  1.926992  1.774687
      ESP Fit Center  368 is at   0.844746  1.832498  1.774687
      ESP Fit Center  369 is at   0.844746  1.832498  1.027017
      ESP Fit Center  370 is at  -3.308951 -3.854220  0.942920
      ESP Fit Center  371 is at  -4.257965 -3.222953  0.476755
      ESP Fit Center  372 is at  -4.007113 -3.994995  0.476755
      ESP Fit Center  373 is at  -3.350375 -4.472144  0.476755
      ESP Fit Center  374 is at  -2.538602 -4.472144  0.476755
      ESP Fit Center  375 is at  -4.534773 -2.830983 -0.196873
      ESP Fit Center  376 is at  -4.534773 -3.614923 -0.196873
      ESP Fit Center  377 is at  -4.170458 -4.309068 -0.196873
      ESP Fit Center  378 is at  -3.525288 -4.754396 -0.196873
      ESP Fit Center  379 is at  -2.747064 -4.848890 -0.196873
      ESP Fit Center  380 is at  -2.014067 -4.570901 -0.196873
      ESP Fit Center  381 is at  -4.534773 -2.830983 -0.944543
      ESP Fit Center  382 is at  -4.534773 -3.614923 -0.944543
      ESP Fit Center  383 is at  -4.170458 -4.309068 -0.944543
      ESP Fit Center  384 is at  -3.525288 -4.754396 -0.944543
      ESP Fit Center  385 is at  -2.747064 -4.848890 -0.944543
      ESP Fit Center  386 is at  -2.014067 -4.570901 -0.944543
      ESP Fit Center  387 is at  -4.257965 -3.222953 -1.618171
      ESP Fit Center  388 is at  -4.007113 -3.994995 -1.618171
      ESP Fit Center  389 is at  -3.350375 -4.472144 -1.618171
      ESP Fit Center  390 is at  -2.538602 -4.472144 -1.618171
      ESP Fit Center  391 is at  -1.881863 -3.994995 -1.618171
      ESP Fit Center  392 is at  -3.673413 -3.222953 -2.084336
      ESP Fit Center  393 is at  -3.308951 -3.854220 -2.084336
      ESP Fit Center  394 is at  -2.580026 -3.854220 -2.084336
      ESP Fit Center  395 is at  -2.944488 -3.222953 -2.250708
      ESP Fit Center  396 is at  -0.844663 -0.606611  3.671399
      ESP Fit Center  397 is at  -0.115738 -0.606611  3.505027
      ESP Fit Center  398 is at  -0.480201  0.024656  3.505027
      ESP Fit Center  399 is at  -1.209125  0.024656  3.505027
      ESP Fit Center  400 is at  -1.573588 -0.606611  3.505027
      ESP Fit Center  401 is at  -1.209125 -1.237878  3.505027
      ESP Fit Center  402 is at  -0.480201 -1.237878  3.505027
      ESP Fit Center  403 is at   0.468814 -0.606611  3.038862
      ESP Fit Center  404 is at   0.217962  0.165431  3.038862
      ESP Fit Center  405 is at  -2.158140 -0.606611  3.038862
      ESP Fit Center  406 is at  -1.907288 -1.378653  3.038862
      ESP Fit Center  407 is at  -1.250550 -1.855802  3.038862
      ESP Fit Center  408 is at  -0.438776 -1.855802  3.038862
      ESP Fit Center  409 is at   0.217962 -1.378653  3.038862
      ESP Fit Center  410 is at  -2.434948 -0.998581  2.365234
      ESP Fit Center  411 is at  -2.070633 -1.692726  2.365234
      ESP Fit Center  412 is at  -1.425463 -2.138054  2.365234
      ESP Fit Center  413 is at  -0.647239 -2.232548  2.365234
      ESP Fit Center  414 is at   0.085758 -1.954559  2.365234
      ESP Fit Center  415 is at   0.605607 -1.367771  2.365234
      ESP Fit Center  416 is at  -0.647239 -2.232548  1.617564
      ESP Fit Center  417 is at   0.085758 -1.954559  1.617564
      ESP Fit Center  418 is at   0.900317  2.470528  1.091530
      ESP Fit Center  419 is at  -2.931719  2.470528  1.091530
      ESP Fit Center  420 is at   0.216253  4.356173  0.431316
      ESP Fit Center  421 is at  -0.462766  4.654019  0.431316
      ESP Fit Center  422 is at  -1.201704  4.715249  0.431316
      ESP Fit Center  423 is at  -2.996640  3.542558  0.431316
      ESP Fit Center  424 is at  -3.237395  2.841263  0.431316
      ESP Fit Center  425 is at   0.376368  4.386546 -0.300538
      ESP Fit Center  426 is at  -0.283847  4.722942 -0.300538
      ESP Fit Center  427 is at   0.216253  4.356173 -1.032392
      ESP Fit Center  428 is at  -0.283847  2.470528 -2.552952
      ESP Fit Center  429 is at  -0.649774  3.104332 -2.552952
      ESP Fit Center  430 is at  -1.015701  2.470528 -2.668866
      ESP Fit Center  431 is at  -3.033531  2.478965 -1.991008
      ESP Fit Center  432 is at  -3.448871  1.857364 -1.991008
      ESP Fit Center  433 is at  -3.594720  1.124136 -1.991008
      ESP Fit Center  434 is at   0.416697 -2.210090  1.015314
      ESP Fit Center  435 is at   0.230694 -2.538793  0.355100
      ESP Fit Center  436 is at   0.969632 -2.477563  0.355100
      ESP Fit Center  437 is at   0.416697 -2.662400 -0.376754
      ESP Fit Center  438 is at   1.148551 -2.546486 -0.376754
      ESP Fit Center  439 is at   0.230694 -2.538793 -1.108608
      ESP Fit Center  440 is at   0.969632 -2.477563 -1.108608
      ESP Fit Center  441 is at   0.994983  0.972198 -2.292772
      ESP Fit Center  442 is at   0.218585  1.083827 -2.292772
      ESP Fit Center  443 is at   1.284376 -1.440765  2.298841
      ESP Fit Center  444 is at   2.060774 -1.329136  2.298841
      ESP Fit Center  445 is at   0.749260 -1.833036  1.774891
      ESP Fit Center  446 is at   1.482488 -1.978884  1.774891
      ESP Fit Center  447 is at   2.035423  2.120624  1.114677
      ESP Fit Center  448 is at   1.296485  2.181855  1.114677
      ESP Fit Center  449 is at   1.296485 -2.307587  1.114677
      ESP Fit Center  450 is at   2.214342  2.189548  0.382823
      ESP Fit Center  451 is at   1.482488 -2.431194  0.382823
      ESP Fit Center  452 is at   3.123928 -0.303922  2.507569
      ESP Fit Center  453 is at   3.880128 -0.303922  2.398844
      ESP Fit Center  454 is at   3.502028  0.350966  2.398844
      ESP Fit Center  455 is at   2.745828 -0.958811  2.398844
      ESP Fit Center  456 is at   3.502028 -0.958811  2.398844
      ESP Fit Center  457 is at   4.575065 -0.303922  2.081477
      ESP Fit Center  458 is at   4.380649  0.421646  2.081477
      ESP Fit Center  459 is at   3.849496  0.952799  2.081477
      ESP Fit Center  460 is at   3.123928  1.147215  2.081477
      ESP Fit Center  461 is at   2.398360 -1.560644  2.081477
      ESP Fit Center  462 is at   3.123928 -1.755059  2.081477
      ESP Fit Center  463 is at   3.849496 -1.560644  2.081477
      ESP Fit Center  464 is at   4.380649 -1.029491  2.081477
      ESP Fit Center  465 is at   5.152439 -0.303922  1.581179
      ESP Fit Center  466 is at   5.015459  0.428861  1.581179
      ESP Fit Center  467 is at   4.623016  1.062677  1.581179
      ESP Fit Center  468 is at   4.028113  1.511927  1.581179
      ESP Fit Center  469 is at   3.311095  1.715936  1.581179
      ESP Fit Center  470 is at   2.568799 -2.254997  1.581179
      ESP Fit Center  471 is at   3.311095 -2.323780  1.581179
      ESP Fit Center  472 is at   4.028113 -2.119771  1.581179
      ESP Fit Center  473 is at   4.623016 -1.670522  1.581179
      ESP Fit Center  474 is at   5.015459 -1.036705  1.581179
      ESP Fit Center  475 is at   5.565476 -0.303922  0.938481
      ESP Fit Center  476 is at   5.445978  0.450557  0.938481
      ESP Fit Center  477 is at   5.099182  1.131184  0.938481
      ESP Fit Center  478 is at   4.559034  1.671331  0.938481
      ESP Fit Center  479 is at   3.878408  2.018128  0.938481
      ESP Fit Center  480 is at   3.123928  2.137626  0.938481
      ESP Fit Center  481 is at   2.369448 -2.625972  0.938481
      ESP Fit Center  482 is at   3.123928 -2.745470  0.938481
      ESP Fit Center  483 is at   3.878408 -2.625972  0.938481
      ESP Fit Center  484 is at   4.559034 -2.279176  0.938481
      ESP Fit Center  485 is at   5.099182 -1.739028  0.938481
      ESP Fit Center  486 is at   5.445978 -1.058402  0.938481
      ESP Fit Center  487 is at   5.780713 -0.303922  0.205452
      ESP Fit Center  488 is at   5.673094  0.444580  0.205452
      ESP Fit Center  489 is at   5.358958  1.132444  0.205452
      ESP Fit Center  490 is at   4.863752  1.703942  0.205452
      ESP Fit Center  491 is at   4.227596  2.112774  0.205452
      ESP Fit Center  492 is at   3.502028  2.325820  0.205452
      ESP Fit Center  493 is at   2.745828  2.325820  0.205452
      ESP Fit Center  494 is at   2.020260 -2.720619  0.205452
      ESP Fit Center  495 is at   2.745828 -2.933665  0.205452
      ESP Fit Center  496 is at   3.502028 -2.933665  0.205452
      ESP Fit Center  497 is at   4.227596 -2.720619  0.205452
      ESP Fit Center  498 is at   4.863752 -2.311786  0.205452
      ESP Fit Center  499 is at   5.358958 -1.740289  0.205452
      ESP Fit Center  500 is at   5.673094 -1.052425  0.205452
      ESP Fit Center  501 is at   5.780713 -0.303922 -0.558524
      ESP Fit Center  502 is at   5.673094  0.444580 -0.558524
      ESP Fit Center  503 is at   5.358958  1.132444 -0.558524
      ESP Fit Center  504 is at   4.863752  1.703942 -0.558524
      ESP Fit Center  505 is at   4.227596  2.112774 -0.558524
      ESP Fit Center  506 is at   3.502028  2.325820 -0.558524
      ESP Fit Center  507 is at   2.745828  2.325820 -0.558524
      ESP Fit Center  508 is at   2.020260  2.112774 -0.558524
      ESP Fit Center  509 is at   2.020260 -2.720619 -0.558524
      ESP Fit Center  510 is at   2.745828 -2.933665 -0.558524
      ESP Fit Center  511 is at   3.502028 -2.933665 -0.558524
      ESP Fit Center  512 is at   4.227596 -2.720619 -0.558524
      ESP Fit Center  513 is at   4.863752 -2.311786 -0.558524
      ESP Fit Center  514 is at   5.358958 -1.740289 -0.558524
      ESP Fit Center  515 is at   5.673094 -1.052425 -0.558524
      ESP Fit Center  516 is at   5.565476 -0.303922 -1.291554
      ESP Fit Center  517 is at   5.445978  0.450557 -1.291554
      ESP Fit Center  518 is at   5.099182  1.131184 -1.291554
      ESP Fit Center  519 is at   4.559034  1.671331 -1.291554
      ESP Fit Center  520 is at   3.878408  2.018128 -1.291554
      ESP Fit Center  521 is at   3.123928  2.137626 -1.291554
      ESP Fit Center  522 is at   2.369448  2.018128 -1.291554
      ESP Fit Center  523 is at   1.688822  1.671331 -1.291554
      ESP Fit Center  524 is at   1.688822 -2.279176 -1.291554
      ESP Fit Center  525 is at   2.369448 -2.625972 -1.291554
      ESP Fit Center  526 is at   3.123928 -2.745470 -1.291554
      ESP Fit Center  527 is at   3.878408 -2.625972 -1.291554
      ESP Fit Center  528 is at   4.559034 -2.279176 -1.291554
      ESP Fit Center  529 is at   5.099182 -1.739028 -1.291554
      ESP Fit Center  530 is at   5.445978 -1.058402 -1.291554
      ESP Fit Center  531 is at   5.152439 -0.303922 -1.934251
      ESP Fit Center  532 is at   5.015459  0.428861 -1.934251
      ESP Fit Center  533 is at   4.623016  1.062677 -1.934251
      ESP Fit Center  534 is at   4.028113  1.511927 -1.934251
      ESP Fit Center  535 is at   3.311095  1.715936 -1.934251
      ESP Fit Center  536 is at   2.568799  1.647152 -1.934251
      ESP Fit Center  537 is at   1.901477  1.314865 -1.934251
      ESP Fit Center  538 is at   1.901477 -1.922709 -1.934251
      ESP Fit Center  539 is at   2.568799 -2.254997 -1.934251
      ESP Fit Center  540 is at   3.311095 -2.323780 -1.934251
      ESP Fit Center  541 is at   4.028113 -2.119771 -1.934251
      ESP Fit Center  542 is at   4.623016 -1.670522 -1.934251
      ESP Fit Center  543 is at   5.015459 -1.036705 -1.934251
      ESP Fit Center  544 is at   4.575065 -0.303922 -2.434549
      ESP Fit Center  545 is at   4.380649  0.421646 -2.434549
      ESP Fit Center  546 is at   3.849496  0.952799 -2.434549
      ESP Fit Center  547 is at   3.123928  1.147215 -2.434549
      ESP Fit Center  548 is at   2.398360  0.952799 -2.434549
      ESP Fit Center  549 is at   1.867207  0.421646 -2.434549
      ESP Fit Center  550 is at   2.398360 -1.560644 -2.434549
      ESP Fit Center  551 is at   3.123928 -1.755059 -2.434549
      ESP Fit Center  552 is at   3.849496 -1.560644 -2.434549
      ESP Fit Center  553 is at   4.380649 -1.029491 -2.434549
      ESP Fit Center  554 is at   3.880128 -0.303922 -2.751916
      ESP Fit Center  555 is at   3.502028  0.350966 -2.751916
      ESP Fit Center  556 is at   2.745828  0.350966 -2.751916
      ESP Fit Center  557 is at   2.367728 -0.303922 -2.751916
      ESP Fit Center  558 is at   2.745828 -0.958811 -2.751916
      ESP Fit Center  559 is at   3.502028 -0.958811 -2.751916
      ESP Fit Center  560 is at   3.123928 -0.303922 -2.860641
      ESP Fit Center  561 is at  -3.117973 -0.918479  1.752953
      ESP Fit Center  562 is at  -1.204007 -2.576940  1.752953
      ESP Fit Center  563 is at  -3.552463 -0.577442  1.229003
      ESP Fit Center  564 is at  -0.427464 -2.665499  1.229003
      ESP Fit Center  565 is at  -3.763232 -0.238639  0.568789
      ESP Fit Center  566 is at  -0.004822 -2.694131  0.568789
      ESP Fit Center  567 is at  -4.034707 -0.578816 -0.163065
      ESP Fit Center  568 is at   0.133725 -2.702738 -0.163065
      ESP Fit Center  569 is at  -0.004822 -2.694131 -0.894919
      ESP Fit Center  570 is at  -3.552463 -0.577442 -1.555133
      ESP Fit Center  571 is at  -0.611211 -2.063279 -2.079083
      ESP Fit Center  572 is at  -1.050439 -1.310670 -2.415479
      ESP Fit Center  573 is at  -1.782293 -1.310670 -2.531393
      ESP Fit Center  574 is at  -2.396085 -2.327986  1.988068
      ESP Fit Center  575 is at  -3.127939 -2.327986  1.872154
      ESP Fit Center  576 is at  -2.762012 -2.961790  1.872154
      ESP Fit Center  577 is at  -2.030158 -2.961790  1.872154
      ESP Fit Center  578 is at  -3.731765 -1.935795  1.535758
      ESP Fit Center  579 is at  -3.731765 -2.720177  1.535758
      ESP Fit Center  580 is at  -3.307696 -3.380041  1.535758
      ESP Fit Center  581 is at  -2.594197 -3.705885  1.535758
      ESP Fit Center  582 is at  -1.817799 -3.594256  1.535758
      ESP Fit Center  583 is at  -1.225003 -3.080595  1.535758
      ESP Fit Center  584 is at  -4.166255 -1.594758  1.011808
      ESP Fit Center  585 is at  -4.312103 -2.327986  1.011808
      ESP Fit Center  586 is at  -4.166255 -3.061214  1.011808
      ESP Fit Center  587 is at  -2.396085 -4.244004  1.011808
      ESP Fit Center  588 is at  -1.662857 -4.098156  1.011808
      ESP Fit Center  589 is at  -1.041256 -3.682815  1.011808
      ESP Fit Center  590 is at  -0.625916 -3.061214  1.011808
      ESP Fit Center  591 is at  -4.377024 -1.255955  0.351594
      ESP Fit Center  592 is at  -4.617779 -1.957251  0.351594
      ESP Fit Center  593 is at  -4.617779 -2.698721  0.351594
      ESP Fit Center  594 is at  -1.843150 -4.511477  0.351594
      ESP Fit Center  595 is at  -1.164132 -4.213631  0.351594
      ESP Fit Center  596 is at  -0.618614 -3.711447  0.351594
      ESP Fit Center  597 is at  -0.265713 -3.059344  0.351594
      ESP Fit Center  598 is at  -4.312103 -0.935918 -0.380260
      ESP Fit Center  599 is at  -4.648499 -1.596132 -0.380260
      ESP Fit Center  600 is at  -4.764413 -2.327986 -0.380260
      ESP Fit Center  601 is at  -1.004017 -4.244004 -0.380260
      ESP Fit Center  602 is at  -0.480067 -3.720054 -0.380260
      ESP Fit Center  603 is at  -0.143671 -3.059840 -0.380260
      ESP Fit Center  604 is at  -3.921604 -0.670831 -1.112114
      ESP Fit Center  605 is at  -4.377024 -1.255955 -1.112114
      ESP Fit Center  606 is at  -4.617779 -1.957251 -1.112114
      ESP Fit Center  607 is at  -1.164132 -4.213631 -1.112114
      ESP Fit Center  608 is at  -0.618614 -3.711447 -1.112114
      ESP Fit Center  609 is at  -0.265713 -3.059344 -1.112114
      ESP Fit Center  610 is at  -3.750914 -0.973157 -1.772328
      ESP Fit Center  611 is at  -4.166255 -1.594758 -1.772328
      ESP Fit Center  612 is at  -4.312103 -2.327986 -1.772328
      ESP Fit Center  613 is at  -1.662857 -4.098156 -1.772328
      ESP Fit Center  614 is at  -1.041256 -3.682815 -1.772328
      ESP Fit Center  615 is at  -0.625916 -3.061214 -1.772328
      ESP Fit Center  616 is at  -1.004017 -2.327986 -2.296278
      ESP Fit Center  617 is at  -3.307696 -1.275931 -2.296278
      ESP Fit Center  618 is at  -3.731765 -1.935795 -2.296278
      ESP Fit Center  619 is at  -3.731765 -2.720177 -2.296278
      ESP Fit Center  620 is at  -1.817799 -3.594256 -2.296278
      ESP Fit Center  621 is at  -1.225003 -3.080595 -2.296278
      ESP Fit Center  622 is at  -1.664232 -2.327986 -2.632674
      ESP Fit Center  623 is at  -2.030158 -1.694182 -2.632674
      ESP Fit Center  624 is at  -2.762012 -1.694182 -2.632674
      ESP Fit Center  625 is at  -3.127939 -2.327986 -2.632674
      ESP Fit Center  626 is at  -2.762012 -2.961790 -2.632674
      ESP Fit Center  627 is at  -2.030158 -2.961790 -2.632674
      ESP Fit Center  628 is at  -2.396085 -2.327986 -2.748588
      ESP Fit Center  629 is at  -1.049869  0.215646  3.727365
      ESP Fit Center  630 is at  -0.671862  0.870374  3.594060
      ESP Fit Center  631 is at  -1.427876  0.870374  3.594060
      ESP Fit Center  632 is at  -1.805884  0.215646  3.594060
      ESP Fit Center  633 is at   0.370974  0.215646  3.210221
      ESP Fit Center  634 is at   0.180617  0.926068  3.210221
      ESP Fit Center  635 is at  -0.339447  1.446132  3.210221
      ESP Fit Center  636 is at  -1.049869  1.636489  3.210221
      ESP Fit Center  637 is at  -1.760291  1.446132  3.210221
      ESP Fit Center  638 is at  -2.280355  0.926068  3.210221
      ESP Fit Center  639 is at  -2.470712  0.215646  3.210221
      ESP Fit Center  640 is at   0.303743  1.569258  2.622146
      ESP Fit Center  641 is at  -0.317299  1.984226  2.622146
      ESP Fit Center  642 is at  -1.049869  2.129943  2.622146
      ESP Fit Center  643 is at  -1.782439  1.984226  2.622146
      ESP Fit Center  644 is at  -2.403481  1.569258  2.622146
      ESP Fit Center  645 is at  -2.818449  0.948216  2.622146
      ESP Fit Center  646 is at  -2.964166  0.215646  2.622146
      ESP Fit Center  647 is at  -2.818449 -0.516924  2.622146
      ESP Fit Center  648 is at  -2.717439  1.614903  1.900765
      ESP Fit Center  649 is at  -3.095446  0.960175  1.900765
      ESP Fit Center  650 is at  -3.226727  0.215646  1.900765
      ESP Fit Center  651 is at  -3.095446 -0.528883  1.900765
      ESP Fit Center  652 is at   1.365956  2.491213  0.704016
      ESP Fit Center  653 is at   1.153279  3.215525  0.704016
      ESP Fit Center  654 is at   1.776667  2.491213  0.089343
      ESP Fit Center  655 is at   1.603319  3.250700  0.089343
      ESP Fit Center  656 is at   1.117609  3.859762  0.089343
      ESP Fit Center  657 is at   1.920890  2.491213 -0.635713
      ESP Fit Center  658 is at   1.776667  3.216269 -0.635713
      ESP Fit Center  659 is at   1.365956  3.830942 -0.635713
      ESP Fit Center  660 is at   0.751283  4.241653 -0.635713
      ESP Fit Center  661 is at   1.776667  2.491213 -1.360769
      ESP Fit Center  662 is at   1.603319  3.250700 -1.360769
      ESP Fit Center  663 is at   1.117609  3.859762 -1.360769
      ESP Fit Center  664 is at   0.415737  4.197766 -1.360769
      ESP Fit Center  665 is at   1.603319  1.731725 -1.360769
      ESP Fit Center  666 is at   1.365956  2.491213 -1.975442
      ESP Fit Center  667 is at   1.153279  3.215525 -1.975442
      ESP Fit Center  668 is at   0.582771  3.709873 -1.975442
      ESP Fit Center  669 is at   1.153279  1.766901 -1.975442
      ESP Fit Center  670 is at   0.751283  2.491213 -2.386153
      ESP Fit Center  671 is at   0.388755  3.119130 -2.386153
      ESP Fit Center  672 is at   0.388755  1.863296 -2.386153
      ESP Fit Center  673 is at   0.026227  2.491213 -2.530376
      ESP Fit Center  674 is at  -1.743441  4.598935  0.521630
      ESP Fit Center  675 is at  -2.430114  4.285342  0.521630
      ESP Fit Center  676 is at  -1.163268  4.979396 -0.093043
      ESP Fit Center  677 is at  -1.942287  4.979396 -0.093043
      ESP Fit Center  678 is at  -2.644159  4.641392 -0.093043
      ESP Fit Center  679 is at  -3.129870  4.032330 -0.093043
      ESP Fit Center  680 is at  -3.303218  3.272843 -0.093043
      ESP Fit Center  681 is at  -0.827722  5.023283 -0.818099
      ESP Fit Center  682 is at  -1.552778  5.167506 -0.818099
      ESP Fit Center  683 is at  -2.277834  5.023283 -0.818099
      ESP Fit Center  684 is at  -2.892506  4.612572 -0.818099
      ESP Fit Center  685 is at  -3.303218  3.997899 -0.818099
      ESP Fit Center  686 is at  -3.447440  3.272843 -0.818099
      ESP Fit Center  687 is at  -0.461396  4.641392 -1.543155
      ESP Fit Center  688 is at  -1.163268  4.979396 -1.543155
      ESP Fit Center  689 is at  -1.942287  4.979396 -1.543155
      ESP Fit Center  690 is at  -2.644159  4.641392 -1.543155
      ESP Fit Center  691 is at  -3.129870  4.032330 -1.543155
      ESP Fit Center  692 is at  -3.303218  3.272843 -1.543155
      ESP Fit Center  693 is at  -0.425726  3.997155 -2.157828
      ESP Fit Center  694 is at  -0.996234  4.491503 -2.157828
      ESP Fit Center  695 is at  -1.743441  4.598935 -2.157828
      ESP Fit Center  696 is at  -2.430114  4.285342 -2.157828
      ESP Fit Center  697 is at  -2.838238  3.650288 -2.157828
      ESP Fit Center  698 is at  -2.838238  2.895398 -2.157828
      ESP Fit Center  699 is at  -0.827722  3.272843 -2.568539
      ESP Fit Center  700 is at  -1.190250  3.900760 -2.568539
      ESP Fit Center  701 is at  -1.915306  3.900760 -2.568539
      ESP Fit Center  702 is at  -2.277834  3.272843 -2.568539
      ESP Fit Center  703 is at  -1.915306  2.644926 -2.568539
      ESP Fit Center  704 is at  -1.552778  3.272843 -2.712762
      ESP Fit Center  705 is at  -1.033266  2.684637  2.666280
      ESP Fit Center  706 is at  -0.308210  2.684637  2.522058
      ESP Fit Center  707 is at  -0.670738  3.312554  2.522058
      ESP Fit Center  708 is at  -1.395794  3.312554  2.522058
      ESP Fit Center  709 is at  -1.758322  2.684637  2.522058
      ESP Fit Center  710 is at   0.306463  2.684637  2.111347
      ESP Fit Center  711 is at   0.093786  3.408949  2.111347
      ESP Fit Center  712 is at  -0.476722  3.903297  2.111347
      ESP Fit Center  713 is at  -1.223929  4.010729  2.111347
      ESP Fit Center  714 is at  -1.910602  3.697136  2.111347
      ESP Fit Center  715 is at  -2.318726  3.062082  2.111347
      ESP Fit Center  716 is at  -2.318726  2.307192  2.111347
      ESP Fit Center  717 is at   0.717174  2.684637  1.496674
      ESP Fit Center  718 is at   0.543826  3.444124  1.496674
      ESP Fit Center  719 is at   0.058116  4.053186  1.496674
      ESP Fit Center  720 is at  -0.643756  4.391190  1.496674
      ESP Fit Center  721 is at  -1.422775  4.391190  1.496674
      ESP Fit Center  722 is at  -2.124647  4.053186  1.496674
      ESP Fit Center  723 is at  -2.610358  3.444124  1.496674
      ESP Fit Center  724 is at  -2.783706  2.684637  1.496674
      ESP Fit Center  725 is at  -2.610358  1.925150  1.496674
      ESP Fit Center  726 is at  -3.089638  1.767481  1.469688
      ESP Fit Center  727 is at  -3.452166  1.139564  1.469688
      ESP Fit Center  728 is at  -3.604446  2.152063  1.058977
      ESP Fit Center  729 is at  -4.012570  1.517009  1.058977
      ESP Fit Center  730 is at  -4.012570  0.762119  1.058977
      ESP Fit Center  731 is at  -3.604446  0.127065  1.058977
      ESP Fit Center  732 is at  -3.818491  2.508113  0.444304
      ESP Fit Center  733 is at  -4.304202  1.899051  0.444304
      ESP Fit Center  734 is at  -4.477550  1.139564  0.444304
      ESP Fit Center  735 is at  -4.304202  0.380077  0.444304
      ESP Fit Center  736 is at  -3.818491 -0.228985  0.444304
      ESP Fit Center  737 is at  -3.452166  2.890004 -0.280752
      ESP Fit Center  738 is at  -4.066839  2.479293 -0.280752
      ESP Fit Center  739 is at  -4.477550  1.864620 -0.280752
      ESP Fit Center  740 is at  -4.621772  1.139564 -0.280752
      ESP Fit Center  741 is at  -4.477550  0.414508 -0.280752
      ESP Fit Center  742 is at  -4.066839 -0.200165 -0.280752
      ESP Fit Center  743 is at  -3.818491  2.508113 -1.005808
      ESP Fit Center  744 is at  -4.304202  1.899051 -1.005808
      ESP Fit Center  745 is at  -4.477550  1.139564 -1.005808
      ESP Fit Center  746 is at  -4.304202  0.380077 -1.005808
      ESP Fit Center  747 is at  -3.818491 -0.228985 -1.005808
      ESP Fit Center  748 is at  -3.604446  2.152063 -1.620481
      ESP Fit Center  749 is at  -4.012570  1.517009 -1.620481
      ESP Fit Center  750 is at  -4.012570  0.762119 -1.620481
      ESP Fit Center  751 is at  -3.604446  0.127065 -1.620481
      ESP Fit Center  752 is at   0.076910  0.920804 -2.401380
      ESP Fit Center  753 is at  -0.096438  1.680291 -2.401380
      ESP Fit Center  754 is at  -2.764911  2.289353 -2.401380
      ESP Fit Center  755 is at  -3.250622  1.680291 -2.401380
      ESP Fit Center  756 is at  -3.423970  0.920804 -2.401380
      ESP Fit Center  757 is at  -3.250622  0.161317 -2.401380
      ESP Fit Center  758 is at  -2.764911 -0.447745 -2.401380
      ESP Fit Center  759 is at  -0.333801  0.920804 -3.016053
      ESP Fit Center  760 is at  -0.546478  1.645116 -3.016053
      ESP Fit Center  761 is at  -1.116987  2.139464 -3.016053
      ESP Fit Center  762 is at  -1.864193  2.246896 -3.016053
      ESP Fit Center  763 is at  -2.550866  1.933303 -3.016053
      ESP Fit Center  764 is at  -2.958990  1.298249 -3.016053
      ESP Fit Center  765 is at  -2.958990  0.543359 -3.016053
      ESP Fit Center  766 is at  -2.550866 -0.091695 -3.016053
      ESP Fit Center  767 is at  -1.864193 -0.405288 -3.016053
      ESP Fit Center  768 is at  -1.116987 -0.297856 -3.016053
      ESP Fit Center  769 is at  -0.546478  0.196492 -3.016053
[...]
 1920 Fit       0.003820
 1921 Fit       0.001634
 1922 Fit      -0.003903
 1923 Fit       0.001553
 1924 Fit       0.001280
 1925 Fit      -0.001194
 1926 Fit       0.011586
 1927 Fit       0.011453
 1928 Fit       0.012520
 1929 Fit       0.014717
 1930 Fit       0.015151
 1931 Fit       0.013887
 1932 Fit       0.012423
 1933 Fit       0.015467
 1934 Fit       0.017082
 1935 Fit       0.017353
 1936 Fit       0.016305
 1937 Fit       0.013908
 1938 Fit       0.011629
 1939 Fit       0.015218
 1940 Fit       0.017467
 1941 Fit       0.018471
 1942 Fit       0.018269
 1943 Fit       0.016857
 1944 Fit       0.014188
 1945 Fit       0.009997
 1946 Fit       0.014144
 1947 Fit       0.016885
 1948 Fit       0.018325
 1949 Fit       0.018501
 1950 Fit       0.017418
 1951 Fit       0.015050
 1952 Fit       0.011323
 1953 Fit       0.012159
 1954 Fit       0.015478
 1955 Fit       0.017229
 1956 Fit       0.017434
 1957 Fit       0.016096
 1958 Fit       0.013214
 1959 Fit       0.013246
 1960 Fit       0.015267
 1961 Fit       0.014788
 1962 Fit       0.011868
 1963 Fit       0.012077
 1964 Fit       0.011445
 1965 Fit       0.013885
 1966 Fit       0.007339
 1967 Fit       0.008046
 1968 Fit       0.013987
 1969 Fit       0.016424
 1970 Fit       0.015927
 1971 Fit       0.009481
 1972 Fit       0.007038
 1973 Fit       0.013266
 1974 Fit       0.017387
 1975 Fit       0.019102
 1976 Fit       0.018603
 1977 Fit       0.004827
 1978 Fit       0.010729
 1979 Fit       0.015212
 1980 Fit       0.018185
 1981 Fit       0.019584
 1982 Fit       0.019670
 1983 Fit       0.019230
 1984 Fit       0.001224
 1985 Fit       0.006743
 1986 Fit       0.011487
 1987 Fit       0.015151
 1988 Fit       0.017375
 1989 Fit       0.018043
 1990 Fit       0.017814
 1991 Fit       0.013145
 1992 Fit       0.013705
 1993 Fit      -0.003010
 1994 Fit      -0.003268
 1995 Fit      -0.003705
 1996 Fit      -0.005088
 1997 Fit      -0.003397
 1998 Fit      -0.003166
 1999 Fit      -0.002837
 2000 Fit      -0.002487
 2001 Fit      -0.002166
 2002 Fit      -0.001910
 2003 Fit      -0.001763
 2004 Fit      -0.001753
 2005 Fit      -0.001845
 2006 Fit      -0.001962
 2007 Fit      -0.003037
 2008 Fit      -0.002744
 2009 Fit      -0.002375
 2010 Fit      -0.001918
 2011 Fit      -0.001398
 2012 Fit      -0.000258
 2013 Fit      -0.000018
 2014 Fit      -0.002389
 2015 Fit      -0.002026
 2016 Fit      -0.001442
 2017 Fit      -0.001828
 2018 Fit      -0.001372
 2019 Fit      -0.001134
 2020 Fit      -0.000618
 2021 Fit       0.000010
 2022 Fit       0.000123
 2023 Fit       0.000502
 2024 Fit       0.002453
 2025 Fit       0.001389
 2026 Fit       0.001404
 2027 Fit       0.003742
 2028 Fit       0.002830
 2029 Fit       0.003833
 2030 Fit       0.003580
 2031 Fit       0.002960
 2032 Fit      -0.001402
 2033 Fit       0.004157
 2034 Fit       0.003412
 2035 Fit       0.002626
 2036 Fit       0.001524
 2037 Fit      -0.000177
 2038 Fit       0.004761
 2039 Fit      -0.000762
 2040 Fit      -0.004611
 2041 Fit      -0.005490
 2042 Fit      -0.004161
 2043 Fit       0.001016
 2044 Fit       0.008696
 2045 Fit       0.011359
 2046 Fit       0.004754
 2047 Fit      -0.000946
 2048 Fit       0.004762
 2049 Fit      -0.003072
 2050 Fit      -0.002081
 2051 Fit       0.002971
 2052 Fit      -0.001688
 2053 Fit       0.000783
 2054 Fit       0.004526
 2055 Fit      -0.000391
 2056 Fit      -0.004857
 2057 Fit      -0.003980
 2058 Fit      -0.001642
 2059 Fit       0.002694
 2060 Fit       0.005202
 2061 Fit      -0.000079
 2062 Fit      -0.003190
 2063 Fit      -0.004627
 2064 Fit      -0.006751
 2065 Fit      -0.006450
 2066 Fit      -0.005610
 2067 Fit      -0.003914
 2068 Fit      -0.001070
 2069 Fit       0.004796
 2070 Fit      -0.000221
 2071 Fit      -0.003415
 2072 Fit      -0.005325
 2073 Fit      -0.006312
 2074 Fit      -0.006711
 2075 Fit      -0.007585
 2076 Fit      -0.007576
 2077 Fit      -0.007388
 2078 Fit      -0.006786
 2079 Fit      -0.005539
 2080 Fit      -0.003509
 2081 Fit      -0.000698
 2082 Fit      -0.000021
 2083 Fit      -0.003245
 2084 Fit      -0.005377
 2085 Fit      -0.006654
 2086 Fit      -0.007282
 2087 Fit      -0.007506
 2088 Fit      -0.007560
 2089 Fit      -0.007620
 2090 Fit      -0.007813
 2091 Fit      -0.008008
 2092 Fit      -0.007983
 2093 Fit      -0.007503
 2094 Fit      -0.006407
 2095 Fit      -0.004688
 2096 Fit      -0.002579
 2097 Fit      -0.002069
 2098 Fit      -0.004511
 2099 Fit      -0.006254
 2100 Fit      -0.007313
 2101 Fit      -0.007769
 2102 Fit      -0.007809
 2103 Fit      -0.007672
 2104 Fit      -0.007570
 2105 Fit      -0.007164
 2106 Fit      -0.007497
 2107 Fit      -0.007955
 2108 Fit      -0.008341
 2109 Fit      -0.008437
 2110 Fit      -0.008057
 2111 Fit      -0.007121
 2112 Fit      -0.005712
 2113 Fit      -0.004164
 2114 Fit      -0.004122
 2115 Fit      -0.005650
 2116 Fit      -0.006943
 2117 Fit      -0.007762
 2118 Fit      -0.008060
 2119 Fit      -0.007941
 2120 Fit      -0.007600
 2121 Fit      -0.007253
 2122 Fit      -0.007077
 2123 Fit      -0.006530
 2124 Fit      -0.006974
 2125 Fit      -0.007622
 2126 Fit      -0.008275
 2127 Fit      -0.008704
 2128 Fit      -0.008704
 2129 Fit      -0.008155
 2130 Fit      -0.007065
 2131 Fit      -0.005600
 2132 Fit      -0.005275
 2133 Fit      -0.005838
 2134 Fit      -0.006883
 2135 Fit      -0.007754
 2136 Fit      -0.008171
 2137 Fit      -0.008105
 2138 Fit      -0.007687
 2139 Fit      -0.007124
 2140 Fit      -0.006641
 2141 Fit      -0.006413
 2142 Fit      -0.005995
 2143 Fit      -0.006511
 2144 Fit      -0.007279
 2145 Fit      -0.008095
 2146 Fit      -0.008717
 2147 Fit      -0.008927
 2148 Fit      -0.008575
 2149 Fit      -0.007613
 2150 Fit      -0.006045
 2151 Fit      -0.005578
 2152 Fit      -0.006186
 2153 Fit      -0.007170
 2154 Fit      -0.007911
 2155 Fit      -0.008166
 2156 Fit      -0.007934
 2157 Fit      -0.007364
 2158 Fit      -0.006681
 2159 Fit      -0.006117
 2160 Fit      -0.005858
 2161 Fit      -0.005747
 2162 Fit      -0.006294
 2163 Fit      -0.007113
 2164 Fit      -0.007987
 2165 Fit      -0.008663
 2166 Fit      -0.008909
 2167 Fit      -0.008559
 2168 Fit      -0.007524
 2169 Fit      -0.005689
 2170 Fit      -0.005304
 2171 Fit      -0.006660
 2172 Fit      -0.007585
 2173 Fit      -0.007934
 2174 Fit      -0.007740
 2175 Fit      -0.007170
 2176 Fit      -0.006465
 2177 Fit      -0.005876
 2178 Fit      -0.005602
 2179 Fit      -0.005849
 2180 Fit      -0.006416
 2181 Fit      -0.007252
 2182 Fit      -0.008093
 2183 Fit      -0.008637
 2184 Fit      -0.008624
 2185 Fit      -0.007877
 2186 Fit      -0.006293
 2187 Fit      -0.004377
 2188 Fit      -0.006299
 2189 Fit      -0.007311
 2190 Fit      -0.007549
 2191 Fit      -0.007216
 2192 Fit      -0.006598
 2193 Fit      -0.006009
 2194 Fit      -0.005711
 2195 Fit      -0.006228
 2196 Fit      -0.006748
 2197 Fit      -0.007480
 2198 Fit      -0.008126
 2199 Fit      -0.008357
 2200 Fit      -0.007909
 2201 Fit      -0.006632
 2202 Fit      -0.004478
 2203 Fit      -0.001486
 2204 Fit      -0.003663
 2205 Fit      -0.005896
 2206 Fit      -0.006926
 2207 Fit      -0.007110
 2208 Fit      -0.006795
 2209 Fit      -0.006350
 2210 Fit      -0.006098
 2211 Fit      -0.006681
 2212 Fit      -0.007142
 2213 Fit      -0.007679
 2214 Fit      -0.007868
 2215 Fit      -0.007301
 2216 Fit      -0.005734
 2217 Fit      -0.003065
 2218 Fit       0.000915
 2219 Fit      -0.001209
 2220 Fit      -0.004593
 2221 Fit      -0.006248
 2222 Fit      -0.006765
 2223 Fit      -0.006692
 2224 Fit      -0.006548
 2225 Fit      -0.006903
 2226 Fit      -0.007228
 2227 Fit      -0.007197
 2228 Fit      -0.006116
 2229 Fit      -0.003619
 2230 Fit       0.000079
 2231 Fit      -0.002246
 2232 Fit      -0.005123
 2233 Fit      -0.006362
 2234 Fit      -0.006690
 2235 Fit      -0.006523
 2236 Fit      -0.006296
 2237 Fit      -0.004343
 2238 Fit      -0.002192
 2239 Fit      -0.003706
 2240 Fit      -0.005818
 2241 Fit      -0.005122
 2242 Fit      -0.008622
 2243 Fit      -0.010647
 2244 Fit      -0.008684
 2245 Fit       0.006302
 2246 Fit      -0.007985
 2247 Fit       0.001000
 2248 Fit      -0.006090
 2249 Fit       0.005332
 2250 Fit       0.001800
 2251 Fit       0.000443
 2252 Fit       0.002933
 2253 Fit       0.006508
 2254 Fit      -0.004714
 2255 Fit      -0.001658
 2256 Fit       0.001368
 2257 Fit       0.003330
 2258 Fit       0.004114
 2259 Fit       0.005285
 2260 Fit      -0.007319
 2261 Fit      -0.003545
 2262 Fit       0.000186
 2263 Fit       0.003394
 2264 Fit       0.005391
 2265 Fit       0.005788
 2266 Fit       0.004970
 2267 Fit       0.004076
 2268 Fit       0.004879
 2269 Fit      -0.006342
 2270 Fit      -0.002573
 2271 Fit       0.001427
 2272 Fit       0.005197
 2273 Fit       0.008059
 2274 Fit       0.009311
 2275 Fit       0.008708
 2276 Fit       0.006749
 2277 Fit       0.004356
 2278 Fit       0.002517
 2279 Fit       0.002411
 2280 Fit      -0.007265
 2281 Fit      -0.004607
 2282 Fit      -0.001046
 2283 Fit       0.003005
 2284 Fit       0.007140
 2285 Fit       0.009137
 2286 Fit       0.005793
 2287 Fit       0.002649
 2288 Fit       0.000206
 2289 Fit      -0.001008
 2290 Fit      -0.005441
 2291 Fit      -0.003102
 2292 Fit       0.000443
 2293 Fit       0.004690
 2294 Fit       0.009446
 2295 Fit       0.005315
 2296 Fit       0.001575
 2297 Fit      -0.001540
 2298 Fit      -0.003849
 2299 Fit      -0.004464
 2300 Fit      -0.003155
 2301 Fit      -0.000177
 2302 Fit       0.003812
 2303 Fit       0.008468
 2304 Fit       0.009768
 2305 Fit       0.005225
 2306 Fit       0.001179
 2307 Fit      -0.002232
 2308 Fit      -0.004862
 2309 Fit      -0.003272
 2310 Fit      -0.001028
 2311 Fit       0.002533
 2312 Fit       0.007000
 2313 Fit       0.006474
 2314 Fit       0.002136
 2315 Fit      -0.001440
 2316 Fit      -0.003923
 2317 Fit      -0.002746
 2318 Fit      -0.000575
 2319 Fit       0.002885
 2320 Fit       0.007245
 2321 Fit       0.008172
 2322 Fit       0.003743
 2323 Fit       0.000125
 2324 Fit      -0.002142
 2325 Fit      -0.002368
 2326 Fit      -0.000578
 2327 Fit       0.002701
 2328 Fit       0.006913
 2329 Fit       0.006434
 2330 Fit       0.002477
 2331 Fit      -0.000199
 2332 Fit      -0.000277
 2333 Fit      -0.001503
 2334 Fit      -0.000524
 2335 Fit       0.002251
 2336 Fit       0.005940
 2337 Fit       0.009471
 2338 Fit       0.008101
 2339 Fit       0.004514
 2340 Fit       0.001522
 2341 Fit       0.000480
 2342 Fit       0.001351
 2343 Fit      -0.000524
 2344 Fit       0.000398
 2345 Fit       0.003099
 2346 Fit       0.005994
 2347 Fit       0.007227
 2348 Fit       0.005932
 2349 Fit       0.003239
 2350 Fit       0.001204
 2351 Fit       0.000954
 2352 Fit       0.000638
 2353 Fit       0.000329
 2354 Fit       0.002115
 2355 Fit       0.003694
 2356 Fit       0.002328
 2357 Fit       0.001315
 2358 Fit       0.002201
 2359 Fit       0.004831
 2360 Fit      -0.001588
 2361 Fit      -0.004032
 2362 Fit      -0.000870
 2363 Fit       0.007239
 2364 Fit       0.000727
 2365 Fit      -0.004624
 2366 Fit      -0.007758
 2367 Fit      -0.008778
 2368 Fit      -0.007683
 2369 Fit      -0.004166
 2370 Fit       0.001877
 2371 Fit      -0.002512
 2372 Fit      -0.007158
 2373 Fit      -0.009824
 2374 Fit      -0.011284
 2375 Fit      -0.011796
 2376 Fit      -0.011116
 2377 Fit      -0.008968
 2378 Fit      -0.005083
 2379 Fit       0.000761
 2380 Fit      -0.005115
 2381 Fit      -0.008551
 2382 Fit      -0.012677
 2383 Fit      -0.013081
 2384 Fit      -0.012509
 2385 Fit      -0.010905
 2386 Fit      -0.008104
 2387 Fit      -0.003818
 2388 Fit      -0.012531
 2389 Fit      -0.012603
 2390 Fit      -0.012053
 2391 Fit      -0.010949
 2392 Fit      -0.009118
 2393 Fit      -0.006217
 2394 Fit      -0.010465
 2395 Fit      -0.010992
 2396 Fit      -0.003361
 2397 Fit      -0.004278
 2398 Fit      -0.003434
 2399 Fit      -0.005080
 2400 Fit      -0.003358
 2401 Fit      -0.002664
 2402 Fit      -0.004870
 2403 Fit      -0.002950
 2404 Fit      -0.002148
 2405 Fit      -0.003667
 2406 Fit      -0.002182
 2407 Fit      -0.001526
 2408 Fit      -0.003201
 2409 Fit      -0.001901
 2410 Fit      -0.001078
 2411 Fit      -0.000697
 2412 Fit      -0.000503
 2413 Fit      -0.000309
 2414 Fit       0.000038
 2415 Fit       0.001096
 2416 Fit       0.001530
 2417 Fit      -0.000869
 2418 Fit      -0.000320
 2419 Fit      -0.000003
 2420 Fit       0.000123
 2421 Fit      -0.000032
 2422 Fit       0.000672
 2423 Fit       0.001149
 2424 Fit       0.001420
 2425 Fit       0.001589
 2426 Fit       0.001898
 2427 Fit      -0.000107
 2428 Fit       0.000825
 2429 Fit       0.001579
 2430 Fit       0.002110
 2431 Fit       0.002435
 2432 Fit       0.002646
 2433 Fit       0.002922
 2434 Fit      -0.000161
 2435 Fit       0.000798
 2436 Fit       0.001694
 2437 Fit       0.002406
 2438 Fit       0.002902
 2439 Fit       0.003216
 2440 Fit       0.003443
 2441 Fit       0.003726
 2442 Fit       0.000294
 2443 Fit       0.001214
 2444 Fit       0.002162
 2445 Fit       0.002923
 2446 Fit       0.003442
 2447 Fit       0.003787
 2448 Fit       0.004120
 2449 Fit       0.001807
 2450 Fit       0.002746
 2451 Fit       0.003496
 2452 Fit       0.004047
 2453 Fit       0.002556
 2454 Fit       0.003385
 2455 Fit       0.004263
 2456 Fit       0.003739
 2457 Fit      -0.009730
 2458 Fit      -0.008045
 2459 Fit      -0.005613
 2460 Fit      -0.006312
 2461 Fit      -0.010558
 2462 Fit      -0.005719
 2463 Fit      -0.004123
 2464 Fit      -0.003513
 2465 Fit      -0.003629
 2466 Fit      -0.004764
 2467 Fit      -0.007684
 2468 Fit      -0.003323
 2469 Fit      -0.003336
 2470 Fit      -0.002995
 2471 Fit      -0.002666
 2472 Fit      -0.002580
 2473 Fit      -0.002870
 2474 Fit      -0.003698
 2475 Fit      -0.005417
 2476 Fit      -0.008989
 2477 Fit      -0.003203
 2478 Fit      -0.003123
 2479 Fit      -0.002771
 2480 Fit      -0.002451
 2481 Fit      -0.002277
 2482 Fit      -0.002307
 2483 Fit      -0.002590
 2484 Fit      -0.003197
 2485 Fit      -0.004312
 2486 Fit      -0.007475
 2487 Fit      -0.007277
 2488 Fit      -0.009384
 2489 Fit      -0.003074
 2490 Fit      -0.002954
 2491 Fit      -0.003798
 2492 Fit      -0.006005
 2493 Fit      -0.000722
 2494 Fit      -0.000386
 2495 Fit      -0.000546
 2496 Fit      -0.001340
 2497 Fit      -0.003105
 2498 Fit       0.001212
 2499 Fit       0.001116
 2500 Fit       0.000604
 2501 Fit      -0.000589
 2502 Fit      -0.003023
 2503 Fit       0.002308
 2504 Fit       0.002001
 2505 Fit       0.001412
 2506 Fit       0.000229
 2507 Fit      -0.002107
 2508 Fit       0.002770
 2509 Fit       0.002199
 2510 Fit       0.001315
 2511 Fit      -0.000283
 2512 Fit      -0.003387
 2513 Fit       0.002594
 2514 Fit       0.001578
 2515 Fit      -0.000142
 2516 Fit       0.000732
 2517 Fit      -0.001287
 2518 Fit       0.005512
 2519 Fit       0.004931
 2520 Fit       0.004592
 2521 Fit       0.004002
 2522 Fit       0.003299
 2523 Fit       0.002485
 2524 Fit       0.001704
 2525 Fit       0.001665
 2526 Fit       0.003828
 2527 Fit       0.007367
 2528 Fit       0.005835
 2529 Fit       0.005223
 2530 Fit       0.005173
 2531 Fit       0.005013
 2532 Fit       0.004620
 2533 Fit       0.004220
 2534 Fit       0.004179
 2535 Fit       0.005264
 2536 Fit       0.007617
 2537 Fit       0.008765
 2538 Fit       0.006759
 2539 Fit       0.005922
 2540 Fit       0.005557
 2541 Fit       0.005350
 2542 Fit       0.005697
 2543 Fit       0.006832
 2544 Fit       0.006117
 2545 Fit      -0.001583
 2546 Fit       0.001203
 2547 Fit       0.000476
 2548 Fit       0.003421
 2549 Fit       0.003556
 2550 Fit       0.002484
 2551 Fit       0.002019
 2552 Fit       0.004508
 2553 Fit       0.007629
 2554 Fit       0.007532
 2555 Fit       0.006079
 2556 Fit       0.005493
 2557 Fit       0.004348
 2558 Fit       0.002542
 2559 Fit       0.004846
 2560 Fit       0.006027
 2561 Fit       0.008226
 2562 Fit       0.008365
 2563 Fit       0.007068
 2564 Fit       0.005765
 2565 Fit       0.007069
 2566 Fit       0.008578
 2567 Fit       0.007504
 2568 Fit       0.006302
 2569 Fit       0.005188
 2570 Fit       0.012552
 2571 Fit       0.009783
 2572 Fit       0.005376
 2573 Fit       0.005143
 2574 Fit       0.004492
 2575 Fit       0.002327
 2576 Fit       0.014984
 2577 Fit       0.009551
 2578 Fit       0.006551
 2579 Fit       0.003132
 2580 Fit       0.002866
 2581 Fit       0.001006
 2582 Fit      -0.003444
 2583 Fit       0.001060
 2584 Fit       0.001025
 2585 Fit      -0.000594
 2586 Fit      -0.001604
 2587 Fit       0.009956
 2588 Fit       0.011877
 2589 Fit       0.012309
 2590 Fit       0.011324
 2591 Fit       0.011268
 2592 Fit       0.013296
 2593 Fit       0.014240
 2594 Fit       0.014151
 2595 Fit       0.013043
 2596 Fit       0.010890
 2597 Fit       0.011016
 2598 Fit       0.013553
 2599 Fit       0.015046
 2600 Fit       0.015554
 2601 Fit       0.015097
 2602 Fit       0.013667
 2603 Fit       0.011215
 2604 Fit       0.011726
 2605 Fit       0.014136
 2606 Fit       0.015551
 2607 Fit       0.016012
 2608 Fit       0.015528
 2609 Fit       0.014090
 2610 Fit       0.011655
 2611 Fit       0.010412
 2612 Fit       0.013149
 2613 Fit       0.014884
 2614 Fit       0.015650
 2615 Fit       0.015457
 2616 Fit       0.014303
 2617 Fit       0.012169
 2618 Fit       0.010175
 2619 Fit       0.012894
 2620 Fit       0.014337
 2621 Fit       0.014503
 2622 Fit       0.013392
 2623 Fit       0.011019
 2624 Fit       0.010958
 2625 Fit       0.012597
 2626 Fit       0.012207
 2627 Fit       0.009258
 2628 Fit       0.011284
 2629 Fit       0.006170
 2630 Fit       0.006578
 2631 Fit       0.011284
 2632 Fit       0.013271
 2633 Fit       0.013013
 2634 Fit       0.005887
 2635 Fit       0.010848
 2636 Fit       0.014183
 2637 Fit       0.015583
 2638 Fit       0.015190
 2639 Fit       0.004409
 2640 Fit       0.009172
 2641 Fit       0.012799
 2642 Fit       0.015167
 2643 Fit       0.016266
 2644 Fit       0.016333
 2645 Fit       0.015917
 2646 Fit       0.004181
 2647 Fit       0.008301
 2648 Fit       0.011595
 2649 Fit       0.013913
 2650 Fit       0.015166
 2651 Fit       0.015441
 2652 Fit       0.015312
 2653 Fit       0.010962
 2654 Fit       0.012450
 2655 Fit       0.012480
 -----------------------------------------------------------------
 Leave Link  602 at Thu Jan 16 21:47:04 2014, MaxMem=   235929600 cpu:         0.6

 Test job not archived.
 1\1\GINC-G30\SP\RHF\Gen\C7H9Cl1O1\KOLAR\16-Jan-2014\0\\# hf/gen pop=mk
  iop(6/33=2,6/41=5,6/42=2)\\na resp\\0,1\C,0,-1.015701,2.470528,-0.300
 538\C,0,-1.678702,1.124136,-0.59894\C,0,-1.011309,-0.080649,0.116999\C
 ,0,0.416697,-0.294072,-0.376754\C,0,1.482488,-0.062866,0.382823\Cl,0,3
 .123928,-0.303922,-0.176536\C,0,-1.782293,-1.31067,-0.163065\C,0,-2.39
 6085,-2.327986,-0.38026\O,0,-1.049869,0.215646,1.516926\H,0,0.026227,2
 .491213,-0.635713\H,0,-1.552778,3.272843,-0.818099\H,0,-1.033266,2.684
 637,0.771618\H,0,-2.72711,1.139564,-0.280752\H,0,-1.67353,0.920804,-1.
 676324\H,0,0.525668,-0.649563,-1.39815\H,0,1.425546,0.301055,1.400852\
 H,0,-2.944488,-3.222953,-0.570708\H,0,-0.844663,-0.606611,1.991399\\Ve
 rsion=AM64L-G09RevD.01\State=1-A\HF=-804.5523951\RMSD=5.546e-09\Dipole
 =-0.64469,-0.4090422,-0.0767982\Quadrupole=-3.7875552,2.4670283,1.3205
 268,3.1118933,2.3152775,-1.0908975\PG=C01 [X(C7H9Cl1O1)]\\@


 Until you make peace with who you are,
 you'll never be content with what you have.
                           -- Doris Mortman
 Job cpu time:       0 days  0 hours  0 minutes 11.2 seconds.
 File lengths (MBytes):  RWF=     10 Int=      0 D2E=      0 Chk=      2 Scr=      1
 Normal termination of Gaussian 09 at Thu Jan 16 21:47:05 2014.
10.68user 0.50system 0:17.84elapsed 62%CPU (0avgtext+0avgdata 2166592maxresident)k
253784inputs+23088outputs (9major+288174minor)pagefaults 0swaps
