Linux g25 2.6.38.6-client #1 SMP Tue Jun 12 11:27:21 CEST 2012 x86_64 GNU/Linux
Thu Jan 16 21:46:46 CET 2014

 Entering Gaussian System, Link 0=/usr/local/programs/common/gaussian/gaussian09_d01/arch/amd64-pgi_10.4.0-acml/g09/g09
 Initial command:
 /usr/local/programs/common/gaussian/gaussian09_d01/arch/amd64-pgi_10.4.0-acml/g09/l1.exe "/scratch/kolar/g09_17833/Gau-15198.inp" -scrdir="/scratch/kolar/g09_17833/"
 Entering Link 1 = /usr/local/programs/common/gaussian/gaussian09_d01/arch/amd64-pgi_10.4.0-acml/g09/l1.exe PID=     15207.
  
 Copyright (c) 1988,1990,1992,1993,1995,1998,2003,2009,2013,
            Gaussian, Inc.  All Rights Reserved.
  
 This is part of the Gaussian(R) 09 program.  It is based on
 the Gaussian(R) 03 system (copyright 2003, Gaussian, Inc.),
 the Gaussian(R) 98 system (copyright 1998, Gaussian, Inc.),
 the Gaussian(R) 94 system (copyright 1995, Gaussian, Inc.),
 the Gaussian 92(TM) system (copyright 1992, Gaussian, Inc.),
 the Gaussian 90(TM) system (copyright 1990, Gaussian, Inc.),
 the Gaussian 88(TM) system (copyright 1988, Gaussian, Inc.),
 the Gaussian 86(TM) system (copyright 1986, Carnegie Mellon
 University), and the Gaussian 82(TM) system (copyright 1983,
 Carnegie Mellon University). Gaussian is a federally registered
 trademark of Gaussian, Inc.
  
 This software contains proprietary and confidential information,
 including trade secrets, belonging to Gaussian, Inc.
  
 This software is provided under written license and may be
 used, copied, transmitted, or stored only in accord with that
 written license.
  
 The following legend is applicable only to US Government
 contracts under FAR:
  
                    RESTRICTED RIGHTS LEGEND
  
 Use, reproduction and disclosure by the US Government is
 subject to restrictions as set forth in subparagraphs (a)
 and (c) of the Commercial Computer Software - Restricted
 Rights clause in FAR 52.227-19.
  
 Gaussian, Inc.
 340 Quinnipiac St., Bldg. 40, Wallingford CT 06492
  
  
 ---------------------------------------------------------------
 Warning -- This program may not be used in any manner that
 competes with the business of Gaussian, Inc. or will provide
 assistance to any competitor of Gaussian, Inc.  The licensee
 of this program is prohibited from giving any competitor of
 Gaussian, Inc. access to this program.  By using this program,
 the user acknowledges that Gaussian, Inc. is engaged in the
 business of creating and licensing software in the field of
 computational chemistry and represents and warrants to the
 licensee that it is not a competitor of Gaussian, Inc. and that
 it will not use this program in any manner prohibited above.
 ---------------------------------------------------------------
  

 Cite this work as:
 Gaussian 09, Revision D.01,
 M. J. Frisch, G. W. Trucks, H. B. Schlegel, G. E. Scuseria, 
 M. A. Robb, J. R. Cheeseman, G. Scalmani, V. Barone, B. Mennucci, 
 G. A. Petersson, H. Nakatsuji, M. Caricato, X. Li, H. P. Hratchian, 
 A. F. Izmaylov, J. Bloino, G. Zheng, J. L. Sonnenberg, M. Hada, 
 M. Ehara, K. Toyota, R. Fukuda, J. Hasegawa, M. Ishida, T. Nakajima, 
 Y. Honda, O. Kitao, H. Nakai, T. Vreven, J. A. Montgomery, Jr., 
 J. E. Peralta, F. Ogliaro, M. Bearpark, J. J. Heyd, E. Brothers, 
 K. N. Kudin, V. N. Staroverov, T. Keith, R. Kobayashi, J. Normand, 
 K. Raghavachari, A. Rendell, J. C. Burant, S. S. Iyengar, J. Tomasi, 
 M. Cossi, N. Rega, J. M. Millam, M. Klene, J. E. Knox, J. B. Cross, 
 V. Bakken, C. Adamo, J. Jaramillo, R. Gomperts, R. E. Stratmann, 
 O. Yazyev, A. J. Austin, R. Cammi, C. Pomelli, J. W. Ochterski, 
 R. L. Martin, K. Morokuma, V. G. Zakrzewski, G. A. Voth, 
 P. Salvador, J. J. Dannenberg, S. Dapprich, A. D. Daniels, 
 O. Farkas, J. B. Foresman, J. V. Ortiz, J. Cioslowski, 
 and D. J. Fox, Gaussian, Inc., Wallingford CT, 2013.
 
 ******************************************
 Gaussian 09:  AM64L-G09RevD.01 24-Apr-2013
                16-Jan-2014 
 ******************************************
 %mem=1800mb
 -----------------------------------------
 # hf/gen pop=mk iop(6/33=2,6/41=5,6/42=2)
 -----------------------------------------
 1/38=1/1;
 2/12=2,17=6,18=5,40=1/2;
 3/5=7,11=9,16=1,25=1,30=1/1,2,3;
 4//1;
 5/5=2,38=5/2;
 6/7=2,8=2,9=2,10=2,15=8,20=1,28=1,33=2,41=5,42=2/1,2;
 99/5=1,9=1/99;
 -------
 na resp
 -------
 Symbolic Z-matrix:
 Charge =  0 Multiplicity = 1
 6                    -5.11687  -1.27168   0.95225 
 6                    -5.19946  -0.58049  -0.40935 
 6                    -6.57553   0.0425   -0.65218 
 7                    -4.20031   0.49794  -0.48878 
 7                    -2.88529   0.03529  -0.54093 
 6                    -1.93028   0.47686   0.34388 
 8                    -2.10256   1.31693   1.20169 
 6                    -0.58154  -0.2395    0.16917 
 8                     0.40946   0.76343   0.04479 
 6                     1.72002   0.3814    0.01217 
 6                     2.65058   1.42803  -0.06862 
 6                     4.01185   1.15625  -0.1129 
 6                     4.45105  -0.16985  -0.07591 
 6                     3.53936  -1.21585   0.005 
 6                     2.16843  -0.94331   0.04825 
 17                    6.17668  -0.51672  -0.13284 
 1                    -5.84573  -2.08766   1.01117 
 1                    -4.12173  -1.69498   1.12197 
 1                    -5.32052  -0.5539    1.75351 
 1                    -5.01723  -1.33867  -1.1979 
 1                    -6.63294   0.52006  -1.63866 
 1                    -7.35504  -0.72453  -0.60864 
 1                    -6.79034   0.80051   0.10868 
 1                    -4.37471   1.08683  -1.30225 
 1                    -2.62709  -0.63003  -1.26621 
 1                    -0.56601  -0.90844  -0.70473 
 1                    -0.40936  -0.84811   1.0681 
 1                     2.28305   2.4488   -0.09125 
 1                     4.73096   1.96618  -0.17347 
 1                     3.88966  -2.2422    0.03383 
 1                     1.47176  -1.77138   0.1096 
 
                          Input orientation:                          
 ---------------------------------------------------------------------
 Center     Atomic      Atomic             Coordinates (Angstroms)
 Number     Number       Type             X           Y           Z
 ---------------------------------------------------------------------
      1          6           0       -5.116874   -1.271678    0.952246
      2          6           0       -5.199464   -0.580491   -0.409349
      3          6           0       -6.575530    0.042502   -0.652181
      4          7           0       -4.200305    0.497941   -0.488777
      5          7           0       -2.885292    0.035293   -0.540934
      6          6           0       -1.930280    0.476859    0.343876
      7          8           0       -2.102556    1.316932    1.201688
      8          6           0       -0.581542   -0.239501    0.169169
      9          8           0        0.409462    0.763425    0.044794
     10          6           0        1.720024    0.381403    0.012174
     11          6           0        2.650576    1.428031   -0.068619
     12          6           0        4.011854    1.156250   -0.112902
     13          6           0        4.451054   -0.169852   -0.075906
     14          6           0        3.539357   -1.215851    0.005003
     15          6           0        2.168430   -0.943307    0.048251
     16         17           0        6.176680   -0.516715   -0.132836
     17          1           0       -5.845728   -2.087662    1.011175
     18          1           0       -4.121731   -1.694977    1.121970
     19          1           0       -5.320522   -0.553901    1.753505
     20          1           0       -5.017226   -1.338668   -1.197895
     21          1           0       -6.632943    0.520064   -1.638658
     22          1           0       -7.355041   -0.724532   -0.608639
     23          1           0       -6.790342    0.800513    0.108677
     24          1           0       -4.374711    1.086826   -1.302247
     25          1           0       -2.627088   -0.630028   -1.266205
     26          1           0       -0.566014   -0.908444   -0.704729
     27          1           0       -0.409359   -0.848114    1.068101
     28          1           0        2.283053    2.448800   -0.091252
     29          1           0        4.730963    1.966178   -0.173472
     30          1           0        3.889664   -2.242196    0.033828
     31          1           0        1.471763   -1.771379    0.109600
 ---------------------------------------------------------------------
                    Distance matrix (angstroms):
                    1          2          3          4          5
     1  C    0.000000
     2  C    1.529216   0.000000
     3  C    2.535534   1.529917   0.000000
     4  N    2.459308   1.472292   2.424009   0.000000
     5  N    2.986255   2.398311   3.691921   1.394999   0.000000
     6  C    3.685360   3.517513   4.770654   2.418009   1.374743
     7  O    3.981110   3.973222   5.006845   2.815843   2.300436
     8  C    4.716761   4.666493   6.056569   3.751288   2.426319
     9  O    5.958649   5.785534   7.056601   4.648132   3.424713
    10  C    7.096449   6.998731   8.329012   5.942628   4.651307
    11  C    8.286367   8.110079   9.347795   6.926483   5.727882
    12  C    9.505948   9.378301  10.659454   8.247073   7.000741
    13  C    9.685885   9.665004  11.043674   8.686911   7.353931
    14  C    8.708084   8.771680  10.214024   7.942498   6.568068
    15  C    7.348516   7.391001   8.827189   6.551823   5.181207
    16  Cl  11.370652  11.379683  12.775027  10.432547   9.087937
    17  H    1.095687   2.169588   2.799458   3.412128   3.959818
    18  H    1.094668   2.179111   3.491071   2.722052   2.699605
    19  H    1.094848   2.166402   2.778141   2.718287   3.397344
    20  H    2.153491   1.108985   2.152614   2.131511   2.620021
    21  H    3.495939   2.185700   1.097497   2.690807   3.935084
    22  H    2.783006   2.169557   1.094475   3.385434   4.534377
    23  H    2.793936   2.169428   1.095276   2.675218   4.031994
    24  H    3.346055   2.063354   2.521270   1.019282   1.975775
    25  H    3.395920   2.711784   4.052100   2.086078   1.017516
    26  H    4.856731   4.654424   6.084517   3.902900   2.509287
    27  H    4.727952   5.019919   6.463299   4.313584   3.082150
    28  H    8.348040   8.078728   9.196706   6.782168   5.721802
    29  H   10.427408  10.254489  11.478958   9.056638   7.865792
    30  H    9.105115   9.250401  10.733627   8.557398   7.170588
    31  H    6.661073   6.796528   8.284286   6.138422   4.761427
                    6          7          8          9         10
     6  C    0.000000
     7  O    1.212948   0.000000
     8  C    1.537136   2.408747   0.000000
     9  O    2.376123   2.820462   1.415422   0.000000
    10  C    3.666587   4.111238   2.389011   1.365495   0.000000
    11  C    4.696714   4.921208   3.644694   2.340332   1.402813
    12  C    5.998264   6.256195   4.809051   3.627176   2.422502
    13  C    6.427743   6.840510   5.039041   4.149704   2.787502
    14  C    5.735593   6.299066   4.238162   3.703425   2.421001
    15  C    4.347837   4.967939   2.841181   2.450901   1.399009
    16  Cl   8.181518   8.584228   6.770644   5.910255   4.548563
    17  H    4.727874   5.063486   5.642369   6.941901   8.020903
    18  H    3.181943   3.626985   3.944512   5.266475   6.298341
    19  H    3.813563   3.762954   5.006685   6.122725   7.312750
    20  H    3.899030   4.615789   4.769940   5.950799   7.057864
    21  H    5.103660   5.406197   6.361182   7.244909   8.515664
    22  H    5.637256   5.918907   6.835242   7.932748   9.163258
    23  H    4.876502   4.841146   6.295593   7.200183   8.521226
    24  H    3.009489   3.389001   4.279292   4.980705   6.274641
    25  H    2.074392   3.186892   2.529243   3.589020   4.642696
    26  H    2.209040   3.308729   1.100647   2.075689   2.720960
    27  H    2.143188   2.751760   1.099152   2.077182   2.675998
    28  H    4.672265   4.710243   3.937091   2.523755   2.145187
    29  H    6.845281   7.000683   5.762389   4.491061   3.407599
    30  H    6.431263   7.066682   4.901101   4.598444   3.404567
    31  H    4.084526   4.848307   2.562471   2.749166   2.169239
                   11         12         13         14         15
    11  C    0.000000
    12  C    1.388850   0.000000
    13  C    2.407281   1.397430   0.000000
    14  C    2.790244   2.421573   1.389911   0.000000
    15  C    2.422678   2.798629   2.413301   1.398425   0.000000
    16  Cl   4.027353   2.735997   1.761062   2.731897   4.034952
    17  H    9.258144  10.438316  10.530122   9.479043   8.152515
    18  H    7.552140   8.706871   8.789400   7.756897   6.425263
    19  H    8.413477   9.669609   9.948766   9.054993   7.690509
    20  H    8.229525   9.430064   9.605900   8.641595   7.303618
    21  H    9.459025  10.772389  11.214864  10.449436   9.080269
    22  H   10.248781  11.532103  11.831118  10.922722   9.548605
    23  H    9.463411  10.810323  11.284709  10.525168   9.127111
    24  H    7.140932   8.470763   8.998738   8.345280   6.982691
    25  H    5.789953   6.971115   7.192264   6.323306   4.982262
    26  H    4.026190   5.056688   5.109981   4.177594   2.836438
    27  H    3.979469   4.995935   5.039088   4.105821   2.773833
    28  H    1.085152   2.158682   3.399677   3.875207   3.396909
    29  H    2.151420   1.084790   2.156500   3.402512   3.883406
    30  H    3.875100   3.403806   2.149840   1.084864   2.156378
    31  H    3.414321   3.882342   3.387547   2.143478   1.083887
                   16         17         18         19         20
    16  Cl   0.000000
    17  H   12.178462   0.000000
    18  H   10.441269   1.771621   0.000000
    19  H   11.650979   1.783064   1.771437   0.000000
    20  H   11.274462   2.475358   2.512099   3.068975   0.000000
    21  H   12.939430   3.800205   4.339776   3.792442   2.501939
    22  H   13.541678   2.599990   3.793556   3.122196   2.487924
    23  H   13.035992   3.169914   3.791532   2.588487   3.070369
    24  H   10.736420   4.194423   3.698548   3.595019   2.511322
    25  H    8.877145   4.203665   3.011885   4.047101   2.493912
    26  H    6.778232   5.675408   4.074136   5.364137   4.499066
    27  H    6.702834   5.576184   3.808121   4.967480   5.158277
    28  H    4.894521   9.374002   7.724251   8.380555   8.298412
    29  H    2.873414  11.388740   9.667079  10.540227  10.344015
    30  H    2.869757   9.785548   8.103453   9.520250   9.036935
    31  H    4.875367   7.379603   5.684884   7.093646   6.633533
                   21         22         23         24         25
    21  H    0.000000
    22  H    1.769572   0.000000
    23  H    1.776684   1.777411   0.000000
    24  H    2.352446   3.555907   2.812109   0.000000
    25  H    4.184293   4.774397   4.611879   2.450117   0.000000
    26  H    6.302419   6.792197   6.505722   4.341003   2.154251
    27  H    6.923255   7.146274   6.659986   5.008648   3.227207
    28  H    9.252539  10.160245   9.224062   6.902703   5.913475
    29  H   11.548869  12.389543  11.583560   9.217412   7.878786
    30  H   11.006932  11.364834  11.105233   9.009294   6.837926
    31  H    8.601940   8.917636   8.653150   6.659122   4.471700
                   26         27         28         29         30
    26  H    0.000000
    27  H    1.780760   0.000000
    28  H    4.445742   4.411669   0.000000
    29  H    6.050095   5.990380   2.496387   0.000000
    30  H    4.709292   4.636247   4.960069   4.296646   0.000000
    31  H    2.358034   2.304292   4.302144   4.967076   2.464479
                   31
    31  H    0.000000
 Stoichiometry    C11H15ClN2O2
 Framework group  C1[X(C11H15ClN2O2)]
 Deg. of freedom    87
 Full point group                 C1      NOp   1
 Largest Abelian subgroup         C1      NOp   1
 Largest concise Abelian subgroup C1      NOp   1
                         Standard orientation:                         
 ---------------------------------------------------------------------
 Center     Atomic      Atomic             Coordinates (Angstroms)
 Number     Number       Type             X           Y           Z
 ---------------------------------------------------------------------
      1          6           0       -5.116874   -1.271678    0.952246
      2          6           0       -5.199464   -0.580491   -0.409349
      3          6           0       -6.575530    0.042502   -0.652181
      4          7           0       -4.200305    0.497941   -0.488777
      5          7           0       -2.885292    0.035293   -0.540934
      6          6           0       -1.930280    0.476859    0.343876
      7          8           0       -2.102556    1.316932    1.201688
      8          6           0       -0.581542   -0.239501    0.169169
      9          8           0        0.409462    0.763425    0.044794
     10          6           0        1.720024    0.381403    0.012174
     11          6           0        2.650576    1.428031   -0.068619
     12          6           0        4.011854    1.156250   -0.112902
     13          6           0        4.451054   -0.169852   -0.075906
     14          6           0        3.539357   -1.215851    0.005003
     15          6           0        2.168430   -0.943307    0.048251
     16         17           0        6.176680   -0.516715   -0.132836
     17          1           0       -5.845728   -2.087662    1.011175
     18          1           0       -4.121731   -1.694977    1.121970
     19          1           0       -5.320522   -0.553901    1.753505
     20          1           0       -5.017226   -1.338668   -1.197895
     21          1           0       -6.632943    0.520064   -1.638658
     22          1           0       -7.355041   -0.724532   -0.608639
     23          1           0       -6.790342    0.800513    0.108677
     24          1           0       -4.374711    1.086826   -1.302247
     25          1           0       -2.627088   -0.630028   -1.266205
     26          1           0       -0.566014   -0.908444   -0.704729
     27          1           0       -0.409359   -0.848114    1.068101
     28          1           0        2.283053    2.448800   -0.091252
     29          1           0        4.730963    1.966178   -0.173472
     30          1           0        3.889664   -2.242196    0.033828
     31          1           0        1.471763   -1.771379    0.109600
 ---------------------------------------------------------------------
 Rotational constants (GHZ):      2.0561502      0.1227739      0.1194676
 General basis read from cards:  (5D, 7F)
 There are   274 symmetry adapted cartesian basis functions of A   symmetry.
 There are   258 symmetry adapted basis functions of A   symmetry.
   258 basis functions,   532 primitive gaussians,   274 cartesian basis functions
    64 alpha electrons       64 beta electrons
       nuclear repulsion energy      1116.7614634739 Hartrees.
 NAtoms=   31 NActive=   31 NUniq=   31 SFac= 1.00D+00 NAtFMM=   60 NAOKFM=F Big=F
 Integral buffers will be    131072 words long.
 Raffenetti 1 integral format.
 Two-electron integral symmetry is turned on.
 One-electron integrals computed using PRISM.
 NBasis=   258 RedAO= T EigKep=  4.83D-04  NBF=   258
 NBsUse=   258 1.00D-06 EigRej= -1.00D+00 NBFU=   258
 ExpMin= 1.43D-01 ExpMax= 2.52D+04 ExpMxC= 3.78D+03 IAcc=1 IRadAn=         1 AccDes= 0.00D+00
 Harris functional with IExCor=  205 and IRadAn=       1 diagonalized for initial guess.
 HarFok:  IExCor=  205 AccDes= 0.00D+00 IRadAn=         1 IDoV= 1 UseB2=F ITyADJ=14
 ICtDFT=  3500011 ScaDFX=  1.000000  1.000000  1.000000  1.000000
 FoFCou: FMM=F IPFlag=           0 FMFlag=      100000 FMFlg1=           0
         NFxFlg=           0 DoJE=T BraDBF=F KetDBF=T FulRan=T
         wScrn=  0.000000 ICntrl=     500 IOpCl=  0 I1Cent=   200000004 NGrid=           0
         NMat0=    1 NMatS0=      1 NMatT0=    0 NMatD0=    1 NMtDS0=    0 NMtDT0=    0
 Petite list used in FoFCou.
 Requested convergence on RMS density matrix=1.00D-08 within 128 cycles.
 Requested convergence on MAX density matrix=1.00D-06.
 Requested convergence on             energy=1.00D-06.
 No special actions if energy rises.
 Integral accuracy reduced to 1.0D-05 until final iterations.
 Initial convergence to 1.0D-05 achieved.  Increase integral accuracy.
 SCF Done:  E(RHF) =  -1143.33748531     A.U. after   16 cycles
            NFock= 16  Conv=0.53D-08     -V/T= 2.0006

 **********************************************************************

            Population analysis using the SCF density.

 **********************************************************************

 Orbital symmetries:
 BldTbl:  Degeneracy threshold= 1.00D-02
       Occupied  (A) (A) (A) (A) (A) (A) (A) (A) (A) (A) (A) (A)
                 (A) (A) (A) (A) (A) (A) (A) (A) (A) (A) (A) (A)
                 (A) (A) (A) (A) (A) (A) (A) (A) (A) (A) (A) (A)
                 (A) (A) (A) (A) (A) (A) (A) (A) (A) (A) (A) (A)
                 (A) (A) (A) (A) (A) (A) (A) (A) (A) (A) (A) (A)
                 (A) (A) (A) (A)
       Virtual   (A) (A) (A) (A) (A) (A) (A) (A) (A) (A) (A) (A)
                 (A) (A) (A) (A) (A) (A) (A) (A) (A) (A) (A) (A)
                 (A) (A) (A) (A) (A) (A) (A) (A) (A) (A) (A) (A)
                 (A) (A) (A) (A) (A) (A) (A) (A) (A) (A) (A) (A)
                 (A) (A) (A) (A) (A) (A) (A) (A) (A) (A) (A) (A)
                 (A) (A) (A) (A) (A) (A) (A) (A) (A) (A) (A) (A)
                 (A) (A) (A) (A) (A) (A) (A) (A) (A) (A) (A) (A)
                 (A) (A) (A) (A) (A) (A) (A) (A) (A) (A) (A) (A)
                 (A) (A) (A) (A) (A) (A) (A) (A) (A) (A) (A) (A)
                 (A) (A) (A) (A) (A) (A) (A) (A) (A) (A) (A) (A)
                 (A) (A) (A) (A) (A) (A) (A) (A) (A) (A) (A) (A)
                 (A) (A) (A) (A) (A) (A) (A) (A) (A) (A) (A) (A)
                 (A) (A) (A) (A) (A) (A) (A) (A) (A) (A) (A) (A)
                 (A) (A) (A) (A) (A) (A) (A) (A) (A) (A) (A) (A)
                 (A) (A) (A) (A) (A) (A) (A) (A) (A) (A) (A) (A)
                 (A) (A) (A) (A) (A) (A) (A) (A) (A) (A) (A) (A)
                 (A) (A)
 The electronic state is 1-A.
 Alpha  occ. eigenvalues -- -104.81765 -20.60425 -20.52844 -15.62216 -15.59713
 Alpha  occ. eigenvalues --  -11.36127 -11.31764 -11.31370 -11.29912 -11.27298
 Alpha  occ. eigenvalues --  -11.25913 -11.25668 -11.25032 -11.24359 -11.22665
 Alpha  occ. eigenvalues --  -11.21758 -10.55597  -8.02455  -8.02128  -8.02120
 Alpha  occ. eigenvalues --   -1.42921  -1.38477  -1.30837  -1.18470  -1.13778
 Alpha  occ. eigenvalues --   -1.11279  -1.04177  -1.03271  -1.00368  -0.95564
 Alpha  occ. eigenvalues --   -0.94334  -0.85727  -0.81756  -0.80808  -0.79818
 Alpha  occ. eigenvalues --   -0.74113  -0.73131  -0.69977  -0.67976  -0.66989
 Alpha  occ. eigenvalues --   -0.65709  -0.64882  -0.62610  -0.61753  -0.60725
 Alpha  occ. eigenvalues --   -0.59904  -0.56130  -0.55813  -0.55250  -0.54793
 Alpha  occ. eigenvalues --   -0.54240  -0.52760  -0.52410  -0.50734  -0.50526
 Alpha  occ. eigenvalues --   -0.50240  -0.49259  -0.45098  -0.44831  -0.42189
 Alpha  occ. eigenvalues --   -0.41364  -0.39550  -0.35476  -0.31580
 Alpha virt. eigenvalues --    0.12289   0.13953   0.18218   0.19244   0.19580
 Alpha virt. eigenvalues --    0.21843   0.24945   0.26512   0.27237   0.28140
 Alpha virt. eigenvalues --    0.28440   0.28889   0.29517   0.30982   0.31306
 Alpha virt. eigenvalues --    0.32376   0.33164   0.33514   0.34562   0.35237
 Alpha virt. eigenvalues --    0.36692   0.38831   0.38959   0.40877   0.41814
 Alpha virt. eigenvalues --    0.43021   0.45182   0.45608   0.48329   0.48744
 Alpha virt. eigenvalues --    0.51341   0.53901   0.59488   0.60900   0.61288
 Alpha virt. eigenvalues --    0.62793   0.64030   0.68387   0.69258   0.70617
 Alpha virt. eigenvalues --    0.71310   0.73908   0.74138   0.74757   0.76159
 Alpha virt. eigenvalues --    0.77170   0.78496   0.80453   0.81075   0.81490
 Alpha virt. eigenvalues --    0.82550   0.82846   0.83511   0.84600   0.87460
 Alpha virt. eigenvalues --    0.87749   0.89175   0.89704   0.90466   0.92678
 Alpha virt. eigenvalues --    0.94173   0.94438   0.95990   0.96641   0.97725
 Alpha virt. eigenvalues --    0.98685   0.99643   1.02332   1.05845   1.06567
 Alpha virt. eigenvalues --    1.09080   1.09519   1.10251   1.10924   1.11297
 Alpha virt. eigenvalues --    1.12057   1.13121   1.14492   1.15212   1.15523
 Alpha virt. eigenvalues --    1.15642   1.15855   1.17387   1.18184   1.18607
 Alpha virt. eigenvalues --    1.19409   1.19714   1.20333   1.21148   1.22077
 Alpha virt. eigenvalues --    1.22830   1.23830   1.24903   1.26674   1.27902
 Alpha virt. eigenvalues --    1.29742   1.31230   1.32853   1.34590   1.35840
 Alpha virt. eigenvalues --    1.38748   1.39900   1.41667   1.43745   1.46346
 Alpha virt. eigenvalues --    1.47262   1.48883   1.52630   1.54456   1.57056
 Alpha virt. eigenvalues --    1.60962   1.62167   1.62959   1.65895   1.68087
 Alpha virt. eigenvalues --    1.69887   1.70641   1.72397   1.74022   1.74953
 Alpha virt. eigenvalues --    1.76997   1.81957   1.83169   1.83298   1.86591
 Alpha virt. eigenvalues --    1.93052   1.96679   2.00425   2.01417   2.02333
 Alpha virt. eigenvalues --    2.06125   2.07560   2.10685   2.11129   2.12419
 Alpha virt. eigenvalues --    2.13519   2.16641   2.18791   2.19411   2.21565
 Alpha virt. eigenvalues --    2.23618   2.25587   2.26453   2.28740   2.29212
 Alpha virt. eigenvalues --    2.31038   2.32182   2.35765   2.36644   2.37191
 Alpha virt. eigenvalues --    2.40084   2.41777   2.43169   2.43934   2.44578
 Alpha virt. eigenvalues --    2.45491   2.46172   2.47195   2.53369   2.55667
 Alpha virt. eigenvalues --    2.56935   2.57971   2.58593   2.61189   2.61582
 Alpha virt. eigenvalues --    2.65375   2.67302   2.69181   2.74490   2.75028
 Alpha virt. eigenvalues --    2.80827   2.83386   2.84303   2.87276   2.88133
 Alpha virt. eigenvalues --    2.92695   2.96226   2.98929   2.99141   3.01786
 Alpha virt. eigenvalues --    3.03308   3.06872   3.08685   3.09660   3.11171
 Alpha virt. eigenvalues --    3.13039   3.15835   3.25054   3.32596   3.34640
 Alpha virt. eigenvalues --    3.39556   3.54252   3.57350   3.77249
          Condensed to atoms (all electrons):
               1          2          3          4          5          6
     1  C    5.163393   0.341431  -0.055120  -0.070979  -0.004997   0.000483
     2  C    0.341431   4.905875   0.358562   0.271731  -0.068956   0.002568
     3  C   -0.055120   0.358562   5.158226  -0.064327   0.004547  -0.000124
     4  N   -0.070979   0.271731  -0.064327   6.946994   0.177473  -0.047697
     5  N   -0.004997  -0.068956   0.004547   0.177473   7.251028   0.225340
     6  C    0.000483   0.002568  -0.000124  -0.047697   0.225340   4.167300
     7  O    0.000254  -0.000157  -0.000002   0.005119  -0.086545   0.632567
     8  C   -0.000031  -0.000192   0.000002   0.004103  -0.102930   0.340520
     9  O    0.000000   0.000000   0.000000  -0.000033   0.000381  -0.032629
    10  C    0.000000   0.000000   0.000000   0.000000  -0.000042   0.001814
    11  C    0.000000   0.000000   0.000000   0.000000   0.000000  -0.000046
    12  C    0.000000   0.000000   0.000000   0.000000   0.000000   0.000001
    13  C    0.000000   0.000000   0.000000   0.000000   0.000000   0.000000
    14  C    0.000000   0.000000   0.000000   0.000000   0.000000   0.000003
    15  C    0.000000   0.000000   0.000000   0.000000  -0.000013   0.000307
    16  Cl   0.000000   0.000000   0.000000   0.000000   0.000000   0.000000
    17  H    0.383597  -0.035560  -0.003819   0.003721  -0.000145   0.000016
    18  H    0.390322  -0.033286   0.004206  -0.004634   0.004482  -0.000303
    19  H    0.386223  -0.035292  -0.004205   0.000992   0.000190   0.000047
    20  H   -0.059923   0.409603  -0.048170  -0.057441  -0.001907  -0.000427
    21  H    0.004573  -0.036827   0.387986  -0.002576  -0.000063  -0.000002
    22  H   -0.003436  -0.034268   0.389680   0.003620  -0.000091   0.000001
    23  H   -0.004908  -0.034935   0.385192   0.000247  -0.000063  -0.000006
    24  H    0.005394  -0.043931  -0.001801   0.342393  -0.051845   0.001694
    25  H   -0.000484  -0.001448  -0.000115  -0.035099   0.325068  -0.031798
    26  H   -0.000005  -0.000011   0.000000   0.000174   0.008398  -0.050102
    27  H    0.000008   0.000015   0.000000  -0.000128   0.000892  -0.021421
    28  H    0.000000   0.000000   0.000000   0.000000   0.000000  -0.000012
    29  H    0.000000   0.000000   0.000000   0.000000   0.000000   0.000000
    30  H    0.000000   0.000000   0.000000   0.000000   0.000000   0.000000
    31  H    0.000000   0.000000   0.000000   0.000000   0.000005   0.000077
               7          8          9         10         11         12
     1  C    0.000254  -0.000031   0.000000   0.000000   0.000000   0.000000
     2  C   -0.000157  -0.000192   0.000000   0.000000   0.000000   0.000000
     3  C   -0.000002   0.000002   0.000000   0.000000   0.000000   0.000000
     4  N    0.005119   0.004103  -0.000033   0.000000   0.000000   0.000000
     5  N   -0.086545  -0.102930   0.000381  -0.000042   0.000000   0.000000
     6  C    0.632567   0.340520  -0.032629   0.001814  -0.000046   0.000001
     7  O    8.097264  -0.073124   0.002321   0.000297  -0.000014   0.000000
     8  C   -0.073124   5.006403   0.198806  -0.046610   0.002416  -0.000070
     9  O    0.002321   0.198806   8.457043   0.237491  -0.047461   0.002184
    10  C    0.000297  -0.046610   0.237491   4.390141   0.572127  -0.036805
    11  C   -0.000014   0.002416  -0.047461   0.572127   4.954341   0.537182
    12  C    0.000000  -0.000070   0.002184  -0.036805   0.537182   4.929623
    13  C    0.000000   0.000020  -0.000027  -0.030332  -0.044720   0.518006
    14  C    0.000000  -0.000207   0.003484  -0.022513  -0.031428  -0.045842
    15  C   -0.000013  -0.008531  -0.054917   0.527183  -0.051017  -0.030653
    16  Cl   0.000000   0.000000   0.000001   0.000292   0.002164  -0.063067
    17  H    0.000002   0.000001   0.000000   0.000000   0.000000   0.000000
    18  H   -0.000131   0.000030   0.000000   0.000000   0.000000   0.000000
    19  H    0.000097   0.000008   0.000000   0.000000   0.000000   0.000000
    20  H   -0.000009   0.000008   0.000000   0.000000   0.000000   0.000000
    21  H    0.000000   0.000000   0.000000   0.000000   0.000000   0.000000
    22  H    0.000000   0.000000   0.000000   0.000000   0.000000   0.000000
    23  H   -0.000003   0.000000   0.000000   0.000000   0.000000   0.000000
    24  H    0.000246  -0.000164   0.000005   0.000000   0.000000   0.000000
    25  H    0.001803   0.004666  -0.000075  -0.000005   0.000000   0.000000
    26  H    0.002229   0.385836  -0.038663  -0.000866   0.000060  -0.000004
    27  H    0.000231   0.375206  -0.034975  -0.001334   0.000050  -0.000009
    28  H    0.000008  -0.000164   0.000569  -0.027097   0.375805  -0.028575
    29  H    0.000000   0.000002  -0.000039   0.001837  -0.024452   0.381274
    30  H    0.000000  -0.000010  -0.000028   0.000851   0.000293   0.001984
    31  H    0.000001   0.001697  -0.004544  -0.031139   0.001979   0.000194
              13         14         15         16         17         18
     1  C    0.000000   0.000000   0.000000   0.000000   0.383597   0.390322
     2  C    0.000000   0.000000   0.000000   0.000000  -0.035560  -0.033286
     3  C    0.000000   0.000000   0.000000   0.000000  -0.003819   0.004206
     4  N    0.000000   0.000000   0.000000   0.000000   0.003721  -0.004634
     5  N    0.000000   0.000000  -0.000013   0.000000  -0.000145   0.004482
     6  C    0.000000   0.000003   0.000307   0.000000   0.000016  -0.000303
     7  O    0.000000   0.000000  -0.000013   0.000000   0.000002  -0.000131
     8  C    0.000020  -0.000207  -0.008531   0.000000   0.000001   0.000030
     9  O   -0.000027   0.003484  -0.054917   0.000001   0.000000   0.000000
    10  C   -0.030332  -0.022513   0.527183   0.000292   0.000000   0.000000
    11  C   -0.044720  -0.031428  -0.051017   0.002164   0.000000   0.000000
    12  C    0.518006  -0.045842  -0.030653  -0.063067   0.000000   0.000000
    13  C    5.058805   0.541507  -0.043965   0.212730   0.000000   0.000000
    14  C    0.541507   4.932838   0.495834  -0.064141   0.000000   0.000000
    15  C   -0.043965   0.495834   5.085697   0.002477   0.000000   0.000000
    16  Cl   0.212730  -0.064141   0.002477  16.918362   0.000000   0.000000
    17  H    0.000000   0.000000   0.000000   0.000000   0.541361  -0.027996
    18  H    0.000000   0.000000   0.000000   0.000000  -0.027996   0.529820
    19  H    0.000000   0.000000   0.000000   0.000000  -0.024214  -0.025162
    20  H    0.000000   0.000000   0.000000   0.000000   0.000063  -0.002601
    21  H    0.000000   0.000000   0.000000   0.000000  -0.000075  -0.000100
    22  H    0.000000   0.000000   0.000000   0.000000   0.001622  -0.000054
    23  H    0.000000   0.000000   0.000000   0.000000   0.000279  -0.000065
    24  H    0.000000   0.000000   0.000000   0.000000  -0.000109  -0.000020
    25  H    0.000000   0.000000   0.000003   0.000000   0.000033  -0.000054
    26  H   -0.000004  -0.000174   0.000841   0.000000   0.000000   0.000007
    27  H   -0.000003  -0.000255   0.001092   0.000000   0.000000   0.000028
    28  H    0.002500  -0.000169   0.003816  -0.000073   0.000000   0.000000
    29  H   -0.029577   0.002242   0.000067   0.000417   0.000000   0.000000
    30  H   -0.026827   0.380644  -0.024868   0.000551   0.000000   0.000000
    31  H    0.002157  -0.027094   0.382322  -0.000088   0.000000   0.000000
              19         20         21         22         23         24
     1  C    0.386223  -0.059923   0.004573  -0.003436  -0.004908   0.005394
     2  C   -0.035292   0.409603  -0.036827  -0.034268  -0.034935  -0.043931
     3  C   -0.004205  -0.048170   0.387986   0.389680   0.385192  -0.001801
     4  N    0.000992  -0.057441  -0.002576   0.003620   0.000247   0.342393
     5  N    0.000190  -0.001907  -0.000063  -0.000091  -0.000063  -0.051845
     6  C    0.000047  -0.000427  -0.000002   0.000001  -0.000006   0.001694
     7  O    0.000097  -0.000009   0.000000   0.000000  -0.000003   0.000246
     8  C    0.000008   0.000008   0.000000   0.000000   0.000000  -0.000164
     9  O    0.000000   0.000000   0.000000   0.000000   0.000000   0.000005
    10  C    0.000000   0.000000   0.000000   0.000000   0.000000   0.000000
    11  C    0.000000   0.000000   0.000000   0.000000   0.000000   0.000000
    12  C    0.000000   0.000000   0.000000   0.000000   0.000000   0.000000
    13  C    0.000000   0.000000   0.000000   0.000000   0.000000   0.000000
    14  C    0.000000   0.000000   0.000000   0.000000   0.000000   0.000000
    15  C    0.000000   0.000000   0.000000   0.000000   0.000000   0.000000
    16  Cl   0.000000   0.000000   0.000000   0.000000   0.000000   0.000000
    17  H   -0.024214   0.000063  -0.000075   0.001622   0.000279  -0.000109
    18  H   -0.025162  -0.002601  -0.000100  -0.000054  -0.000065  -0.000020
    19  H    0.501987   0.004570  -0.000057   0.000171   0.002984  -0.000125
    20  H    0.004570   0.618849  -0.003549  -0.001024   0.004690  -0.001261
    21  H   -0.000057  -0.003549   0.539204  -0.025814  -0.027496   0.003828
    22  H    0.000171  -0.001024  -0.025814   0.516533  -0.023353  -0.000095
    23  H    0.002984   0.004690  -0.027496  -0.023353   0.505426  -0.000221
    24  H   -0.000125  -0.001261   0.003828  -0.000095  -0.000221   0.383473
    25  H    0.000066   0.006397  -0.000021   0.000007   0.000015  -0.000809
    26  H    0.000000   0.000005   0.000000   0.000000   0.000000  -0.000007
    27  H   -0.000001   0.000000   0.000000   0.000000   0.000000  -0.000003
    28  H    0.000000   0.000000   0.000000   0.000000   0.000000   0.000000
    29  H    0.000000   0.000000   0.000000   0.000000   0.000000   0.000000
    30  H    0.000000   0.000000   0.000000   0.000000   0.000000   0.000000
    31  H    0.000000   0.000000   0.000000   0.000000   0.000000   0.000000
              25         26         27         28         29         30
     1  C   -0.000484  -0.000005   0.000008   0.000000   0.000000   0.000000
     2  C   -0.001448  -0.000011   0.000015   0.000000   0.000000   0.000000
     3  C   -0.000115   0.000000   0.000000   0.000000   0.000000   0.000000
     4  N   -0.035099   0.000174  -0.000128   0.000000   0.000000   0.000000
     5  N    0.325068   0.008398   0.000892   0.000000   0.000000   0.000000
     6  C   -0.031798  -0.050102  -0.021421  -0.000012   0.000000   0.000000
     7  O    0.001803   0.002229   0.000231   0.000008   0.000000   0.000000
     8  C    0.004666   0.385836   0.375206  -0.000164   0.000002  -0.000010
     9  O   -0.000075  -0.038663  -0.034975   0.000569  -0.000039  -0.000028
    10  C   -0.000005  -0.000866  -0.001334  -0.027097   0.001837   0.000851
    11  C    0.000000   0.000060   0.000050   0.375805  -0.024452   0.000293
    12  C    0.000000  -0.000004  -0.000009  -0.028575   0.381274   0.001984
    13  C    0.000000  -0.000004  -0.000003   0.002500  -0.029577  -0.026827
    14  C    0.000000  -0.000174  -0.000255  -0.000169   0.002242   0.380644
    15  C    0.000003   0.000841   0.001092   0.003816   0.000067  -0.024868
    16  Cl   0.000000   0.000000   0.000000  -0.000073   0.000417   0.000551
    17  H    0.000033   0.000000   0.000000   0.000000   0.000000   0.000000
    18  H   -0.000054   0.000007   0.000028   0.000000   0.000000   0.000000
    19  H    0.000066   0.000000  -0.000001   0.000000   0.000000   0.000000
    20  H    0.006397   0.000005   0.000000   0.000000   0.000000   0.000000
    21  H   -0.000021   0.000000   0.000000   0.000000   0.000000   0.000000
    22  H    0.000007   0.000000   0.000000   0.000000   0.000000   0.000000
    23  H    0.000015   0.000000   0.000000   0.000000   0.000000   0.000000
    24  H   -0.000809  -0.000007  -0.000003   0.000000   0.000000   0.000000
    25  H    0.347192   0.002482   0.000058   0.000000   0.000000   0.000000
    26  H    0.002482   0.563625  -0.040964   0.000016   0.000000   0.000000
    27  H    0.000058  -0.040964   0.521661   0.000019   0.000000   0.000000
    28  H    0.000000   0.000016   0.000019   0.436268  -0.001950   0.000007
    29  H    0.000000   0.000000   0.000000  -0.001950   0.432433  -0.000099
    30  H    0.000000   0.000000   0.000000   0.000007  -0.000099   0.434312
    31  H   -0.000002   0.000095   0.000114  -0.000093   0.000007  -0.001474
              31
     1  C    0.000000
     2  C    0.000000
     3  C    0.000000
     4  N    0.000000
     5  N    0.000005
     6  C    0.000077
     7  O    0.000001
     8  C    0.001697
     9  O   -0.004544
    10  C   -0.031139
    11  C    0.001979
    12  C    0.000194
    13  C    0.002157
    14  C   -0.027094
    15  C    0.382322
    16  Cl  -0.000088
    17  H    0.000000
    18  H    0.000000
    19  H    0.000000
    20  H    0.000000
    21  H    0.000000
    22  H    0.000000
    23  H    0.000000
    24  H    0.000000
    25  H   -0.000002
    26  H    0.000095
    27  H    0.000114
    28  H   -0.000093
    29  H    0.000007
    30  H   -0.001474
    31  H    0.459148
 Mulliken charges:
               1
     1  C   -0.475796
     2  C    0.035078
     3  C   -0.510721
     4  N   -0.473652
     5  N   -0.680209
     6  C    0.811829
     7  O   -0.582443
     8  C   -0.087691
     9  O   -0.688894
    10  C    0.464710
    11  C   -0.247277
    12  C   -0.165424
    13  C   -0.160268
    14  C   -0.164729
    15  C   -0.285663
    16  Cl  -0.009625
    17  H    0.161223
    18  H    0.165510
    19  H    0.191720
    20  H    0.132125
    21  H    0.160988
    22  H    0.176498
    23  H    0.192217
    24  H    0.363357
    25  H    0.382119
    26  H    0.167034
    27  H    0.199719
    28  H    0.239125
    29  H    0.237838
    30  H    0.234664
    31  H    0.216639
 Sum of Mulliken charges =   0.00000
 Mulliken charges with hydrogens summed into heavy atoms:
               1
     1  C    0.042657
     2  C    0.167202
     3  C    0.018983
     4  N   -0.110295
     5  N   -0.298090
     6  C    0.811829
     7  O   -0.582443
     8  C    0.279061
     9  O   -0.688894
    10  C    0.464710
    11  C   -0.008151
    12  C    0.072414
    13  C   -0.160268
    14  C    0.069935
    15  C   -0.069024
    16  Cl  -0.009625
 DipInt: DoE/N= T F RetVal/Mat= T F Init=T NMatP=  1 IDeriv=0 Min/MaxMlt=  0  4
 Entering OneElI...
 OneElI was handed   235735004 working-precision words.
 Multipole integrals L=0 to 4 MinM= 0 MaxM= 0.
 Requested accuracy = 0.1000D-12
 PrtBox:  NBox=     1 Levels=  1 BoxLen=   38.94 SMaxX=       25.57
          Shift=           13.899013            4.237137            3.096615
 Box      1 Number                   0 centers from      1 to     95:
 ShPair: Thresh= 1.00D-13 NBox=     1 BxSize= 3.89D+01 RnKept= 2.20D+01
         NSMCal=                 4560 NSMKep=                3305
 PrsmSu:  NPrtUS=   1 ThrOK=F IAlg=1 NPAlg=1 LenDen=           0.
 Prism:   IPart=     0 DynPar=F LinDyn=F Incr=          33.
 PRISM was handed   235433075 working-precision words and  3305 shell-pairs
 IPart=  0 NShTot=        3305 NBatch=         101 AvBLen=        32.7
 PrSmSu:  NxtVal=             34.
 Electronic moments (au):
       -128.00000000         -1.26412865         -1.46381314         -1.40161167
      -7824.35878811       -451.62939158       -222.82511899          8.18643849
          8.38925207         -3.49970227       1341.54911867        -46.39157404
       -100.11460862       -180.69538399       3716.72869587       1968.32502880
       1010.34425559        -14.31439429       -183.97131978       -208.40714432
    -841195.55690361      -4278.37693387      -1427.88971823       2564.41099642
      -8870.18047909      -1865.34698620         94.65718393        365.66910264
        -33.45341313     -23678.73784644     -14491.56706087      -1006.61306646
       2902.17545534       1398.34590749       -393.17442540
 Electronic spatial extent (au):  <R**2>=           8498.8133
 DipInt: DoE/N= F T RetVal/Mat= T F Init=T NMatP=  1 IDeriv=0 Min/MaxMlt=  0  4
 Nuclear    moments (au):
        128.00000000          0.00000000          0.00000000          0.00000000
       7746.15812208        377.43637082        144.51849532          0.00000000
          0.00005462         -0.00000350      -1605.04033800         50.62447447
         90.45064738        212.42378951      -3712.67939284      -2014.64972370
      -1036.87425888         11.50202984        173.31698889        221.55693946
     812986.65069084       2791.34142013        668.87947096      -2169.14706363
       9198.15211478       1856.51496665       -111.58800365       -295.73406625
         29.59378279      18942.57717322       9650.76322383        594.57776993
      -3008.23750224      -1347.70742870        369.83778284
 Total      moments (au):
          0.00000000         -1.26412865         -1.46381314         -1.40161167
        -78.20066603        -74.19302075        -78.30662367          8.18643849
          8.38930669         -3.49970577       -263.49121932          4.23290043
         -9.66396125         31.72840552          4.04930304        -46.32469490
        -26.53000329         -2.81236446        -10.65433089         13.14979514
     -28208.90621277      -1487.03551374       -759.01024727        395.26393280
        327.97163569         -8.83201955        -16.93081972         69.93503638
         -3.85963034      -4736.16067322      -4840.80383704       -412.03529653
       -106.06204690         50.63847879        -23.33664256
 Traceless Quadrup. (au):
         -1.30056254          2.70708273         -1.40652019          8.18643849
          8.38930669         -3.49970577
 Charge=              0.0000 electrons
 Dipole moment (field-independent basis, Debye):
    X=             -3.2131    Y=             -3.7206    Z=             -3.5625  Tot=              6.0711
 Quadrupole moment (field-independent basis, Debye-Ang):
   XX=           -105.1826   YY=            -99.7921   ZZ=           -105.3251
   XY=             11.0110   XZ=             11.2839   YZ=             -4.7072
 Traceless Quadrupole moment (field-independent basis, Debye-Ang):
   XX=             -1.7493   YY=              3.6411   ZZ=             -1.8918
   XY=             11.0110   XZ=             11.2839   YZ=             -4.7072
 Octapole moment (field-independent basis, Debye-Ang**2):
  XXX=           -187.5429  YYY=              3.0128  ZZZ=             -6.8784  XYY=             22.5831
  XXY=              2.8821  XXZ=            -32.9721  XZZ=            -18.8830  YZZ=             -2.0017
  YYZ=             -7.5833  XYZ=              9.3595
 Hexadecapole moment (field-independent basis, Debye-Ang**3):
 XXXX=         -10624.8260 YYYY=           -560.0888 ZZZZ=           -285.8796 XXXY=            148.8753
 XXXZ=            123.5298 YYYX=             -3.3266 YYYZ=             -6.3770 ZZZX=             26.3409
 ZZZY=             -1.4537 XXYY=          -1783.8651 XXZZ=          -1823.2787 YYZZ=           -155.1922
 XXYZ=            -39.9481 YYXZ=             19.0729 ZZXY=             -8.7897
 N-N= 1.116761463474D+03 E-N=-4.927754758627D+03  KE= 1.142611332984D+03
 Entering OneElI...
 OneElI was handed   235780158 working-precision words.
 Calculate electrostatic properties
    NBasis =   258  MinDer = 0  MaxDer = 0
    NGrid  =    31  NMatD  =   1
 Requested accuracy = 0.1000D-12
 PrtBox:  NBox=     1 Levels=  1 BoxLen=   32.45 SMaxX=       25.57
          Shift=           13.899013            4.237137            3.096615
 Box      1 Number                   0 centers from      1 to     95:
 ShPair: Thresh= 1.00D-13 NBox=     1 BxSize= 3.24D+01 RnKept= 1.83D+01
         NSMCal=                 4560 NSMKep=                2882
 PrsmSu:  NPrtUS=   1 ThrOK=F IAlg=1 NPAlg=1 LenDen=           0.
 Prism:   IPart=     0 DynPar=F LinDyn=F Incr=         512.
 PRISM was handed   235508946 working-precision words and  2882 shell-pairs
 IPart=  0 NShTot=       89342 NBatch=        2964 AvBLen=        30.1
 PrSmSu:  NxtVal=            513.
 --------------------------------------------------------
       Center         ----      EFG at Nuclei      ----
                      3XX-RR        3YY-RR        3ZZ-RR
 --------------------------------------------------------
     1   Atom        0.007671      0.017563     -0.025234
     2   Atom       -0.043884     -0.065876      0.109760
     3   Atom       -0.022034      0.009919      0.012115
     4   Atom       -1.024434      0.118650      0.905784
     5   Atom       -0.640630      0.460402      0.180228
     6   Atom        0.164103     -0.093521     -0.070582
     7   Atom        1.488343     -0.832790     -0.655553
     8   Atom       -0.118488     -0.083491      0.201979
     9   Atom       -1.786327      0.088690      1.697637
    10   Atom       -0.119812      0.368920     -0.249108
    11   Atom        0.146771      0.111377     -0.258148
    12   Atom        0.200046      0.136921     -0.336967
    13   Atom       -0.290607      0.323284     -0.032677
    14   Atom        0.176391      0.148741     -0.325132
    15   Atom        0.121659      0.087064     -0.208722
    16   Atom       -3.427529      1.641779      1.785751
    17   Atom       -0.047324     -0.096709      0.144033
    18   Atom       -0.221278      0.085062      0.136215
    19   Atom        0.135291     -0.042484     -0.092807
    20   Atom        0.119119     -0.051019     -0.068099
    21   Atom        0.139921      0.068983     -0.208904
    22   Atom       -0.079550     -0.073622      0.153172
    23   Atom        0.129124     -0.062550     -0.066574
    24   Atom        0.132765      0.022493     -0.155258
    25   Atom        0.114555     -0.027245     -0.087310
    26   Atom        0.126037     -0.008300     -0.117737
    27   Atom        0.118711      0.011951     -0.130662
    28   Atom        0.092881     -0.259733      0.166852
    29   Atom       -0.053549     -0.110251      0.163801
    30   Atom        0.096920     -0.262533      0.165613
    31   Atom       -0.050453     -0.122672      0.173125
 --------------------------------------------------------
                        XY            XZ            YZ
 --------------------------------------------------------
     1   Atom       -0.008848     -0.000282      0.029516
     2   Atom       -0.157778      0.017217     -0.009705
     3   Atom        0.019076     -0.004364      0.022652
     4   Atom        0.165841     -0.082186      0.825564
     5   Atom        0.422716     -0.203723     -0.772568
     6   Atom       -0.195000      0.044211      0.386493
     7   Atom       -0.313399      0.717807     -0.132534
     8   Atom       -0.260045      0.048024      0.007879
     9   Atom       -0.506465      0.198500      0.163996
    10   Atom        0.125352     -0.012538     -0.030903
    11   Atom       -0.018498     -0.016889     -0.014714
    12   Atom        0.000005     -0.021851     -0.019199
    13   Atom        0.130182      0.004826     -0.019742
    14   Atom       -0.012276     -0.019967     -0.019133
    15   Atom       -0.013066     -0.011631     -0.012997
    16   Atom        1.060631      0.173247     -0.038157
    17   Atom       -0.222861      0.012145      0.019862
    18   Atom        0.159941     -0.060368      0.030091
    19   Atom        0.059044      0.060811     -0.210173
    20   Atom        0.042459      0.052666     -0.196283
    21   Atom        0.010031     -0.017334      0.174973
    22   Atom       -0.221500      0.010720      0.014662
    23   Atom        0.063642      0.058823     -0.212859
    24   Atom        0.050007     -0.075673      0.276993
    25   Atom        0.104180      0.080771     -0.285920
    26   Atom       -0.002677      0.001943     -0.204443
    27   Atom        0.031447     -0.053155      0.192866
    28   Atom        0.140966     -0.002682      0.010454
    29   Atom       -0.223069      0.017580      0.019896
    30   Atom        0.135898     -0.002901      0.012306
    31   Atom       -0.222810      0.017830      0.020633
 --------------------------------------------------------


 ---------------------------------------------------------------------------------
              Nuclear Quadrupole Coupling Constant in Principal Axis System
 ---------------------------------------------------------------------------------

       Atom             a.u.   MegaHertz   Gauss  10(-4) cm-1        Axes

              Baa    -1.0750     5.163     1.842     1.722  0.9645 -0.2272  0.1347
     4 N(14)  Bbb    -0.3520     1.690     0.603     0.564  0.2640  0.8142 -0.5172
              Bcc     1.4269    -6.853    -2.445    -2.286  0.0078  0.5343  0.8452
 
              Baa    -0.7902     3.795     1.354     1.266  0.9200 -0.3771 -0.1071
     5 N(14)  Bbb    -0.4272     2.052     0.732     0.684  0.3109  0.5354  0.7853
              Bcc     1.2174    -5.847    -2.086    -1.950  0.2388  0.7557 -0.6098
 
              Baa    -3.6463   -69.954   -24.961   -23.334  0.9799 -0.1968 -0.0326
    16 Cl(35) Bbb     1.7914    34.367    12.263    11.464  0.0422  0.0446  0.9981
              Bcc     1.8549    35.586    12.698    11.870  0.1949  0.9794 -0.0520
 

 ---------------------------------------------------------------------------------

 No NMR shielding tensors so no spin-rotation constants.
 Leave Link  601 at Thu Jan 16 21:50:54 2014, MaxMem=   235929600 cpu:         0.5
 FitSet:  NAtFit=    31 NAtPot=    31 NAtFrz=     0 MDM=    35 TotChg=   0.00000
 Merz-Kollman atomic radii used.
 Atom Element Radius
    1     6    1.50
    2     6    1.50
    3     6    1.50
    4     7    1.50
    5     7    1.50
    6     6    1.50
    7     8    1.40
    8     6    1.50
    9     8    1.40
   10     6    1.50
   11     6    1.50
   12     6    1.50
   13     6    1.50
   14     6    1.50
   15     6    1.50
   16    17    1.70
   17     1    1.20
   18     1    1.20
   19     1    1.20
   20     1    1.20
   21     1    1.20
   22     1    1.20
   23     1    1.20
   24     1    1.20
   25     1    1.20
   26     1    1.20
   27     1    1.20
   28     1    1.20
   29     1    1.20
   30     1    1.20
   31     1    1.20
 Generate VDW surfaces: Layer= 5 Dens= 2 Start= 1.400 Inc= 0.179

 **********************************************************************

            Electrostatic Properties Using The SCF Density

 **********************************************************************

       Atomic Center    1 is at  -5.116874 -1.271678  0.952246
       Atomic Center    2 is at  -5.199464 -0.580491 -0.409349
       Atomic Center    3 is at  -6.575530  0.042502 -0.652181
       Atomic Center    4 is at  -4.200305  0.497941 -0.488777
       Atomic Center    5 is at  -2.885292  0.035293 -0.540934
       Atomic Center    6 is at  -1.930280  0.476859  0.343876
       Atomic Center    7 is at  -2.102556  1.316932  1.201688
       Atomic Center    8 is at  -0.581542 -0.239501  0.169169
       Atomic Center    9 is at   0.409462  0.763425  0.044794
       Atomic Center   10 is at   1.720024  0.381403  0.012174
       Atomic Center   11 is at   2.650576  1.428031 -0.068619
       Atomic Center   12 is at   4.011854  1.156250 -0.112902
       Atomic Center   13 is at   4.451054 -0.169852 -0.075906
       Atomic Center   14 is at   3.539357 -1.215851  0.005003
       Atomic Center   15 is at   2.168430 -0.943307  0.048251
       Atomic Center   16 is at   6.176680 -0.516715 -0.132836
       Atomic Center   17 is at  -5.845728 -2.087662  1.011175
       Atomic Center   18 is at  -4.121731 -1.694977  1.121970
       Atomic Center   19 is at  -5.320522 -0.553901  1.753505
       Atomic Center   20 is at  -5.017226 -1.338668 -1.197895
       Atomic Center   21 is at  -6.632943  0.520064 -1.638658
       Atomic Center   22 is at  -7.355041 -0.724532 -0.608639
       Atomic Center   23 is at  -6.790342  0.800513  0.108677
       Atomic Center   24 is at  -4.374711  1.086826 -1.302247
       Atomic Center   25 is at  -2.627088 -0.630028 -1.266205
       Atomic Center   26 is at  -0.566014 -0.908444 -0.704729
       Atomic Center   27 is at  -0.409359 -0.848114  1.068101
       Atomic Center   28 is at   2.283053  2.448800 -0.091252
       Atomic Center   29 is at   4.730963  1.966178 -0.173472
       Atomic Center   30 is at   3.889664 -2.242196  0.033828
       Atomic Center   31 is at   1.471763 -1.771379  0.109600
      ESP Fit Center   32 is at  -5.475995 -1.893694  2.925601
      ESP Fit Center   33 is at  -4.757753 -1.893694  2.925601
      ESP Fit Center   34 is at  -6.412049 -1.651976  2.560939
      ESP Fit Center   35 is at  -5.308978 -2.607792  2.560939
      ESP Fit Center   36 is at  -4.556124 -2.499548  2.560939
      ESP Fit Center   37 is at  -7.149757 -0.891666  1.316907
      ESP Fit Center   38 is at  -4.554879 -3.001320 -0.097754
      ESP Fit Center   39 is at  -6.445770 -2.230868 -0.774010
      ESP Fit Center   40 is at  -7.870705 -0.337796  0.956512
      ESP Fit Center   41 is at  -8.608413  0.422514 -0.287520
      ESP Fit Center   42 is at  -6.384710  2.101776 -1.016842
      ESP Fit Center   43 is at  -7.141491  2.031650 -1.016842
      ESP Fit Center   44 is at  -7.821836  1.692878 -1.016842
      ESP Fit Center   45 is at  -8.333861  1.131214 -1.016842
      ESP Fit Center   46 is at  -8.608413  0.422514 -1.016842
      ESP Fit Center   47 is at  -8.354441  0.420621 -1.702181
      ESP Fit Center   48 is at  -6.767634 -1.293612 -2.260874
      ESP Fit Center   49 is at  -4.559426  1.119957  1.484578
      ESP Fit Center   50 is at  -4.392409  1.834055  1.119916
      ESP Fit Center   51 is at  -5.084271  1.518093  1.119916
      ESP Fit Center   52 is at  -4.390406  2.306632  0.561223
      ESP Fit Center   53 is at  -5.109632  2.072941  0.561223
      ESP Fit Center   54 is at  -3.278475  2.349225 -0.124116
      ESP Fit Center   55 is at  -4.009485  2.557215 -0.124116
      ESP Fit Center   56 is at  -4.766266  2.487089 -0.124116
      ESP Fit Center   57 is at  -5.446611  2.148317 -0.124116
      ESP Fit Center   58 is at  -3.278475  2.349225 -0.853438
      ESP Fit Center   59 is at  -4.559426 -0.124075 -2.462131
      ESP Fit Center   60 is at  -3.841184 -0.124075 -2.462131
      ESP Fit Center   61 is at  -2.323297 -1.694349  0.509066
      ESP Fit Center   62 is at  -2.694472 -2.023981 -0.176273
      ESP Fit Center   63 is at  -1.963462 -1.815991 -0.176273
      ESP Fit Center   64 is at  -2.694472  2.094567 -0.905595
      ESP Fit Center   65 is at  -1.668375  1.386816 -1.590934
      ESP Fit Center   66 is at  -2.323297  1.764935 -1.590934
      ESP Fit Center   67 is at  -1.749723  0.765079 -2.149627
      ESP Fit Center   68 is at  -2.324542  1.263163 -2.149627
      ESP Fit Center   69 is at  -2.526171  0.657309 -2.514288
      ESP Fit Center   70 is at  -3.244413  0.657309 -2.514288
      ESP Fit Center   71 is at  -3.603534  0.035293 -2.514288
      ESP Fit Center   72 is at  -2.814246 -0.543293  1.952569
      ESP Fit Center   73 is at  -2.122384 -0.859255  1.952569
      ESP Fit Center   74 is at  -2.120381 -1.331832  1.393876
      ESP Fit Center   75 is at  -1.368285  2.206501 -0.706124
      ESP Fit Center   76 is at  -2.120381  2.285550 -0.706124
      ESP Fit Center   77 is at  -1.369530  1.704729 -1.264817
      ESP Fit Center   78 is at  -2.102556  1.316932  3.161688
      ESP Fit Center   79 is at  -1.352496  1.316932  3.012492
      ESP Fit Center   80 is at  -1.727526  1.966503  3.012492
      ESP Fit Center   81 is at  -2.477586  1.966503  3.012492
      ESP Fit Center   82 is at  -2.852616  1.316932  3.012492
      ESP Fit Center   83 is at  -2.477586  0.667361  3.012492
      ESP Fit Center   84 is at  -1.727526  0.667361  3.012492
      ESP Fit Center   85 is at  -0.716627  1.316932  2.587617
      ESP Fit Center   86 is at  -0.902306  2.009897  2.587617
      ESP Fit Center   87 is at  -1.409591  2.517182  2.587617
      ESP Fit Center   88 is at  -2.102556  2.702861  2.587617
      ESP Fit Center   89 is at  -2.795521  2.517182  2.587617
      ESP Fit Center   90 is at  -3.302806  2.009897  2.587617
      ESP Fit Center   91 is at  -3.488485  1.316932  2.587617
      ESP Fit Center   92 is at  -3.302806  0.623967  2.587617
      ESP Fit Center   93 is at  -2.795521  0.116682  2.587617
      ESP Fit Center   94 is at  -2.102556 -0.068997  2.587617
      ESP Fit Center   95 is at  -1.409591  0.116682  2.587617
      ESP Fit Center   96 is at  -0.902306  0.623967  2.587617
      ESP Fit Center   97 is at  -0.291752  1.316932  1.951748
      ESP Fit Center   98 is at  -0.448304  2.053452  1.951748
      ESP Fit Center   99 is at  -0.890892  2.662621  1.951748
      ESP Fit Center  100 is at  -1.542987  3.039109  1.951748
      ESP Fit Center  101 is at  -2.291837  3.117816  1.951748
      ESP Fit Center  102 is at  -3.007958  2.885134  1.951748
      ESP Fit Center  103 is at  -3.567527  2.381296  1.951748
      ESP Fit Center  104 is at  -3.873789  1.693419  1.951748
      ESP Fit Center  105 is at  -3.873789  0.940445  1.951748
      ESP Fit Center  106 is at  -3.567527  0.252568  1.951748
      ESP Fit Center  107 is at  -0.654098  2.637375  1.201688
      ESP Fit Center  108 is at  -1.228909  3.071452  1.201688
      ESP Fit Center  109 is at  -1.921710  3.268571  1.201688
      ESP Fit Center  110 is at  -2.638935  3.202110  1.201688
      ESP Fit Center  111 is at  -3.283720  2.881046  1.201688
      ESP Fit Center  112 is at  -3.768982  2.348739  1.201688
      ESP Fit Center  113 is at  -0.890892  2.662621  0.451628
      ESP Fit Center  114 is at  -1.542987  3.039109  0.451628
      ESP Fit Center  115 is at  -2.291837  3.117816  0.451628
      ESP Fit Center  116 is at  -3.007958  2.885134  0.451628
      ESP Fit Center  117 is at  -3.567527  2.381296  0.451628
      ESP Fit Center  118 is at  -1.409591  2.517182 -0.184241
      ESP Fit Center  119 is at  -2.102556  2.702861 -0.184241
      ESP Fit Center  120 is at  -2.795521  2.517182 -0.184241
      ESP Fit Center  121 is at  -1.827848 -1.889878  0.533830
      ESP Fit Center  122 is at  -0.222421  0.382515 -1.804185
      ESP Fit Center  123 is at  -0.940663  0.382515 -1.804185
      ESP Fit Center  124 is at   0.409462  0.763425  2.004794
      ESP Fit Center  125 is at   0.784492  1.412996  1.855598
      ESP Fit Center  126 is at   0.034432  1.412996  1.855598
      ESP Fit Center  127 is at   1.102427  1.963675  1.430723
      ESP Fit Center  128 is at   0.409462  2.149354  1.430723
      ESP Fit Center  129 is at   0.220181  2.564309  0.794854
      ESP Fit Center  130 is at   0.590308  2.715064  0.044794
      ESP Fit Center  131 is at  -0.126917  2.648603  0.044794
      ESP Fit Center  132 is at  -0.771702  2.327539  0.044794
      ESP Fit Center  133 is at   0.220181  2.564309 -0.705266
      ESP Fit Center  134 is at  -0.495940  2.331627 -0.705266
      ESP Fit Center  135 is at   0.409462  2.149354 -1.341135
      ESP Fit Center  136 is at  -0.283503  1.963675 -1.341135
      ESP Fit Center  137 is at  -0.790788  1.456390 -1.341135
      ESP Fit Center  138 is at   0.784492  1.412996 -1.766010
      ESP Fit Center  139 is at   0.034432  1.412996 -1.766010
      ESP Fit Center  140 is at  -0.340598  0.763425 -1.766010
      ESP Fit Center  141 is at   0.409462  0.763425 -1.915206
      ESP Fit Center  142 is at   1.720024  0.381403  2.112174
      ESP Fit Center  143 is at   2.438266  0.381403  1.985529
      ESP Fit Center  144 is at   2.079145  1.003419  1.985529
      ESP Fit Center  145 is at   1.360903  1.003419  1.985529
      ESP Fit Center  146 is at   1.001782  0.381403  1.985529
      ESP Fit Center  147 is at   1.360903 -0.240613  1.985529
      ESP Fit Center  148 is at   0.836058 -0.638749 -1.596519
      ESP Fit Center  149 is at   2.438266  0.381403 -1.961180
      ESP Fit Center  150 is at   1.360903  1.003419 -1.961180
      ESP Fit Center  151 is at   1.001782  0.381403 -1.961180
      ESP Fit Center  152 is at   1.360903 -0.240613 -1.961180
      ESP Fit Center  153 is at   2.079145 -0.240613 -1.961180
      ESP Fit Center  154 is at   1.720024  0.381403 -2.087826
      ESP Fit Center  155 is at   2.650576  1.428031  2.031381
      ESP Fit Center  156 is at   3.368818  1.428031  1.904736
      ESP Fit Center  157 is at   3.009697  2.050047  1.904736
      ESP Fit Center  158 is at   2.291455  2.050047  1.904736
      ESP Fit Center  159 is at   1.932334  1.428031  1.904736
      ESP Fit Center  160 is at   3.009697  0.806015  1.904736
      ESP Fit Center  161 is at   3.211326  2.655901  1.540074
      ESP Fit Center  162 is at   1.766610  2.448182  1.540074
      ESP Fit Center  163 is at   1.355401  1.808329  1.540074
      ESP Fit Center  164 is at   3.211326  2.655901 -1.677312
      ESP Fit Center  165 is at   1.355401  1.808329 -1.677312
      ESP Fit Center  166 is at   3.009697  2.050047 -2.041973
      ESP Fit Center  167 is at   2.291455  2.050047 -2.041973
      ESP Fit Center  168 is at   1.932334  1.428031 -2.041973
      ESP Fit Center  169 is at   2.291455  0.806015 -2.041973
      ESP Fit Center  170 is at   3.009697  0.806015 -2.041973
      ESP Fit Center  171 is at   2.650576  1.428031 -2.168619
      ESP Fit Center  172 is at   4.011854  1.156250  1.987098
      ESP Fit Center  173 is at   4.730096  1.156250  1.860453
      ESP Fit Center  174 is at   4.370975  1.778266  1.860453
      ESP Fit Center  175 is at   3.652733  1.778266  1.860453
      ESP Fit Center  176 is at   3.652733  0.534234  1.860453
      ESP Fit Center  177 is at   5.361708  1.156250  1.495791
      ESP Fit Center  178 is at   5.147423  1.886036  1.495791
      ESP Fit Center  179 is at   4.572604  2.384120  1.495791
      ESP Fit Center  180 is at   3.819750  2.492364  1.495791
      ESP Fit Center  181 is at   3.821753  2.964940  0.937098
      ESP Fit Center  182 is at   5.361708  1.156250 -1.721595
      ESP Fit Center  183 is at   3.819750  2.492364 -1.721595
      ESP Fit Center  184 is at   3.127888  0.136098 -1.721595
      ESP Fit Center  185 is at   4.730096  1.156250 -2.086256
      ESP Fit Center  186 is at   4.370975  1.778266 -2.086256
      ESP Fit Center  187 is at   3.652733  1.778266 -2.086256
      ESP Fit Center  188 is at   3.293612  1.156250 -2.086256
      ESP Fit Center  189 is at   3.652733  0.534234 -2.086256
      ESP Fit Center  190 is at   4.370975  0.534234 -2.086256
      ESP Fit Center  191 is at   4.011854  1.156250 -2.212902
      ESP Fit Center  192 is at   4.451054 -0.169852  2.024094
      ESP Fit Center  193 is at   4.810175  0.452164  1.897449
      ESP Fit Center  194 is at   4.091933  0.452164  1.897449
      ESP Fit Center  195 is at   3.732812 -0.169852  1.897449
      ESP Fit Center  196 is at   4.810175 -0.791868  1.897449
      ESP Fit Center  197 is at   4.810175  0.452164 -2.049260
      ESP Fit Center  198 is at   3.732812 -0.169852 -2.049260
      ESP Fit Center  199 is at   4.091933 -0.791868 -2.049260
      ESP Fit Center  200 is at   4.451054 -0.169852 -2.175906
      ESP Fit Center  201 is at   3.539357 -1.215851  2.105003
      ESP Fit Center  202 is at   4.257599 -1.215851  1.978358
      ESP Fit Center  203 is at   3.898478 -0.593835  1.978358
      ESP Fit Center  204 is at   3.180236 -0.593835  1.978358
      ESP Fit Center  205 is at   3.180236 -1.837867  1.978358
      ESP Fit Center  206 is at   3.898478 -1.837867  1.978358
      ESP Fit Center  207 is at   3.347253 -2.551965  1.613696
      ESP Fit Center  208 is at   4.674926 -1.945637  1.613696
      ESP Fit Center  209 is at   2.630030 -2.790851  1.055003
      ESP Fit Center  210 is at   2.630030 -2.790851 -1.044997
      ESP Fit Center  211 is at   2.655391 -2.236003 -1.603690
      ESP Fit Center  212 is at   3.347253 -2.551965 -1.603690
      ESP Fit Center  213 is at   4.674926 -1.945637 -1.603690
      ESP Fit Center  214 is at   4.257599 -1.215851 -1.968351
      ESP Fit Center  215 is at   3.180236 -0.593835 -1.968351
      ESP Fit Center  216 is at   2.821115 -1.215851 -1.968351
      ESP Fit Center  217 is at   3.180236 -1.837867 -1.968351
      ESP Fit Center  218 is at   3.898478 -1.837867 -1.968351
      ESP Fit Center  219 is at   3.539357 -1.215851 -2.094997
      ESP Fit Center  220 is at   2.168430 -0.943307  2.148251
      ESP Fit Center  221 is at   2.886672 -0.943307  2.021606
      ESP Fit Center  222 is at   2.527551 -0.321291  2.021606
      ESP Fit Center  223 is at   1.809309 -0.321291  2.021606
      ESP Fit Center  224 is at   1.450188 -0.943307  2.021606
      ESP Fit Center  225 is at   1.809309 -1.565323  2.021606
      ESP Fit Center  226 is at   2.527551 -1.565323  2.021606
      ESP Fit Center  227 is at   1.976326 -2.279421  1.656944
      ESP Fit Center  228 is at   0.873255 -1.323605 -1.560442
      ESP Fit Center  229 is at   1.284464 -1.963459 -1.560442
      ESP Fit Center  230 is at   1.976326 -2.279421 -1.560442
      ESP Fit Center  231 is at   2.527551 -0.321291 -1.925103
      ESP Fit Center  232 is at   1.450188 -0.943307 -1.925103
      ESP Fit Center  233 is at   1.809309 -1.565323 -1.925103
      ESP Fit Center  234 is at   2.527551 -1.565323 -1.925103
      ESP Fit Center  235 is at   2.168430 -0.943307 -2.051749
      ESP Fit Center  236 is at   6.176680 -0.516715  2.247164
      ESP Fit Center  237 is at   6.912140 -0.516715  2.130679
      ESP Fit Center  238 is at   6.544410  0.120212  2.130679
      ESP Fit Center  239 is at   5.808950  0.120212  2.130679
      ESP Fit Center  240 is at   5.441220 -0.516715  2.130679
      ESP Fit Center  241 is at   5.808950 -1.153643  2.130679
      ESP Fit Center  242 is at   6.544410 -1.153643  2.130679
      ESP Fit Center  243 is at   7.575609 -0.516715  1.792624
      ESP Fit Center  244 is at   7.388188  0.182749  1.792624
      ESP Fit Center  245 is at   6.876144  0.694793  1.792624
      ESP Fit Center  246 is at   6.176680  0.882214  1.792624
      ESP Fit Center  247 is at   5.477216  0.694793  1.792624
      ESP Fit Center  248 is at   4.965172 -1.216180  1.792624
      ESP Fit Center  249 is at   5.477216 -1.728223  1.792624
      ESP Fit Center  250 is at   6.176680 -1.915644  1.792624
      ESP Fit Center  251 is at   6.876144 -1.728223  1.792624
      ESP Fit Center  252 is at   7.388188 -1.216180  1.792624
      ESP Fit Center  253 is at   8.102140 -0.516715  1.266093
      ESP Fit Center  254 is at   7.955574  0.220127  1.266093
      ESP Fit Center  255 is at   7.538186  0.844791  1.266093
      ESP Fit Center  256 is at   6.913522  1.262178  1.266093
      ESP Fit Center  257 is at   6.176680  1.408745  1.266093
      ESP Fit Center  258 is at   5.439838 -2.295609  1.266093
      ESP Fit Center  259 is at   6.176680 -2.442176  1.266093
      ESP Fit Center  260 is at   6.913522 -2.295609  1.266093
      ESP Fit Center  261 is at   7.538186 -1.878221  1.266093
      ESP Fit Center  262 is at   7.955574 -1.253557  1.266093
      ESP Fit Center  263 is at   8.440195 -0.516715  0.602624
      ESP Fit Center  264 is at   8.317551  0.218247  0.602624
      ESP Fit Center  265 is at   7.962911  0.873564  0.602624
      ESP Fit Center  266 is at   7.414705  1.378223  0.602624
      ESP Fit Center  267 is at   6.732340  1.677536  0.602624
      ESP Fit Center  268 is at   5.989760 -2.772499  0.602624
      ESP Fit Center  269 is at   6.732340 -2.710967  0.602624
      ESP Fit Center  270 is at   7.414705 -2.411654  0.602624
      ESP Fit Center  271 is at   7.962911 -1.906994  0.602624
      ESP Fit Center  272 is at   8.317551 -1.251677  0.602624
      ESP Fit Center  273 is at   8.556680 -0.516715 -0.132836
      ESP Fit Center  274 is at   8.450943  0.184802 -0.132836
      ESP Fit Center  275 is at   8.143128  0.823987 -0.132836
      ESP Fit Center  276 is at   7.660586  1.344044 -0.132836
      ESP Fit Center  277 is at   7.046192  1.698764 -0.132836
      ESP Fit Center  278 is at   5.647080 -2.837044 -0.132836
      ESP Fit Center  279 is at   6.354538 -2.890060 -0.132836
      ESP Fit Center  280 is at   7.046192 -2.732195 -0.132836
      ESP Fit Center  281 is at   7.660586 -2.377474 -0.132836
      ESP Fit Center  282 is at   8.143128 -1.857417 -0.132836
      ESP Fit Center  283 is at   8.450943 -1.218232 -0.132836
      ESP Fit Center  284 is at   8.440195 -0.516715 -0.868296
      ESP Fit Center  285 is at   8.317551  0.218247 -0.868296
      ESP Fit Center  286 is at   7.962911  0.873564 -0.868296
      ESP Fit Center  287 is at   7.414705  1.378223 -0.868296
      ESP Fit Center  288 is at   6.732340  1.677536 -0.868296
      ESP Fit Center  289 is at   5.267437 -2.589581 -0.868296
      ESP Fit Center  290 is at   5.989760 -2.772499 -0.868296
      ESP Fit Center  291 is at   6.732340 -2.710967 -0.868296
      ESP Fit Center  292 is at   7.414705 -2.411654 -0.868296
      ESP Fit Center  293 is at   7.962911 -1.906994 -0.868296
      ESP Fit Center  294 is at   8.317551 -1.251677 -0.868296
      ESP Fit Center  295 is at   8.102140 -0.516715 -1.531765
      ESP Fit Center  296 is at   7.955574  0.220127 -1.531765
      ESP Fit Center  297 is at   7.538186  0.844791 -1.531765
      ESP Fit Center  298 is at   6.913522  1.262178 -1.531765
      ESP Fit Center  299 is at   6.176680  1.408745 -1.531765
      ESP Fit Center  300 is at   4.815174 -1.878221 -1.531765
      ESP Fit Center  301 is at   5.439838 -2.295609 -1.531765
      ESP Fit Center  302 is at   6.176680 -2.442176 -1.531765
      ESP Fit Center  303 is at   6.913522 -2.295609 -1.531765
      ESP Fit Center  304 is at   7.538186 -1.878221 -1.531765
      ESP Fit Center  305 is at   7.955574 -1.253557 -1.531765
      ESP Fit Center  306 is at   7.575609 -0.516715 -2.058296
      ESP Fit Center  307 is at   7.388188  0.182749 -2.058296
      ESP Fit Center  308 is at   6.876144  0.694793 -2.058296
      ESP Fit Center  309 is at   6.176680  0.882214 -2.058296
      ESP Fit Center  310 is at   5.477216  0.694793 -2.058296
      ESP Fit Center  311 is at   4.965172 -1.216180 -2.058296
      ESP Fit Center  312 is at   5.477216 -1.728223 -2.058296
      ESP Fit Center  313 is at   6.176680 -1.915644 -2.058296
      ESP Fit Center  314 is at   6.876144 -1.728223 -2.058296
      ESP Fit Center  315 is at   7.388188 -1.216180 -2.058296
      ESP Fit Center  316 is at   6.912140 -0.516715 -2.396350
      ESP Fit Center  317 is at   6.544410  0.120212 -2.396350
      ESP Fit Center  318 is at   5.808950  0.120212 -2.396350
      ESP Fit Center  319 is at   5.441220 -0.516715 -2.396350
      ESP Fit Center  320 is at   5.808950 -1.153643 -2.396350
      ESP Fit Center  321 is at   6.544410 -1.153643 -2.396350
      ESP Fit Center  322 is at   6.176680 -0.516715 -2.512836
      ESP Fit Center  323 is at  -6.574653 -2.087662  2.524803
      ESP Fit Center  324 is at  -6.210190 -2.718929  2.524803
      ESP Fit Center  325 is at  -5.481266 -2.718929  2.524803
      ESP Fit Center  326 is at  -6.908353 -1.315620  2.058638
      ESP Fit Center  327 is at  -7.159205 -2.087662  2.058638
      ESP Fit Center  328 is at  -6.908353 -2.859704  2.058638
      ESP Fit Center  329 is at  -6.251615 -3.336853  2.058638
      ESP Fit Center  330 is at  -5.439841 -3.336853  2.058638
      ESP Fit Center  331 is at  -7.436013 -1.695692  1.385010
      ESP Fit Center  332 is at  -7.436013 -2.479632  1.385010
      ESP Fit Center  333 is at  -7.071698 -3.173777  1.385010
      ESP Fit Center  334 is at  -6.426528 -3.619105  1.385010
      ESP Fit Center  335 is at  -5.648303 -3.713599  1.385010
      ESP Fit Center  336 is at  -4.915307 -3.435610  1.385010
      ESP Fit Center  337 is at  -7.436013 -2.479632  0.637340
      ESP Fit Center  338 is at  -7.071698 -3.173777  0.637340
      ESP Fit Center  339 is at  -6.426528 -3.619105  0.637340
      ESP Fit Center  340 is at  -5.648303 -3.713599  0.637340
      ESP Fit Center  341 is at  -4.915307 -3.435610  0.637340
      ESP Fit Center  342 is at  -6.908353 -2.859704 -0.036288
      ESP Fit Center  343 is at  -6.251615 -3.336853 -0.036288
      ESP Fit Center  344 is at  -5.439841 -3.336853 -0.036288
      ESP Fit Center  345 is at  -6.210190 -2.718929 -0.502453
      ESP Fit Center  346 is at  -4.121731 -1.694977  2.801970
      ESP Fit Center  347 is at  -3.392806 -1.694977  2.635598
      ESP Fit Center  348 is at  -3.757269 -1.063710  2.635598
      ESP Fit Center  349 is at  -3.757269 -2.326244  2.635598
      ESP Fit Center  350 is at  -2.808254 -1.694977  2.169433
      ESP Fit Center  351 is at  -3.059106 -0.922935  2.169433
      ESP Fit Center  352 is at  -4.527618 -2.944168  2.169433
      ESP Fit Center  353 is at  -3.715844 -2.944168  2.169433
      ESP Fit Center  354 is at  -3.059106 -2.467019  2.169433
      ESP Fit Center  355 is at  -2.483852 -1.694977  1.495805
      ESP Fit Center  356 is at  -3.924306 -3.320914  1.495805
      ESP Fit Center  357 is at  -3.191310 -3.042925  1.495805
      ESP Fit Center  358 is at  -2.671461 -2.456137  1.495805
      ESP Fit Center  359 is at  -2.483852 -1.694977  0.748135
      ESP Fit Center  360 is at  -3.924306 -3.320914  0.748135
      ESP Fit Center  361 is at  -3.191310 -3.042925  0.748135
      ESP Fit Center  362 is at  -2.671461 -2.456137  0.748135
      ESP Fit Center  363 is at  -3.715844 -2.944168  0.074507
      ESP Fit Center  364 is at  -3.059106 -2.467019  0.074507
      ESP Fit Center  365 is at  -3.757269 -2.326244 -0.391658
      ESP Fit Center  366 is at  -5.320522 -0.553901  3.433505
      ESP Fit Center  367 is at  -4.591597 -0.553901  3.267133
      ESP Fit Center  368 is at  -4.956060  0.077366  3.267133
      ESP Fit Center  369 is at  -5.684984  0.077366  3.267133
      ESP Fit Center  370 is at  -6.049447 -0.553901  3.267133
      ESP Fit Center  371 is at  -5.684984 -1.185168  3.267133
      ESP Fit Center  372 is at  -4.956060 -1.185168  3.267133
      ESP Fit Center  373 is at  -4.007045 -0.553901  2.800968
      ESP Fit Center  374 is at  -4.257897  0.218141  2.800968
      ESP Fit Center  375 is at  -4.914635  0.695290  2.800968
      ESP Fit Center  376 is at  -5.726409  0.695290  2.800968
      ESP Fit Center  377 is at  -6.383147  0.218141  2.800968
      ESP Fit Center  378 is at  -6.633999 -0.553901  2.800968
      ESP Fit Center  379 is at  -6.383147 -1.325943  2.800968
      ESP Fit Center  380 is at  -3.870252  0.207259  2.127340
      ESP Fit Center  381 is at  -4.390101  0.794047  2.127340
      ESP Fit Center  382 is at  -5.123097  1.072036  2.127340
      ESP Fit Center  383 is at  -5.901322  0.977542  2.127340
      ESP Fit Center  384 is at  -6.546492  0.532214  2.127340
      ESP Fit Center  385 is at  -6.910807 -0.161931  2.127340
      ESP Fit Center  386 is at  -6.910807 -0.945871  2.127340
      ESP Fit Center  387 is at  -5.123097  1.072036  1.379670
      ESP Fit Center  388 is at  -6.243196 -2.424783 -0.824060
      ESP Fit Center  389 is at  -5.598026 -2.870111 -0.824060
      ESP Fit Center  390 is at  -4.819801 -2.964605 -0.824060
      ESP Fit Center  391 is at  -4.086805 -2.686616 -0.824060
      ESP Fit Center  392 is at  -3.566956 -2.099828 -0.824060
      ESP Fit Center  393 is at  -6.243196 -2.424783 -1.571730
      ESP Fit Center  394 is at  -5.598026 -2.870111 -1.571730
      ESP Fit Center  395 is at  -4.819801 -2.964605 -1.571730
      ESP Fit Center  396 is at  -4.086805 -2.686616 -1.571730
      ESP Fit Center  397 is at  -3.566956 -2.099828 -1.571730
      ESP Fit Center  398 is at  -6.330703 -1.338668 -2.245358
      ESP Fit Center  399 is at  -6.079851 -2.110710 -2.245358
      ESP Fit Center  400 is at  -5.423113 -2.587859 -2.245358
      ESP Fit Center  401 is at  -4.611339 -2.587859 -2.245358
      ESP Fit Center  402 is at  -3.954601 -2.110710 -2.245358
      ESP Fit Center  403 is at  -4.288301 -1.338668 -2.711523
      ESP Fit Center  404 is at  -4.652764 -0.707401 -2.711523
      ESP Fit Center  405 is at  -5.381688 -0.707401 -2.711523
      ESP Fit Center  406 is at  -5.746151 -1.338668 -2.711523
      ESP Fit Center  407 is at  -5.381688 -1.969935 -2.711523
      ESP Fit Center  408 is at  -4.652764 -1.969935 -2.711523
      ESP Fit Center  409 is at  -5.017226 -1.338668 -2.877895
      ESP Fit Center  410 is at  -6.435518  2.146001 -1.264823
      ESP Fit Center  411 is at  -7.213743  2.051507 -1.264823
      ESP Fit Center  412 is at  -7.858913  1.606179 -1.264823
      ESP Fit Center  413 is at  -5.702522  1.868012 -2.012493
      ESP Fit Center  414 is at  -6.435518  2.146001 -2.012493
      ESP Fit Center  415 is at  -7.213743  2.051507 -2.012493
      ESP Fit Center  416 is at  -7.858913  1.606179 -2.012493
      ESP Fit Center  417 is at  -8.223228  0.912034 -2.012493
      ESP Fit Center  418 is at  -8.223228  0.128094 -2.012493
      ESP Fit Center  419 is at  -5.319466  0.520064 -2.686121
      ESP Fit Center  420 is at  -5.570318  1.292106 -2.686121
      ESP Fit Center  421 is at  -6.227056  1.769255 -2.686121
      ESP Fit Center  422 is at  -7.038830  1.769255 -2.686121
      ESP Fit Center  423 is at  -7.695568  1.292106 -2.686121
      ESP Fit Center  424 is at  -7.946420  0.520064 -2.686121
      ESP Fit Center  425 is at  -7.695568 -0.251978 -2.686121
      ESP Fit Center  426 is at  -7.038830 -0.729127 -2.686121
      ESP Fit Center  427 is at  -6.227056 -0.729127 -2.686121
      ESP Fit Center  428 is at  -5.570318 -0.251978 -2.686121
      ESP Fit Center  429 is at  -5.904018  0.520064 -3.152286
      ESP Fit Center  430 is at  -6.268481  1.151331 -3.152286
      ESP Fit Center  431 is at  -6.997405  1.151331 -3.152286
      ESP Fit Center  432 is at  -7.361868  0.520064 -3.152286
[...]
 3166 Fit      -0.010571
 3167 Fit      -0.012056
 3168 Fit      -0.015695
 3169 Fit      -0.019987
 3170 Fit      -0.007100
 3171 Fit      -0.008551
 3172 Fit      -0.011964
 3173 Fit      -0.017881
 3174 Fit      -0.025610
 3175 Fit      -0.003179
 3176 Fit      -0.024316
 3177 Fit       0.002449
 3178 Fit      -0.000528
 3179 Fit      -0.000654
 3180 Fit      -0.001564
 3181 Fit      -0.003242
 3182 Fit      -0.004945
 3183 Fit      -0.003234
 3184 Fit      -0.002838
 3185 Fit      -0.003332
 3186 Fit      -0.003850
 3187 Fit      -0.004899
 3188 Fit      -0.004251
 3189 Fit      -0.004097
 3190 Fit      -0.004918
 3191 Fit      -0.007025
 3192 Fit      -0.005458
 3193 Fit      -0.012696
 3194 Fit      -0.011759
 3195 Fit      -0.010716
 3196 Fit      -0.012393
 3197 Fit      -0.013841
 3198 Fit      -0.009075
 3199 Fit      -0.008004
 3200 Fit      -0.008996
 3201 Fit      -0.005640
 3202 Fit      -0.004677
 3203 Fit      -0.005442
 3204 Fit      -0.001720
 3205 Fit       0.002127
 3206 Fit       0.002827
 3207 Fit      -0.001721
 3208 Fit      -0.000122
 3209 Fit      -0.000096
 3210 Fit      -0.004888
 3211 Fit      -0.003015
 3212 Fit      -0.002941
 3213 Fit      -0.007148
 3214 Fit      -0.005253
 3215 Fit      -0.005619
 3216 Fit      -0.006977
 3217 Fit      -0.007923
 3218 Fit      -0.008493
 3219 Fit      -0.006901
 3220 Fit      -0.012432
 3221 Fit      -0.013320
 3222 Fit      -0.012790
 3223 Fit      -0.008021
 3224 Fit      -0.007644
 3225 Fit      -0.008309
 3226 Fit      -0.009306
 3227 Fit      -0.011353
 3228 Fit      -0.010775
 3229 Fit      -0.004541
 3230 Fit      -0.005816
 3231 Fit       0.000015
 3232 Fit      -0.000704
 3233 Fit      -0.003262
 3234 Fit      -0.007178
 3235 Fit       0.004688
 3236 Fit       0.003010
 3237 Fit       0.000058
 3238 Fit       0.009182
 3239 Fit       0.015532
 3240 Fit       0.009948
 3241 Fit       0.006244
 3242 Fit       0.004085
 3243 Fit       0.000717
 3244 Fit       0.002757
 3245 Fit       0.001238
 3246 Fit      -0.001874
 3247 Fit      -0.007030
 3248 Fit      -0.006206
 3249 Fit      -0.002745
 3250 Fit      -0.001279
 3251 Fit      -0.003467
 3252 Fit      -0.004873
 3253 Fit      -0.006297
 3254 Fit      -0.008624
 3255 Fit      -0.010459
 3256 Fit      -0.008470
 3257 Fit      -0.003079
 3258 Fit      -0.001221
 3259 Fit      -0.004265
 3260 Fit       0.004550
 3261 Fit       0.001937
 3262 Fit       0.011603
 3263 Fit       0.008690
 3264 Fit       0.005714
 3265 Fit       0.010450
 3266 Fit       0.014866
 3267 Fit       0.015493
 3268 Fit       0.016741
 3269 Fit       0.012219
 3270 Fit       0.008216
 3271 Fit       0.013119
 3272 Fit       0.009961
 3273 Fit       0.005769
 3274 Fit      -0.004425
 3275 Fit       0.005228
 3276 Fit       0.004786
 3277 Fit       0.000152
 3278 Fit      -0.000055
 3279 Fit      -0.011490
 3280 Fit      -0.011550
 3281 Fit      -0.011709
 3282 Fit      -0.011732
 3283 Fit      -0.011367
 3284 Fit      -0.010606
 3285 Fit      -0.011004
 3286 Fit      -0.011265
 3287 Fit      -0.011481
 3288 Fit      -0.011385
 3289 Fit      -0.011211
 3290 Fit      -0.011676
 3291 Fit      -0.012369
 3292 Fit      -0.011716
 3293 Fit      -0.009869
 3294 Fit      -0.008889
 3295 Fit      -0.009427
 3296 Fit      -0.010314
 3297 Fit      -0.010893
 3298 Fit      -0.010565
 3299 Fit      -0.010863
 3300 Fit      -0.010956
 3301 Fit      -0.010630
 3302 Fit      -0.010017
 3303 Fit      -0.009878
 3304 Fit      -0.006053
 3305 Fit      -0.007035
 3306 Fit      -0.008463
 3307 Fit      -0.009475
 3308 Fit      -0.009990
 3309 Fit      -0.010275
 3310 Fit      -0.009548
 3311 Fit      -0.009932
 3312 Fit      -0.010219
 3313 Fit      -0.010120
 3314 Fit      -0.009409
 3315 Fit      -0.008155
 3316 Fit      -0.007055
 3317 Fit      -0.002846
 3318 Fit      -0.005300
 3319 Fit      -0.007286
 3320 Fit      -0.008453
 3321 Fit      -0.008958
 3322 Fit      -0.009129
 3323 Fit      -0.009271
 3324 Fit      -0.008416
 3325 Fit      -0.008893
 3326 Fit      -0.009339
 3327 Fit      -0.009428
 3328 Fit      -0.008804
 3329 Fit      -0.007189
 3330 Fit      -0.004597
 3331 Fit      -0.002211
 3332 Fit      -0.005339
 3333 Fit      -0.007123
 3334 Fit      -0.007897
 3335 Fit      -0.008076
 3336 Fit      -0.008053
 3337 Fit      -0.008121
 3338 Fit      -0.007408
 3339 Fit      -0.007934
 3340 Fit      -0.008485
 3341 Fit      -0.008757
 3342 Fit      -0.008381
 3343 Fit      -0.006945
 3344 Fit      -0.004001
 3345 Fit       0.001143
 3346 Fit      -0.003289
 3347 Fit      -0.005776
 3348 Fit      -0.006940
 3349 Fit      -0.007274
 3350 Fit      -0.007200
 3351 Fit      -0.007063
 3352 Fit      -0.007100
 3353 Fit      -0.006734
 3354 Fit      -0.007294
 3355 Fit      -0.007902
 3356 Fit      -0.008245
 3357 Fit      -0.007931
 3358 Fit      -0.006481
 3359 Fit      -0.003248
 3360 Fit       0.000899
 3361 Fit      -0.003406
 3362 Fit      -0.005664
 3363 Fit      -0.006616
 3364 Fit      -0.006786
 3365 Fit      -0.006602
 3366 Fit      -0.006403
 3367 Fit      -0.006417
 3368 Fit      -0.006524
 3369 Fit      -0.007077
 3370 Fit      -0.007677
 3371 Fit      -0.008009
 3372 Fit      -0.007670
 3373 Fit      -0.006171
 3374 Fit      -0.002831
 3375 Fit       0.000632
 3376 Fit      -0.003445
 3377 Fit      -0.005603
 3378 Fit      -0.006501
 3379 Fit      -0.006636
 3380 Fit      -0.006429
 3381 Fit      -0.006213
 3382 Fit      -0.006215
 3383 Fit      -0.006792
 3384 Fit      -0.007297
 3385 Fit      -0.007823
 3386 Fit      -0.008056
 3387 Fit      -0.007603
 3388 Fit      -0.006013
 3389 Fit      -0.002752
 3390 Fit       0.000364
 3391 Fit      -0.003421
 3392 Fit      -0.005609
 3393 Fit      -0.006611
 3394 Fit      -0.006843
 3395 Fit      -0.006698
 3396 Fit      -0.006510
 3397 Fit      -0.006510
 3398 Fit      -0.007436
 3399 Fit      -0.007871
 3400 Fit      -0.008266
 3401 Fit      -0.008269
 3402 Fit      -0.007481
 3403 Fit      -0.005549
 3404 Fit      -0.002352
 3405 Fit       0.000815
 3406 Fit      -0.002603
 3407 Fit      -0.005181
 3408 Fit      -0.006662
 3409 Fit      -0.007249
 3410 Fit      -0.007302
 3411 Fit      -0.007187
 3412 Fit      -0.007189
 3413 Fit      -0.008259
 3414 Fit      -0.008573
 3415 Fit      -0.008770
 3416 Fit      -0.008519
 3417 Fit      -0.007536
 3418 Fit      -0.005806
 3419 Fit      -0.003960
 3420 Fit      -0.003014
 3421 Fit      -0.005045
 3422 Fit      -0.006695
 3423 Fit      -0.007626
 3424 Fit      -0.007962
 3425 Fit      -0.008008
 3426 Fit      -0.008056
 3427 Fit      -0.009015
 3428 Fit      -0.009196
 3429 Fit      -0.009120
 3430 Fit      -0.008505
 3431 Fit      -0.007406
 3432 Fit      -0.006560
 3433 Fit      -0.005294
 3434 Fit      -0.005107
 3435 Fit      -0.006195
 3436 Fit      -0.007482
 3437 Fit      -0.008318
 3438 Fit      -0.008678
 3439 Fit      -0.008835
 3440 Fit      -0.009477
 3441 Fit      -0.009488
 3442 Fit      -0.009052
 3443 Fit      -0.008329
 3444 Fit      -0.008139
 3445 Fit      -0.008473
 3446 Fit      -0.008158
 3447 Fit      -0.007288
 3448 Fit      -0.007148
 3449 Fit      -0.007964
 3450 Fit      -0.008810
 3451 Fit      -0.009260
 3452 Fit      -0.009500
 3453 Fit      -0.009279
 3454 Fit      -0.008786
 3455 Fit      -0.008484
 3456 Fit      -0.008418
 3457 Fit      -0.009091
 3458 Fit      -0.009094
 3459 Fit       0.003405
 3460 Fit       0.004145
 3461 Fit       0.004139
 3462 Fit       0.004331
 3463 Fit       0.005354
 3464 Fit       0.005910
 3465 Fit       0.006036
 3466 Fit       0.005837
 3467 Fit       0.006160
 3468 Fit       0.006987
 3469 Fit       0.007469
 3470 Fit       0.007669
 3471 Fit       0.007647
 3472 Fit       0.007494
 3473 Fit       0.007365
 3474 Fit       0.008743
 3475 Fit       0.009042
 3476 Fit       0.009174
 3477 Fit       0.009178
 3478 Fit       0.009095
 3479 Fit       0.009027
 3480 Fit       0.009182
 3481 Fit       0.010988
 3482 Fit       0.010733
 3483 Fit       0.010587
 3484 Fit       0.010507
 3485 Fit       0.010573
 3486 Fit       0.011007
 3487 Fit       0.012583
 3488 Fit       0.012105
 3489 Fit       0.011963
 3490 Fit       0.012117
 3491 Fit       0.014017
 3492 Fit       0.013620
 3493 Fit       0.013954
 3494 Fit      -0.000161
 3495 Fit       0.004061
 3496 Fit       0.003715
 3497 Fit       0.005751
 3498 Fit       0.007227
 3499 Fit       0.008485
 3500 Fit       0.008722
 3501 Fit       0.009682
 3502 Fit       0.011805
 3503 Fit       0.014198
 3504 Fit       0.010456
 3505 Fit       0.012784
 3506 Fit       0.015875
 3507 Fit       0.020007
 3508 Fit       0.015469
 3509 Fit       0.019358
 3510 Fit       0.024853
 3511 Fit       0.017670
 3512 Fit       0.022012
 3513 Fit       0.028278
 3514 Fit      -0.005014
 3515 Fit      -0.007647
 3516 Fit      -0.009039
 3517 Fit      -0.005767
 3518 Fit      -0.002902
 3519 Fit      -0.002349
 3520 Fit      -0.003974
 3521 Fit      -0.010812
 3522 Fit      -0.015656
 3523 Fit      -0.014678
 3524 Fit      -0.009688
 3525 Fit      -0.004915
 3526 Fit      -0.002002
 3527 Fit      -0.000696
 3528 Fit      -0.022697
 3529 Fit      -0.015150
 3530 Fit      -0.008445
 3531 Fit      -0.003775
 3532 Fit      -0.001080
 3533 Fit       0.000287
 3534 Fit      -0.031278
 3535 Fit      -0.019881
 3536 Fit      -0.010910
 3537 Fit      -0.004679
 3538 Fit      -0.001032
 3539 Fit       0.000778
 3540 Fit       0.001735
 3541 Fit       0.024186
 3542 Fit       0.015432
 3543 Fit       0.015284
 3544 Fit       0.015892
 3545 Fit       0.017507
 3546 Fit       0.020625
 3547 Fit       0.026199
 3548 Fit       0.015177
 3549 Fit       0.015467
 3550 Fit       0.016278
 3551 Fit       0.017905
 3552 Fit       0.020784
 3553 Fit       0.025717
 3554 Fit       0.015804
 3555 Fit       0.016817
 3556 Fit       0.018739
 3557 Fit       0.022118
 3558 Fit       0.027822
 3559 Fit       0.016643
 3560 Fit       0.017134
 3561 Fit       0.018892
 3562 Fit       0.022337
 3563 Fit       0.027771
 3564 Fit       0.025959
 3565 Fit       0.025532
 3566 Fit       0.022089
 3567 Fit       0.019095
 3568 Fit       0.019304
 3569 Fit       0.022350
 3570 Fit       0.021842
 3571 Fit       0.008402
 3572 Fit       0.006916
 3573 Fit       0.006454
 3574 Fit       0.006404
 3575 Fit       0.014451
 3576 Fit       0.010737
 3577 Fit       0.009036
 3578 Fit       0.008289
 3579 Fit       0.008021
 3580 Fit       0.008069
 3581 Fit       0.016710
 3582 Fit       0.012809
 3583 Fit       0.010813
 3584 Fit       0.009886
 3585 Fit       0.009571
 3586 Fit       0.009717
 3587 Fit       0.010336
 3588 Fit       0.023412
 3589 Fit       0.021251
 3590 Fit       0.016875
 3591 Fit       0.013512
 3592 Fit       0.011794
 3593 Fit       0.011224
 3594 Fit       0.011525
 3595 Fit       0.012721
 3596 Fit       0.014977
 3597 Fit       0.018295
 3598 Fit       0.021806
 3599 Fit       0.018640
 3600 Fit       0.016533
 3601 Fit       0.013872
 3602 Fit       0.013127
 3603 Fit       0.014374
 3604 Fit       0.017091
 3605 Fit       0.015459
 3606 Fit       0.006015
 3607 Fit       0.006019
 3608 Fit       0.007421
 3609 Fit       0.008871
 3610 Fit       0.006728
 3611 Fit       0.007987
 3612 Fit       0.009227
 3613 Fit       0.010534
 3614 Fit       0.006743
 3615 Fit       0.007966
 3616 Fit       0.009172
 3617 Fit       0.010345
 3618 Fit       0.011575
 3619 Fit       0.013070
 3620 Fit       0.007323
 3621 Fit       0.008464
 3622 Fit       0.009605
 3623 Fit       0.010714
 3624 Fit       0.011844
 3625 Fit       0.013131
 3626 Fit       0.014739
 3627 Fit       0.008386
 3628 Fit       0.009428
 3629 Fit       0.010485
 3630 Fit       0.011554
 3631 Fit       0.012727
 3632 Fit       0.014184
 3633 Fit       0.008966
 3634 Fit       0.009969
 3635 Fit       0.011095
 3636 Fit       0.012357
 3637 Fit       0.013968
 3638 Fit       0.010248
 3639 Fit       0.011459
 3640 Fit      -0.002314
 3641 Fit       0.000297
 3642 Fit      -0.010814
 3643 Fit      -0.004752
 3644 Fit      -0.000958
 3645 Fit       0.001074
 3646 Fit       0.002141
 3647 Fit      -0.013813
 3648 Fit      -0.006556
 3649 Fit      -0.002186
 3650 Fit       0.000363
 3651 Fit       0.001832
 3652 Fit       0.002752
 3653 Fit      -0.012545
 3654 Fit      -0.005893
 3655 Fit      -0.001939
 3656 Fit       0.000454
 3657 Fit       0.001910
 3658 Fit       0.002837
 3659 Fit       0.003577
 3660 Fit      -0.011995
 3661 Fit      -0.005318
 3662 Fit      -0.001489
 3663 Fit       0.000818
 3664 Fit       0.002234
 3665 Fit       0.003145
 3666 Fit      -0.002171
 3667 Fit       0.000379
 3668 Fit       0.002007
 3669 Fit       0.003064
 3670 Fit      -0.001866
 3671 Fit       0.000698
 3672 Fit       0.003524
 3673 Fit       0.006368
 3674 Fit       0.005432
 3675 Fit       0.006408
 3676 Fit       0.008110
 3677 Fit       0.010192
 3678 Fit       0.012532
 3679 Fit       0.012174
 3680 Fit       0.012138
 3681 Fit       0.013257
 3682 Fit       0.015077
 3683 Fit       0.018006
 3684 Fit       0.016819
 3685 Fit       0.017631
 3686 Fit       0.019662
 3687 Fit       0.023255
 3688 Fit       0.020606
 3689 Fit       0.021244
 3690 Fit       0.023506
 3691 Fit       0.025492
 3692 Fit       0.026381
 3693 Fit       0.023464
 3694 Fit       0.031357
 3695 Fit       0.030104
 3696 Fit       0.032430
 3697 Fit       0.032473
 3698 Fit       0.034232
 3699 Fit       0.031611
 3700 Fit       0.032465
 3701 Fit       0.033369
 3702 Fit       0.033640
 3703 Fit       0.027263
 3704 Fit       0.023065
 3705 Fit       0.031247
 3706 Fit       0.031694
 3707 Fit       0.031860
 3708 Fit       0.030661
 3709 Fit       0.027743
 3710 Fit       0.025668
 3711 Fit       0.029926
 3712 Fit       0.030519
 3713 Fit       0.030136
 3714 Fit       0.028676
 3715 Fit       0.030115
 3716 Fit       0.034177
 3717 Fit       0.030537
 3718 Fit       0.028853
 3719 Fit       0.032186
 3720 Fit       0.028530
 3721 Fit       0.026058
 3722 Fit       0.033566
 3723 Fit       0.028023
 3724 Fit       0.023810
 3725 Fit       0.012082
 3726 Fit       0.028931
 3727 Fit       0.023047
 3728 Fit       0.017235
 3729 Fit       0.017697
 3730 Fit       0.017606
 3731 Fit       0.024759
 3732 Fit       0.029573
 3733 Fit       0.022846
 3734 Fit       0.023969
 3735 Fit      -0.003025
 3736 Fit      -0.001784
 3737 Fit      -0.008813
 3738 Fit      -0.012208
 3739 Fit      -0.004789
 3740 Fit       0.002476
 3741 Fit       0.003025
 3742 Fit      -0.001567
 3743 Fit      -0.007945
 3744 Fit      -0.016301
 3745 Fit      -0.000528
 3746 Fit       0.006449
 3747 Fit       0.008857
 3748 Fit       0.008045
 3749 Fit       0.004205
 3750 Fit       0.010913
 3751 Fit       0.013122
 3752 Fit       0.013657
 3753 Fit       0.012653
 3754 Fit       0.009336
 3755 Fit       0.017175
 3756 Fit       0.017878
 3757 Fit       0.018148
 3758 Fit       0.017868
 3759 Fit       0.022342
 3760 Fit       0.022410
 3761 Fit       0.022919
 3762 Fit      -0.009071
 3763 Fit      -0.015518
 3764 Fit      -0.002122
 3765 Fit      -0.004773
 3766 Fit      -0.009363
 3767 Fit      -0.016988
 3768 Fit       0.002589
 3769 Fit       0.000465
 3770 Fit      -0.002088
 3771 Fit      -0.005854
 3772 Fit      -0.011760
 3773 Fit      -0.021146
 3774 Fit       0.005616
 3775 Fit       0.002979
 3776 Fit       0.000599
 3777 Fit      -0.002497
 3778 Fit      -0.007135
 3779 Fit      -0.014370
 3780 Fit       0.006634
 3781 Fit       0.003995
 3782 Fit       0.001792
 3783 Fit      -0.000925
 3784 Fit      -0.004843
 3785 Fit      -0.010691
 3786 Fit       0.005532
 3787 Fit       0.003571
 3788 Fit       0.001671
 3789 Fit      -0.000797
 3790 Fit      -0.004287
 3791 Fit      -0.009169
 3792 Fit       0.002883
 3793 Fit       0.001346
 3794 Fit      -0.000894
 3795 Fit      -0.004096
 3796 Fit      -0.008258
 3797 Fit      -0.000200
 3798 Fit      -0.002499
 3799 Fit      -0.003467
 3800 Fit      -0.001705
 3801 Fit      -0.003244
 3802 Fit      -0.000276
 3803 Fit       0.001069
 3804 Fit       0.001265
 3805 Fit       0.000198
 3806 Fit       0.002232
 3807 Fit       0.003253
 3808 Fit       0.003685
 3809 Fit       0.000825
 3810 Fit       0.003108
 3811 Fit       0.004364
 3812 Fit       0.005076
 3813 Fit       0.005872
 3814 Fit       0.001214
 3815 Fit       0.003525
 3816 Fit       0.004832
 3817 Fit       0.005622
 3818 Fit       0.006516
 3819 Fit       0.001372
 3820 Fit       0.003504
 3821 Fit       0.004696
 3822 Fit       0.005380
 3823 Fit       0.006059
 3824 Fit      -0.001328
 3825 Fit       0.001764
 3826 Fit       0.003384
 3827 Fit       0.004032
 3828 Fit      -0.000683
 3829 Fit       0.001474
 3830 Fit       0.006008
 3831 Fit       0.003096
 3832 Fit       0.010542
 3833 Fit       0.008231
 3834 Fit       0.005308
 3835 Fit       0.001217
 3836 Fit       0.015444
 3837 Fit       0.012589
 3838 Fit       0.010118
 3839 Fit       0.007412
 3840 Fit       0.003921
 3841 Fit       0.016165
 3842 Fit       0.013100
 3843 Fit       0.010459
 3844 Fit       0.007536
 3845 Fit       0.003701
 3846 Fit       0.016338
 3847 Fit       0.013261
 3848 Fit       0.010583
 3849 Fit       0.007611
 3850 Fit       0.003698
 3851 Fit       0.015950
 3852 Fit       0.013091
 3853 Fit       0.010520
 3854 Fit       0.007677
 3855 Fit       0.003983
 3856 Fit       0.011388
 3857 Fit       0.008895
 3858 Fit       0.005717
 3859 Fit       0.007005
 3860 Fit       0.003719
 3861 Fit       0.012914
 3862 Fit       0.017802
 3863 Fit       0.015153
 3864 Fit       0.022605
 3865 Fit       0.019596
 3866 Fit       0.017514
 3867 Fit       0.016423
 3868 Fit       0.027528
 3869 Fit       0.023319
 3870 Fit       0.020439
 3871 Fit       0.018712
 3872 Fit       0.029227
 3873 Fit       0.024389
 3874 Fit       0.021166
 3875 Fit       0.019258
 3876 Fit       0.026112
 3877 Fit       0.021953
 3878 Fit       0.019225
 3879 Fit       0.017831
 3880 Fit       0.021782
 3881 Fit       0.017920
 3882 Fit       0.022671
 -----------------------------------------------------------------
 Leave Link  602 at Thu Jan 16 21:50:56 2014, MaxMem=   235929600 cpu:         2.0

 Test job not archived.
 1\1\GINC-G25\SP\RHF\Gen\C11H15Cl1N2O2\KOLAR\16-Jan-2014\0\\# hf/gen po
 p=mk iop(6/33=2,6/41=5,6/42=2)\\na resp\\0,1\C,0,-5.116874,-1.271678,0
 .952246\C,0,-5.199464,-0.580491,-0.409349\C,0,-6.57553,0.042502,-0.652
 181\N,0,-4.200305,0.497941,-0.488777\N,0,-2.885292,0.035293,-0.540934\
 C,0,-1.93028,0.476859,0.343876\O,0,-2.102556,1.316932,1.201688\C,0,-0.
 581542,-0.239501,0.169169\O,0,0.409462,0.763425,0.044794\C,0,1.720024,
 0.381403,0.012174\C,0,2.650576,1.428031,-0.068619\C,0,4.011854,1.15625
 ,-0.112902\C,0,4.451054,-0.169852,-0.075906\C,0,3.539357,-1.215851,0.0
 05003\C,0,2.16843,-0.943307,0.048251\Cl,0,6.17668,-0.516715,-0.132836\
 H,0,-5.845728,-2.087662,1.011175\H,0,-4.121731,-1.694977,1.12197\H,0,-
 5.320522,-0.553901,1.753505\H,0,-5.017226,-1.338668,-1.197895\H,0,-6.6
 32943,0.520064,-1.638658\H,0,-7.355041,-0.724532,-0.608639\H,0,-6.7903
 42,0.800513,0.108677\H,0,-4.374711,1.086826,-1.302247\H,0,-2.627088,-0
 .630028,-1.266205\H,0,-0.566014,-0.908444,-0.704729\H,0,-0.409359,-0.8
 48114,1.068101\H,0,2.283053,2.4488,-0.091252\H,0,4.730963,1.966178,-0.
 173472\H,0,3.889664,-2.242196,0.033828\H,0,1.471763,-1.771379,0.1096\\
 Version=AM64L-G09RevD.01\State=1-A\HF=-1143.3374853\RMSD=5.297e-09\Dip
 ole=-1.2641286,-1.4638131,-1.4016117\Quadrupole=-1.3005626,2.7070828,-
 1.4065202,8.1864385,8.3893067,-3.4997058\PG=C01 [X(C11H15Cl1N2O2)]\\@


 NOT WHAT WE DID SHALL BE THE TEST
 WHEN ACT AND WILL ARE DONE,
 BUT WHAT OUR LORD INFERS WE WOULD-
 HAD WE DIVINER BEEN.
           EMILY DICKINSON  POEMS NO. CLXXV
 Job cpu time:       0 days  0 hours  4 minutes  6.8 seconds.
 File lengths (MBytes):  RWF=     38 Int=      0 D2E=      0 Chk=      3 Scr=      1
 Normal termination of Gaussian 09 at Thu Jan 16 21:50:56 2014.
246.10user 0.77system 4:09.90elapsed 98%CPU (0avgtext+0avgdata 603552maxresident)k
8inputs+188432outputs (0major+171921minor)pagefaults 0swaps
