Linux g60 2.6.38.6-client #1 SMP Tue Jun 12 11:27:21 CEST 2012 x86_64 GNU/Linux
Thu Jan 16 21:46:46 CET 2014

 Entering Gaussian System, Link 0=/usr/local/programs/common/gaussian/gaussian09_d01/arch/amd64-pgi_10.4.0-acml/g09/g09
 Initial command:
 /usr/local/programs/common/gaussian/gaussian09_d01/arch/amd64-pgi_10.4.0-acml/g09/l1.exe "/scratch/kolar/g09_17917/Gau-1514.inp" -scrdir="/scratch/kolar/g09_17917/"
 Entering Link 1 = /usr/local/programs/common/gaussian/gaussian09_d01/arch/amd64-pgi_10.4.0-acml/g09/l1.exe PID=      1520.
  
 Copyright (c) 1988,1990,1992,1993,1995,1998,2003,2009,2013,
            Gaussian, Inc.  All Rights Reserved.
  
 This is part of the Gaussian(R) 09 program.  It is based on
 the Gaussian(R) 03 system (copyright 2003, Gaussian, Inc.),
 the Gaussian(R) 98 system (copyright 1998, Gaussian, Inc.),
 the Gaussian(R) 94 system (copyright 1995, Gaussian, Inc.),
 the Gaussian 92(TM) system (copyright 1992, Gaussian, Inc.),
 the Gaussian 90(TM) system (copyright 1990, Gaussian, Inc.),
 the Gaussian 88(TM) system (copyright 1988, Gaussian, Inc.),
 the Gaussian 86(TM) system (copyright 1986, Carnegie Mellon
 University), and the Gaussian 82(TM) system (copyright 1983,
 Carnegie Mellon University). Gaussian is a federally registered
 trademark of Gaussian, Inc.
  
 This software contains proprietary and confidential information,
 including trade secrets, belonging to Gaussian, Inc.
  
 This software is provided under written license and may be
 used, copied, transmitted, or stored only in accord with that
 written license.
  
 The following legend is applicable only to US Government
 contracts under FAR:
  
                    RESTRICTED RIGHTS LEGEND
  
 Use, reproduction and disclosure by the US Government is
 subject to restrictions as set forth in subparagraphs (a)
 and (c) of the Commercial Computer Software - Restricted
 Rights clause in FAR 52.227-19.
  
 Gaussian, Inc.
 340 Quinnipiac St., Bldg. 40, Wallingford CT 06492
  
  
 ---------------------------------------------------------------
 Warning -- This program may not be used in any manner that
 competes with the business of Gaussian, Inc. or will provide
 assistance to any competitor of Gaussian, Inc.  The licensee
 of this program is prohibited from giving any competitor of
 Gaussian, Inc. access to this program.  By using this program,
 the user acknowledges that Gaussian, Inc. is engaged in the
 business of creating and licensing software in the field of
 computational chemistry and represents and warrants to the
 licensee that it is not a competitor of Gaussian, Inc. and that
 it will not use this program in any manner prohibited above.
 ---------------------------------------------------------------
  

 Cite this work as:
 Gaussian 09, Revision D.01,
 M. J. Frisch, G. W. Trucks, H. B. Schlegel, G. E. Scuseria, 
 M. A. Robb, J. R. Cheeseman, G. Scalmani, V. Barone, B. Mennucci, 
 G. A. Petersson, H. Nakatsuji, M. Caricato, X. Li, H. P. Hratchian, 
 A. F. Izmaylov, J. Bloino, G. Zheng, J. L. Sonnenberg, M. Hada, 
 M. Ehara, K. Toyota, R. Fukuda, J. Hasegawa, M. Ishida, T. Nakajima, 
 Y. Honda, O. Kitao, H. Nakai, T. Vreven, J. A. Montgomery, Jr., 
 J. E. Peralta, F. Ogliaro, M. Bearpark, J. J. Heyd, E. Brothers, 
 K. N. Kudin, V. N. Staroverov, T. Keith, R. Kobayashi, J. Normand, 
 K. Raghavachari, A. Rendell, J. C. Burant, S. S. Iyengar, J. Tomasi, 
 M. Cossi, N. Rega, J. M. Millam, M. Klene, J. E. Knox, J. B. Cross, 
 V. Bakken, C. Adamo, J. Jaramillo, R. Gomperts, R. E. Stratmann, 
 O. Yazyev, A. J. Austin, R. Cammi, C. Pomelli, J. W. Ochterski, 
 R. L. Martin, K. Morokuma, V. G. Zakrzewski, G. A. Voth, 
 P. Salvador, J. J. Dannenberg, S. Dapprich, A. D. Daniels, 
 O. Farkas, J. B. Foresman, J. V. Ortiz, J. Cioslowski, 
 and D. J. Fox, Gaussian, Inc., Wallingford CT, 2013.
 
 ******************************************
 Gaussian 09:  AM64L-G09RevD.01 24-Apr-2013
                16-Jan-2014 
 ******************************************
 %mem=1800mb
 -----------------------------------------
 # hf/gen pop=mk iop(6/33=2,6/41=5,6/42=2)
 -----------------------------------------
 1/38=1/1;
 2/12=2,17=6,18=5,40=1/2;
 3/5=7,11=9,16=1,25=1,30=1/1,2,3;
 4//1;
 5/5=2,38=5/2;
 6/7=2,8=2,9=2,10=2,15=8,20=1,28=1,33=2,41=5,42=2/1,2;
 99/5=1,9=1/99;
 -------
 na resp
 -------
 Symbolic Z-matrix:
 Charge =  0 Multiplicity = 1
 6                     0.63382   1.97053  -0.00012 
 6                     1.98682   1.54441  -0.00026 
 6                     1.93013   0.17638  -0.00008 
 8                     0.66271  -0.28071   0.00011 
 6                    -0.13693   0.83135   0.00004 
 6                    -1.60335   0.65628   0.00027 
 8                    -2.32497   1.63272   0.00027 
 6                    -2.09725  -0.78971   0.00145 
 17                   -3.87904  -0.90816  -0.00079 
 7                     2.98347  -0.79829  -0.00011 
 8                     4.12899  -0.34295  -0.00024 
 8                     2.66689  -1.98498   0.00004 
 1                     0.25275   2.98137  -0.00017 
 1                     2.88578   2.14155  -0.00045 
 1                    -1.71248  -1.31346  -0.87866 
 1                    -1.71503  -1.31085   0.88424 
 
                          Input orientation:                          
 ---------------------------------------------------------------------
 Center     Atomic      Atomic             Coordinates (Angstroms)
 Number     Number       Type             X           Y           Z
 ---------------------------------------------------------------------
      1          6           0        0.633824    1.970528   -0.000123
      2          6           0        1.986815    1.544414   -0.000259
      3          6           0        1.930133    0.176375   -0.000077
      4          8           0        0.662705   -0.280711    0.000105
      5          6           0       -0.136934    0.831352    0.000040
      6          6           0       -1.603353    0.656280    0.000271
      7          8           0       -2.324965    1.632719    0.000268
      8          6           0       -2.097254   -0.789710    0.001446
      9         17           0       -3.879039   -0.908156   -0.000789
     10          7           0        2.983473   -0.798290   -0.000109
     11          8           0        4.128987   -0.342949   -0.000237
     12          8           0        2.666891   -1.984979    0.000044
     13          1           0        0.252748    2.981373   -0.000166
     14          1           0        2.885776    2.141546   -0.000453
     15          1           0       -1.712476   -1.313456   -0.878655
     16          1           0       -1.715031   -1.310850    0.884235
 ---------------------------------------------------------------------
                    Distance matrix (angstroms):
                    1          2          3          4          5
     1  C    0.000000
     2  C    1.418505   0.000000
     3  C    2.213459   1.369213   0.000000
     4  O    2.251424   2.254850   1.347331   0.000000
     5  C    1.375424   2.240261   2.168354   1.369710   0.000000
     6  C    2.594650   3.698390   3.565927   2.452136   1.476833
     7  O    2.978011   4.312684   4.497421   3.547871   2.330165
     8  C    3.883002   4.704015   4.141638   2.806502   2.543757
     9  Cl   5.352827   6.357935   5.909542   4.584880   4.126650
    10  N    3.631419   2.545897   1.435095   2.377783   3.520323
    11  O    4.191460   2.855003   2.259349   3.466841   4.424598
    12  O    4.447403   3.594318   2.283476   2.630835   3.974060
    13  H    1.080290   2.252074   3.268277   3.287743   2.185050
    14  H    2.258436   1.079212   2.185212   3.287761   3.294447
    15  H    4.130556   4.756443   4.032381   2.735008   2.802613
    16  H    4.131180   4.757996   4.034980   2.737974   2.803787
                    6          7          8          9         10
     6  C    0.000000
     7  O    1.214149   0.000000
     8  C    1.528014   2.433108   0.000000
     9  Cl   2.761559   2.978455   1.785719   0.000000
    10  N    4.811938   5.838606   5.080734   6.863391   0.000000
    11  O    5.818778   6.749575   6.242249   8.027947   1.232695
    12  O    5.021079   6.164930   4.911797   6.633909   1.228192
    13  H    2.975091   2.909205   4.443375   5.674513   4.662908
    14  H    4.728456   5.235525   5.781250   7.420472   2.941459
    15  H    2.159694   3.134900   1.094048   2.372533   4.805120
    16  H    2.159506   3.133371   1.094074   2.372417   4.808401
                   11         12         13         14         15
    11  O    0.000000
    12  O    2.198633   0.000000
    13  H    5.106500   5.522023   0.000000
    14  H    2.778181   4.132326   2.763720   0.000000
    15  H    5.986334   4.516847   4.804103   5.818264   0.000000
    16  H    5.989296   4.520784   4.803904   5.819720   1.762894
                   16
    16  H    0.000000
 Stoichiometry    C6H4ClNO4
 Framework group  C1[X(C6H4ClNO4)]
 Deg. of freedom    42
 Full point group                 C1      NOp   1
 Largest Abelian subgroup         C1      NOp   1
 Largest concise Abelian subgroup C1      NOp   1
                         Standard orientation:                         
 ---------------------------------------------------------------------
 Center     Atomic      Atomic             Coordinates (Angstroms)
 Number     Number       Type             X           Y           Z
 ---------------------------------------------------------------------
      1          6           0        0.633824    1.970528   -0.000123
      2          6           0        1.986815    1.544414   -0.000259
      3          6           0        1.930133    0.176375   -0.000077
      4          8           0        0.662705   -0.280711    0.000105
      5          6           0       -0.136934    0.831352    0.000040
      6          6           0       -1.603353    0.656280    0.000271
      7          8           0       -2.324965    1.632719    0.000268
      8          6           0       -2.097254   -0.789710    0.001446
      9         17           0       -3.879039   -0.908156   -0.000789
     10          7           0        2.983473   -0.798290   -0.000109
     11          8           0        4.128987   -0.342949   -0.000237
     12          8           0        2.666891   -1.984979    0.000044
     13          1           0        0.252748    2.981373   -0.000166
     14          1           0        2.885776    2.141546   -0.000453
     15          1           0       -1.712476   -1.313456   -0.878655
     16          1           0       -1.715031   -1.310850    0.884235
 ---------------------------------------------------------------------
 Rotational constants (GHZ):      1.9318599      0.3807167      0.3186679
 General basis read from cards:  (5D, 7F)
 There are   192 symmetry adapted cartesian basis functions of A   symmetry.
 There are   180 symmetry adapted basis functions of A   symmetry.
   180 basis functions,   376 primitive gaussians,   192 cartesian basis functions
    48 alpha electrons       48 beta electrons
       nuclear repulsion energy       747.7086337299 Hartrees.
 NAtoms=   16 NActive=   16 NUniq=   16 SFac= 1.00D+00 NAtFMM=   60 NAOKFM=F Big=F
 Integral buffers will be    131072 words long.
 Raffenetti 1 integral format.
 Two-electron integral symmetry is turned on.
 One-electron integrals computed using PRISM.
 NBasis=   180 RedAO= T EigKep=  6.81D-04  NBF=   180
 NBsUse=   180 1.00D-06 EigRej= -1.00D+00 NBFU=   180
 ExpMin= 1.43D-01 ExpMax= 2.52D+04 ExpMxC= 3.78D+03 IAcc=1 IRadAn=         1 AccDes= 0.00D+00
 Harris functional with IExCor=  205 and IRadAn=       1 diagonalized for initial guess.
 HarFok:  IExCor=  205 AccDes= 0.00D+00 IRadAn=         1 IDoV= 1 UseB2=F ITyADJ=14
 ICtDFT=  3500011 ScaDFX=  1.000000  1.000000  1.000000  1.000000
 FoFCou: FMM=F IPFlag=           0 FMFlag=      100000 FMFlg1=           0
         NFxFlg=           0 DoJE=T BraDBF=F KetDBF=T FulRan=T
         wScrn=  0.000000 ICntrl=     500 IOpCl=  0 I1Cent=   200000004 NGrid=           0
         NMat0=    1 NMatS0=      1 NMatT0=    0 NMatD0=    1 NMtDS0=    0 NMtDT0=    0
 Petite list used in FoFCou.
 Keep R1 ints in memory in canonical form, NReq=136416342.
 Requested convergence on RMS density matrix=1.00D-08 within 128 cycles.
 Requested convergence on MAX density matrix=1.00D-06.
 Requested convergence on             energy=1.00D-06.
 No special actions if energy rises.
 SCF Done:  E(RHF) =  -1042.73996041     A.U. after   15 cycles
            NFock= 15  Conv=0.82D-08     -V/T= 2.0010

 **********************************************************************

            Population analysis using the SCF density.

 **********************************************************************

 Orbital symmetries:
 BldTbl:  Degeneracy threshold= 1.00D-02
       Occupied  (A) (A) (A) (A) (A) (A) (A) (A) (A) (A) (A) (A)
                 (A) (A) (A) (A) (A) (A) (A) (A) (A) (A) (A) (A)
                 (A) (A) (A) (A) (A) (A) (A) (A) (A) (A) (A) (A)
                 (A) (A) (A) (A) (A) (A) (A) (A) (A) (A) (A) (A)
       Virtual   (A) (A) (A) (A) (A) (A) (A) (A) (A) (A) (A) (A)
                 (A) (A) (A) (A) (A) (A) (A) (A) (A) (A) (A) (A)
                 (A) (A) (A) (A) (A) (A) (A) (A) (A) (A) (A) (A)
                 (A) (A) (A) (A) (A) (A) (A) (A) (A) (A) (A) (A)
                 (A) (A) (A) (A) (A) (A) (A) (A) (A) (A) (A) (A)
                 (A) (A) (A) (A) (A) (A) (A) (A) (A) (A) (A) (A)
                 (A) (A) (A) (A) (A) (A) (A) (A) (A) (A) (A) (A)
                 (A) (A) (A) (A) (A) (A) (A) (A) (A) (A) (A) (A)
                 (A) (A) (A) (A) (A) (A) (A) (A) (A) (A) (A) (A)
                 (A) (A) (A) (A) (A) (A) (A) (A) (A) (A) (A) (A)
                 (A) (A) (A) (A) (A) (A) (A) (A) (A) (A) (A) (A)
 The electronic state is 1-A.
 Alpha  occ. eigenvalues -- -104.82441 -20.70345 -20.63428 -20.62933 -20.60087
 Alpha  occ. eigenvalues --  -15.88820 -11.39444 -11.38990 -11.35906 -11.32648
 Alpha  occ. eigenvalues --  -11.31062 -11.30049 -10.56315  -8.03177  -8.02822
 Alpha  occ. eigenvalues --   -8.02821  -1.62873  -1.53682  -1.43116  -1.42067
 Alpha  occ. eigenvalues --   -1.16498  -1.15603  -1.13340  -1.03202  -0.96655
 Alpha  occ. eigenvalues --   -0.87995  -0.84460  -0.81978  -0.79224  -0.75506
 Alpha  occ. eigenvalues --   -0.73897  -0.72877  -0.69751  -0.66342  -0.66065
 Alpha  occ. eigenvalues --   -0.64491  -0.64182  -0.62372  -0.56564  -0.55293
 Alpha  occ. eigenvalues --   -0.52242  -0.51551  -0.47617  -0.47115  -0.45739
 Alpha  occ. eigenvalues --   -0.45118  -0.45048  -0.38205
 Alpha virt. eigenvalues --    0.00679   0.08510   0.17655   0.19528   0.22299
 Alpha virt. eigenvalues --    0.23001   0.23585   0.27269   0.29670   0.30188
 Alpha virt. eigenvalues --    0.32700   0.35569   0.39453   0.42408   0.44743
 Alpha virt. eigenvalues --    0.48160   0.50794   0.52061   0.56737   0.60729
 Alpha virt. eigenvalues --    0.61351   0.63606   0.64750   0.66311   0.69031
 Alpha virt. eigenvalues --    0.71221   0.72495   0.73708   0.76080   0.77381
 Alpha virt. eigenvalues --    0.77791   0.78666   0.80111   0.81595   0.82599
 Alpha virt. eigenvalues --    0.86628   0.89033   0.91480   0.93669   0.97306
 Alpha virt. eigenvalues --    1.00324   1.01722   1.02613   1.03830   1.06464
 Alpha virt. eigenvalues --    1.06801   1.07647   1.11890   1.13425   1.14624
 Alpha virt. eigenvalues --    1.14966   1.16847   1.17602   1.18225   1.19846
 Alpha virt. eigenvalues --    1.21431   1.21922   1.24869   1.25258   1.28352
 Alpha virt. eigenvalues --    1.28404   1.29784   1.33482   1.34535   1.38140
 Alpha virt. eigenvalues --    1.39138   1.41418   1.45804   1.47389   1.51239
 Alpha virt. eigenvalues --    1.54379   1.55464   1.56791   1.57498   1.61371
 Alpha virt. eigenvalues --    1.64774   1.69668   1.70514   1.75771   1.81209
 Alpha virt. eigenvalues --    1.86306   1.90128   1.96357   1.96988   2.00264
 Alpha virt. eigenvalues --    2.01550   2.02810   2.05223   2.07536   2.08519
 Alpha virt. eigenvalues --    2.11389   2.13730   2.16242   2.18802   2.21137
 Alpha virt. eigenvalues --    2.21403   2.22794   2.25512   2.30850   2.32679
 Alpha virt. eigenvalues --    2.32850   2.37615   2.40222   2.45579   2.46695
 Alpha virt. eigenvalues --    2.48486   2.49741   2.51581   2.54519   2.56862
 Alpha virt. eigenvalues --    2.60599   2.69594   2.72238   2.74666   2.78235
 Alpha virt. eigenvalues --    2.81178   2.87649   2.94027   2.97098   3.00959
 Alpha virt. eigenvalues --    3.02642   3.05098   3.09411   3.13942   3.19674
 Alpha virt. eigenvalues --    3.24578   3.25724   3.31814   3.40071   3.44590
 Alpha virt. eigenvalues --    3.58266   3.67644
          Condensed to atoms (all electrons):
               1          2          3          4          5          6
     1  C    5.001301   0.441508  -0.060008  -0.082773   0.596519  -0.035697
     2  C    0.441508   5.000624   0.585014  -0.080607  -0.055980   0.003591
     3  C   -0.060008   0.585014   4.640380   0.290231  -0.110344  -0.000362
     4  O   -0.082773  -0.080607   0.290231   8.290954   0.254672  -0.018201
     5  C    0.596519  -0.055980  -0.110344   0.254672   4.904156   0.319323
     6  C   -0.035697   0.003591  -0.000362  -0.018201   0.319323   4.439330
     7  O    0.001663   0.000517  -0.000130   0.001230  -0.084475   0.604227
     8  C    0.003021   0.000323  -0.000848  -0.000867  -0.121475   0.274948
     9  Cl  -0.000001  -0.000003   0.000008  -0.000005   0.006064  -0.053071
    10  N    0.003713  -0.054028   0.207899  -0.025035  -0.002497  -0.000072
    11  O    0.000544   0.005666  -0.092966   0.001349  -0.000123   0.000000
    12  O   -0.000105   0.002958  -0.079001  -0.003230   0.000208   0.000012
    13  H    0.367116  -0.017828   0.001986   0.001983  -0.014361   0.000118
    14  H   -0.017448   0.364963  -0.016009   0.001958   0.002639  -0.000019
    15  H   -0.000224   0.000012  -0.000024   0.000446   0.001086  -0.029900
    16  H   -0.000227   0.000013  -0.000025   0.000444   0.001055  -0.029858
               7          8          9         10         11         12
     1  C    0.001663   0.003021  -0.000001   0.003713   0.000544  -0.000105
     2  C    0.000517   0.000323  -0.000003  -0.054028   0.005666   0.002958
     3  C   -0.000130  -0.000848   0.000008   0.207899  -0.092966  -0.079001
     4  O    0.001230  -0.000867  -0.000005  -0.025035   0.001349  -0.003230
     5  C   -0.084475  -0.121475   0.006064  -0.002497  -0.000123   0.000208
     6  C    0.604227   0.274948  -0.053071  -0.000072   0.000000   0.000012
     7  O    8.057060  -0.077405   0.002435   0.000000   0.000000   0.000000
     8  C   -0.077405   5.465049   0.210752  -0.000022   0.000000  -0.000007
     9  Cl   0.002435   0.210752  16.935923   0.000000   0.000000   0.000000
    10  N    0.000000  -0.000022   0.000000   5.752496   0.341514   0.316629
    11  O    0.000000   0.000000   0.000000   0.341514   8.299863  -0.077298
    12  O    0.000000  -0.000007   0.000000   0.316629  -0.077298   8.294174
    13  H    0.001632   0.000015   0.000002  -0.000017   0.000000   0.000001
    14  H    0.000001   0.000002   0.000000  -0.001394   0.002426  -0.000031
    15  H    0.000836   0.372939  -0.039656  -0.000002   0.000000   0.000005
    16  H    0.000826   0.372912  -0.039647  -0.000002   0.000000   0.000005
              13         14         15         16
     1  C    0.367116  -0.017448  -0.000224  -0.000227
     2  C   -0.017828   0.364963   0.000012   0.000013
     3  C    0.001986  -0.016009  -0.000024  -0.000025
     4  O    0.001983   0.001958   0.000446   0.000444
     5  C   -0.014361   0.002639   0.001086   0.001055
     6  C    0.000118  -0.000019  -0.029900  -0.029858
     7  O    0.001632   0.000001   0.000836   0.000826
     8  C    0.000015   0.000002   0.372939   0.372912
     9  Cl   0.000002   0.000000  -0.039656  -0.039647
    10  N   -0.000017  -0.001394  -0.000002  -0.000002
    11  O    0.000000   0.002426   0.000000   0.000000
    12  O    0.000001  -0.000031   0.000005   0.000005
    13  H    0.377329  -0.000026  -0.000004  -0.000004
    14  H   -0.000026   0.372209   0.000000   0.000000
    15  H   -0.000004   0.000000   0.459355  -0.023403
    16  H   -0.000004   0.000000  -0.023403   0.459376
 Mulliken charges:
               1
     1  C   -0.218901
     2  C   -0.196743
     3  C    0.634200
     4  O   -0.632548
     5  C    0.303531
     6  C    0.525631
     7  O   -0.508417
     8  C   -0.499336
     9  Cl  -0.022802
    10  N    0.460818
    11  O   -0.480975
    12  O   -0.454319
    13  H    0.282059
    14  H    0.290729
    15  H    0.258535
    16  H    0.258537
 Sum of Mulliken charges =   0.00000
 Mulliken charges with hydrogens summed into heavy atoms:
               1
     1  C    0.063158
     2  C    0.093986
     3  C    0.634200
     4  O   -0.632548
     5  C    0.303531
     6  C    0.525631
     7  O   -0.508417
     8  C    0.017736
     9  Cl  -0.022802
    10  N    0.460818
    11  O   -0.480975
    12  O   -0.454319
 DipInt: DoE/N= T F RetVal/Mat= T F Init=T NMatP=  1 IDeriv=0 Min/MaxMlt=  0  4
 Entering OneElI...
 OneElI was handed   235832713 working-precision words.
 Multipole integrals L=0 to 4 MinM= 0 MaxM= 0.
 Requested accuracy = 0.1000D-12
 ShPair: Thresh= 1.00D-13 NBox=     0 BxSize= 0.00D+00 RnKept= 1.52D+01
         NSMCal=                 1653 NSMKep=                1437
 PrsmSu:  NPrtUS=   1 ThrOK=F IAlg=1 NPAlg=1 LenDen=           0.
 Prism:   IPart=     0 DynPar=F LinDyn=F Incr=          14.
 PRISM was handed   235682340 working-precision words and  1437 shell-pairs
 IPart=  0 NShTot=        1437 NBatch=          77 AvBLen=        18.7
 PrSmSu:  NxtVal=             15.
 Electronic moments (au):
        -96.00000000          0.37264721          0.92736757          0.00111492
      -2441.24408961       -548.70475542        -59.43802311         10.44654857
         -0.00519320         -0.00282841       1090.77379916       -366.18839132
         -0.07182976       -242.13609907       2229.72572609          1.17134541
         21.94797522          3.50214978          0.02840015          0.26178796
    -108498.87193763      -7251.80340004       -210.13563508      -3231.60670624
         -5.55339555       1277.57551741          0.08898072          0.24817922
          0.16869826     -11255.18678335      -1411.76040827       -374.82839105
         -1.87044785          0.06298867        -83.31426243
 Electronic spatial extent (au):  <R**2>=           3049.3869
 DipInt: DoE/N= F T RetVal/Mat= T F Init=T NMatP=  1 IDeriv=0 Min/MaxMlt=  0  4
 Nuclear    moments (au):
         96.00000000          0.00000000          0.00000000          0.00000000
       2366.86763819        493.11850993          5.54919087          0.00000000
         -0.00004086         -0.00001420      -1107.17314124        387.98640313
          0.08776537        258.37790251      -2207.91228068         -1.16105268
        -17.97142264        -13.75963409         -0.03310276         -0.25294043
      99327.41217499       5515.50204065         15.39687022       3431.22934981
          5.71191069      -1168.57405191         -0.09661097         -0.30654457
         -0.19486403       9501.38722035         58.20270496         34.11832782
          1.82285973         -0.09044253         44.56144038
 Total      moments (au):
          0.00000000          0.37264721          0.92736757          0.00111492
        -74.37645142        -55.58624549        -53.88883224         10.44654857
         -0.00523406         -0.00284260        -16.39934208         21.79801181
          0.01593561         16.24180344         21.81344542          0.01029273
          3.97655258        -10.25748431         -0.00470261          0.00884753
      -9171.45976264      -1736.30135939       -194.73876486        199.62264357
          0.15851514        109.00146551         -0.00763025         -0.05836536
         -0.02616577      -1753.79956300      -1353.55770331       -340.71006323
         -0.04758813         -0.02745386        -38.75282205
 Traceless Quadrup. (au):
        -13.09260837          5.69759756          7.39501081         10.44654857
         -0.00523406         -0.00284260
 Charge=              0.0000 electrons
 Dipole moment (field-independent basis, Debye):
    X=              0.9472    Y=              2.3571    Z=              0.0028  Tot=              2.5403
 Quadrupole moment (field-independent basis, Debye-Ang):
   XX=           -100.0389   YY=            -74.7654   ZZ=            -72.4823
   XY=             14.0510   XZ=             -0.0070   YZ=             -0.0038
 Traceless Quadrupole moment (field-independent basis, Debye-Ang):
   XX=            -17.6100   YY=              7.6635   ZZ=              9.9465
   XY=             14.0510   XZ=             -0.0070   YZ=             -0.0038
 Octapole moment (field-independent basis, Debye-Ang**2):
  XXX=            -11.6724  YYY=             15.5150  ZZZ=              0.0113  XYY=             11.5603
  XXY=             15.5260  XXZ=              0.0073  XZZ=              2.8304  YZZ=             -7.3009
  YYZ=             -0.0033  XYZ=              0.0063
 Hexadecapole moment (field-independent basis, Debye-Ang**3):
 XXXX=          -3454.4113 YYYY=           -653.9743 ZZZZ=            -73.3480 XXXY=             75.1875
 XXXZ=              0.0597 YYYX=             41.0552 YYYZ=             -0.0029 ZZZX=             -0.0220
 ZZZY=             -0.0099 XXYY=           -660.5650 XXZZ=           -509.8147 YYZZ=           -128.3277
 XXYZ=             -0.0179 YYXZ=             -0.0103 ZZXY=            -14.5962
 N-N= 7.477086337299D+02 E-N=-3.958963302676D+03  KE= 1.041705226119D+03
 Entering OneElI...
 OneElI was handed   235855125 working-precision words.
 Calculate electrostatic properties
    NBasis =   180  MinDer = 0  MaxDer = 0
    NGrid  =    16  NMatD  =   1
 Requested accuracy = 0.1000D-12
 ShPair: Thresh= 1.00D-13 NBox=     0 BxSize= 0.00D+00 RnKept= 1.52D+01
         NSMCal=                 1653 NSMKep=                1331
 PrsmSu:  NPrtUS=   1 ThrOK=F IAlg=1 NPAlg=1 LenDen=           0.
 Prism:   IPart=     0 DynPar=F LinDyn=F Incr=         212.
 PRISM was handed   235714805 working-precision words and  1331 shell-pairs
 IPart=  0 NShTot=       21296 NBatch=        1331 AvBLen=        16.0
 PrSmSu:  NxtVal=            213.
 --------------------------------------------------------
       Center         ----      EFG at Nuclei      ----
                      3XX-RR        3YY-RR        3ZZ-RR
 --------------------------------------------------------
     1   Atom        0.111994      0.190680     -0.302674
     2   Atom        0.205952      0.118613     -0.324565
     3   Atom       -0.304076      0.169464      0.134612
     4   Atom       -1.369856      0.436609      0.933247
     5   Atom        0.123308     -0.069248     -0.054060
     6   Atom        0.225094      0.321080     -0.546174
     7   Atom        1.121725      0.301912     -1.423637
     8   Atom       -0.377264      0.136807      0.240457
     9   Atom       -3.867695      1.935264      1.932431
    10   Atom        0.300077      0.273220     -0.573297
    11   Atom       -1.442242      1.752964     -0.310722
    12   Atom        2.189740     -1.717030     -0.472710
    13   Atom        0.095014     -0.259679      0.164665
    14   Atom       -0.168565      0.004741      0.163824
    15   Atom        0.085787      0.046130     -0.131917
    16   Atom        0.086469      0.047141     -0.133610
 --------------------------------------------------------
                        XY            XZ            YZ
 --------------------------------------------------------
     1   Atom       -0.019286     -0.000045     -0.000038
     2   Atom        0.032902     -0.000071     -0.000049
     3   Atom        0.027713      0.000067     -0.000010
     4   Atom        0.536441      0.000151      0.000061
     5   Atom        0.311406     -0.000061     -0.000024
     6   Atom       -0.015434     -0.000196     -0.000318
     7   Atom        1.298774     -0.001059     -0.001225
     8   Atom       -0.081487     -0.000807      0.000112
     9   Atom       -0.502284     -0.007305     -0.000513
    10   Atom       -0.059741     -0.000071     -0.000075
    11   Atom       -1.588770      0.000172     -0.000059
    12   Atom       -1.155293     -0.000105      0.000277
    13   Atom        0.150342     -0.000004      0.000019
    14   Atom       -0.216951      0.000071      0.000048
    15   Atom        0.062928      0.122863     -0.168395
    16   Atom        0.062085     -0.122423      0.168032
 --------------------------------------------------------


 ---------------------------------------------------------------------------------
              Nuclear Quadrupole Coupling Constant in Principal Axis System
 ---------------------------------------------------------------------------------

       Atom             a.u.   MegaHertz   Gauss  10(-4) cm-1        Axes

              Baa    -3.9109   -75.029   -26.772   -25.027  0.9963  0.0856  0.0013
     9 Cl(35) Bbb     1.9324    37.074    13.229    12.366 -0.0010 -0.0026  1.0000
              Bcc     1.9784    37.956    13.544    12.661 -0.0856  0.9963  0.0025
 
              Baa    -0.5733     2.753     0.982     0.918  0.0001  0.0001  1.0000
    10 N(14)  Bbb     0.2254    -1.083    -0.386    -0.361  0.6248  0.7808 -0.0001
              Bcc     0.3479    -1.671    -0.596    -0.557  0.7808 -0.6248  0.0000
 

 ---------------------------------------------------------------------------------

 No NMR shielding tensors so no spin-rotation constants.
 Leave Link  601 at Thu Jan 16 21:47:14 2014, MaxMem=   235929600 cpu:         0.3
 FitSet:  NAtFit=    16 NAtPot=    16 NAtFrz=     0 MDM=    20 TotChg=   0.00000
 Merz-Kollman atomic radii used.
 Atom Element Radius
    1     6    1.50
    2     6    1.50
    3     6    1.50
    4     8    1.40
    5     6    1.50
    6     6    1.50
    7     8    1.40
    8     6    1.50
    9    17    1.70
   10     7    1.50
   11     8    1.40
   12     8    1.40
   13     1    1.20
   14     1    1.20
   15     1    1.20
   16     1    1.20
 Generate VDW surfaces: Layer= 5 Dens= 2 Start= 1.400 Inc= 0.179

 **********************************************************************

            Electrostatic Properties Using The SCF Density

 **********************************************************************

       Atomic Center    1 is at   0.633824  1.970528 -0.000123
       Atomic Center    2 is at   1.986815  1.544414 -0.000259
       Atomic Center    3 is at   1.930133  0.176375 -0.000077
       Atomic Center    4 is at   0.662705 -0.280711  0.000105
       Atomic Center    5 is at  -0.136934  0.831352  0.000040
       Atomic Center    6 is at  -1.603353  0.656280  0.000271
       Atomic Center    7 is at  -2.324965  1.632719  0.000268
       Atomic Center    8 is at  -2.097254 -0.789710  0.001446
       Atomic Center    9 is at  -3.879039 -0.908156 -0.000789
       Atomic Center   10 is at   2.983473 -0.798290 -0.000109
       Atomic Center   11 is at   4.128987 -0.342949 -0.000237
       Atomic Center   12 is at   2.666891 -1.984979  0.000044
       Atomic Center   13 is at   0.252748  2.981373 -0.000166
       Atomic Center   14 is at   2.885776  2.141546 -0.000453
       Atomic Center   15 is at  -1.712476 -1.313456 -0.878655
       Atomic Center   16 is at  -1.715031 -1.310850  0.884235
      ESP Fit Center   17 is at   0.633824  1.970528  2.099877
      ESP Fit Center   18 is at   1.352066  1.970528  1.973231
      ESP Fit Center   19 is at   0.992945  2.592544  1.973231
      ESP Fit Center   20 is at   0.274703  2.592544  1.973231
      ESP Fit Center   21 is at  -0.084418  1.970528  1.973231
      ESP Fit Center   22 is at   0.992945  1.348512  1.973231
      ESP Fit Center   23 is at   1.194573  3.198398  1.608570
      ESP Fit Center   24 is at  -0.250143  2.990680  1.608570
      ESP Fit Center   25 is at  -0.661352  2.350826  1.608570
      ESP Fit Center   26 is at   1.194573  3.198398 -1.608816
      ESP Fit Center   27 is at  -0.250143  2.990680 -1.608816
      ESP Fit Center   28 is at  -0.661352  2.350826 -1.608816
      ESP Fit Center   29 is at   1.352066  1.970528 -1.973478
      ESP Fit Center   30 is at   0.992945  2.592544 -1.973478
      ESP Fit Center   31 is at   0.274703  2.592544 -1.973478
      ESP Fit Center   32 is at  -0.084418  1.970528 -1.973478
      ESP Fit Center   33 is at   0.992945  1.348512 -1.973478
      ESP Fit Center   34 is at   0.633824  1.970528 -2.100123
      ESP Fit Center   35 is at   1.986815  1.544414  2.099741
      ESP Fit Center   36 is at   2.705057  1.544414  1.973095
      ESP Fit Center   37 is at   2.345936  2.166430  1.973095
      ESP Fit Center   38 is at   1.627694  2.166430  1.973095
      ESP Fit Center   39 is at   1.268573  1.544414  1.973095
      ESP Fit Center   40 is at   1.627694  0.922398  1.973095
      ESP Fit Center   41 is at   2.345936  0.922398  1.973095
      ESP Fit Center   42 is at   3.336669  1.544414  1.608434
      ESP Fit Center   43 is at   2.547564  2.772285  1.608434
      ESP Fit Center   44 is at   1.794711  2.880529  1.608434
      ESP Fit Center   45 is at   3.122384  0.814628  1.608434
      ESP Fit Center   46 is at   3.336669  1.544414 -1.608952
      ESP Fit Center   47 is at   2.547564  2.772285 -1.608952
      ESP Fit Center   48 is at   1.794711  2.880529 -1.608952
      ESP Fit Center   49 is at   3.122384  0.814628 -1.608952
      ESP Fit Center   50 is at   2.705057  1.544414 -1.973614
      ESP Fit Center   51 is at   2.345936  2.166430 -1.973614
      ESP Fit Center   52 is at   1.627694  2.166430 -1.973614
      ESP Fit Center   53 is at   1.268573  1.544414 -1.973614
      ESP Fit Center   54 is at   1.627694  0.922398 -1.973614
      ESP Fit Center   55 is at   2.345936  0.922398 -1.973614
      ESP Fit Center   56 is at   1.986815  1.544414 -2.100259
      ESP Fit Center   57 is at   1.930133  0.176375  2.099923
      ESP Fit Center   58 is at   2.648375  0.176375  1.973277
      ESP Fit Center   59 is at   2.289254  0.798391  1.973277
      ESP Fit Center   60 is at   1.571012  0.798391  1.973277
      ESP Fit Center   61 is at   1.211891  0.176375  1.973277
      ESP Fit Center   62 is at   1.571012 -0.445641  1.973277
      ESP Fit Center   63 is at   2.289254 -0.445641  1.973277
      ESP Fit Center   64 is at   2.648375  0.176375 -1.973432
      ESP Fit Center   65 is at   2.289254  0.798391 -1.973432
      ESP Fit Center   66 is at   1.571012  0.798391 -1.973432
      ESP Fit Center   67 is at   1.211891  0.176375 -1.973432
      ESP Fit Center   68 is at   1.571012 -0.445641 -1.973432
      ESP Fit Center   69 is at   2.289254 -0.445641 -1.973432
      ESP Fit Center   70 is at   1.930133  0.176375 -2.100077
      ESP Fit Center   71 is at   0.662705 -0.280711  1.960105
      ESP Fit Center   72 is at  -0.087354 -0.280711  1.810909
      ESP Fit Center   73 is at   0.287675 -0.930282  1.810909
      ESP Fit Center   74 is at   1.037735 -0.930282  1.810909
      ESP Fit Center   75 is at  -0.030260 -1.480961  1.386034
      ESP Fit Center   76 is at   0.662705 -1.666640  1.386034
      ESP Fit Center   77 is at   1.355670 -1.480961  1.386034
      ESP Fit Center   78 is at   0.473425 -2.081595  0.750164
      ESP Fit Center   79 is at   0.126326 -2.165889  0.000105
      ESP Fit Center   80 is at   0.473425 -2.081595 -0.749955
      ESP Fit Center   81 is at  -0.030260 -1.480961 -1.385824
      ESP Fit Center   82 is at   0.662705 -1.666640 -1.385824
      ESP Fit Center   83 is at   1.355670 -1.480961 -1.385824
      ESP Fit Center   84 is at  -0.087354 -0.280711 -1.810699
      ESP Fit Center   85 is at   0.287675 -0.930282 -1.810699
      ESP Fit Center   86 is at   1.037735 -0.930282 -1.810699
      ESP Fit Center   87 is at   0.662705 -0.280711 -1.959895
      ESP Fit Center   88 is at  -0.136934  0.831352  2.100040
      ESP Fit Center   89 is at   0.581308  0.831352  1.973394
      ESP Fit Center   90 is at  -0.496055  1.453368  1.973394
      ESP Fit Center   91 is at  -0.855176  0.831352  1.973394
      ESP Fit Center   92 is at  -0.496055  0.209336  1.973394
      ESP Fit Center   93 is at   0.222187  0.209336  1.973394
      ESP Fit Center   94 is at   0.581308  0.831352 -1.973315
      ESP Fit Center   95 is at  -0.496055  1.453368 -1.973315
      ESP Fit Center   96 is at  -0.855176  0.831352 -1.973315
      ESP Fit Center   97 is at  -0.496055  0.209336 -1.973315
      ESP Fit Center   98 is at   0.222187  0.209336 -1.973315
      ESP Fit Center   99 is at  -0.136934  0.831352 -2.099960
      ESP Fit Center  100 is at  -1.603353  0.656280  2.100271
      ESP Fit Center  101 is at  -0.885111  0.656280  1.973625
      ESP Fit Center  102 is at  -1.244232  1.278296  1.973625
      ESP Fit Center  103 is at  -1.962474  1.278296  1.973625
      ESP Fit Center  104 is at  -2.321595  0.656280  1.973625
      ESP Fit Center  105 is at  -1.962474  0.034264  1.973625
      ESP Fit Center  106 is at  -1.244232  0.034264  1.973625
      ESP Fit Center  107 is at  -1.042603  1.884150  1.608964
      ESP Fit Center  108 is at  -1.042603  1.884150 -1.608422
      ESP Fit Center  109 is at  -0.885111  0.656280 -1.973084
      ESP Fit Center  110 is at  -1.244232  1.278296 -1.973084
      ESP Fit Center  111 is at  -1.962474  1.278296 -1.973084
      ESP Fit Center  112 is at  -2.321595  0.656280 -1.973084
      ESP Fit Center  113 is at  -1.962474  0.034264 -1.973084
      ESP Fit Center  114 is at  -1.244232  0.034264 -1.973084
      ESP Fit Center  115 is at  -1.603353  0.656280 -2.099729
      ESP Fit Center  116 is at  -2.324965  1.632719  1.960268
      ESP Fit Center  117 is at  -1.949935  2.282289  1.811072
      ESP Fit Center  118 is at  -2.699995  2.282289  1.811072
      ESP Fit Center  119 is at  -3.075025  1.632719  1.811072
      ESP Fit Center  120 is at  -2.699995  0.983148  1.811072
      ESP Fit Center  121 is at  -1.124715  2.325683  1.386197
      ESP Fit Center  122 is at  -1.632000  2.832969  1.386197
      ESP Fit Center  123 is at  -2.324965  3.018648  1.386197
      ESP Fit Center  124 is at  -3.017930  2.832969  1.386197
      ESP Fit Center  125 is at  -3.525215  2.325683  1.386197
      ESP Fit Center  126 is at  -3.710894  1.632719  1.386197
      ESP Fit Center  127 is at  -1.765396  3.354896  0.750327
      ESP Fit Center  128 is at  -2.514246  3.433603  0.750327
      ESP Fit Center  129 is at  -3.230367  3.200921  0.750327
      ESP Fit Center  130 is at  -3.789936  2.697083  0.750327
      ESP Fit Center  131 is at  -4.096199  2.009206  0.750327
      ESP Fit Center  132 is at  -1.451318  3.387239  0.000268
      ESP Fit Center  133 is at  -2.144119  3.584358  0.000268
      ESP Fit Center  134 is at  -2.861345  3.517897  0.000268
      ESP Fit Center  135 is at  -3.506129  3.196832  0.000268
      ESP Fit Center  136 is at  -3.991391  2.664526  0.000268
      ESP Fit Center  137 is at  -4.251592  1.992868  0.000268
      ESP Fit Center  138 is at  -1.765396  3.354896 -0.749792
      ESP Fit Center  139 is at  -2.514246  3.433603 -0.749792
      ESP Fit Center  140 is at  -3.230367  3.200921 -0.749792
      ESP Fit Center  141 is at  -3.789936  2.697083 -0.749792
      ESP Fit Center  142 is at  -4.096199  2.009206 -0.749792
      ESP Fit Center  143 is at  -1.124715  2.325683 -1.385661
      ESP Fit Center  144 is at  -1.632000  2.832969 -1.385661
      ESP Fit Center  145 is at  -2.324965  3.018648 -1.385661
      ESP Fit Center  146 is at  -3.017930  2.832969 -1.385661
      ESP Fit Center  147 is at  -3.525215  2.325683 -1.385661
      ESP Fit Center  148 is at  -3.710894  1.632719 -1.385661
      ESP Fit Center  149 is at  -1.949935  2.282289 -1.810536
      ESP Fit Center  150 is at  -2.699995  2.282289 -1.810536
      ESP Fit Center  151 is at  -3.075025  1.632719 -1.810536
      ESP Fit Center  152 is at  -2.699995  0.983148 -1.810536
      ESP Fit Center  153 is at  -2.324965  1.632719 -1.959732
      ESP Fit Center  154 is at  -2.456375 -0.167694  1.974800
      ESP Fit Center  155 is at  -2.456375 -0.167694 -1.971909
      ESP Fit Center  156 is at  -3.879039 -0.908156  2.379211
      ESP Fit Center  157 is at  -3.143578 -0.908156  2.262725
      ESP Fit Center  158 is at  -3.511309 -0.271229  2.262725
      ESP Fit Center  159 is at  -4.246769 -0.271229  2.262725
      ESP Fit Center  160 is at  -4.614499 -0.908156  2.262725
      ESP Fit Center  161 is at  -4.246769 -1.545084  2.262725
      ESP Fit Center  162 is at  -3.511309 -1.545084  2.262725
      ESP Fit Center  163 is at  -3.179574  0.303352  1.924671
      ESP Fit Center  164 is at  -3.879039  0.490772  1.924671
      ESP Fit Center  165 is at  -4.578503  0.303352  1.924671
      ESP Fit Center  166 is at  -5.090547 -0.208692  1.924671
      ESP Fit Center  167 is at  -5.277968 -0.908156  1.924671
      ESP Fit Center  168 is at  -5.090547 -1.607621  1.924671
      ESP Fit Center  169 is at  -4.578503 -2.119664  1.924671
      ESP Fit Center  170 is at  -3.879039 -2.307085  1.924671
      ESP Fit Center  171 is at  -3.179574 -2.119664  1.924671
      ESP Fit Center  172 is at  -3.879039  1.017304  1.398140
      ESP Fit Center  173 is at  -4.615881  0.870737  1.398140
      ESP Fit Center  174 is at  -5.240545  0.453350  1.398140
      ESP Fit Center  175 is at  -5.657932 -0.171315  1.398140
      ESP Fit Center  176 is at  -5.804499 -0.908156  1.398140
      ESP Fit Center  177 is at  -5.657932 -1.644998  1.398140
      ESP Fit Center  178 is at  -5.240545 -2.269663  1.398140
      ESP Fit Center  179 is at  -4.615881 -2.687050  1.398140
      ESP Fit Center  180 is at  -3.879039 -2.833617  1.398140
      ESP Fit Center  181 is at  -3.142197 -2.687050  1.398140
      ESP Fit Center  182 is at  -4.788282  1.164710  0.734671
      ESP Fit Center  183 is at  -5.412076  0.757165  0.734671
      ESP Fit Center  184 is at  -5.869740  0.169157  0.734671
      ESP Fit Center  185 is at  -6.111682 -0.535594  0.734671
      ESP Fit Center  186 is at  -6.111682 -1.280719  0.734671
      ESP Fit Center  187 is at  -5.869740 -1.985470  0.734671
      ESP Fit Center  188 is at  -5.412076 -2.573478  0.734671
      ESP Fit Center  189 is at  -4.788282 -2.981023  0.734671
      ESP Fit Center  190 is at  -4.065958 -3.163940  0.734671
      ESP Fit Center  191 is at  -3.323379 -3.102408  0.734671
      ESP Fit Center  192 is at  -2.641014 -2.803095  0.734671
      ESP Fit Center  193 is at  -4.408639  1.412172 -0.000789
      ESP Fit Center  194 is at  -5.069039  1.152984 -0.000789
      ESP Fit Center  195 is at  -5.623702  0.710655 -0.000789
      ESP Fit Center  196 is at  -6.023345  0.124487 -0.000789
      ESP Fit Center  197 is at  -6.232456 -0.553436 -0.000789
      ESP Fit Center  198 is at  -6.232456 -1.262877 -0.000789
      ESP Fit Center  199 is at  -6.023345 -1.940800 -0.000789
      ESP Fit Center  200 is at  -5.623702 -2.526968 -0.000789
      ESP Fit Center  201 is at  -5.069039 -2.969297 -0.000789
      ESP Fit Center  202 is at  -4.408639 -3.228485 -0.000789
      ESP Fit Center  203 is at  -3.701181 -3.281501 -0.000789
      ESP Fit Center  204 is at  -3.009527 -3.123636 -0.000789
      ESP Fit Center  205 is at  -4.788282  1.164710 -0.736250
      ESP Fit Center  206 is at  -5.412076  0.757165 -0.736250
      ESP Fit Center  207 is at  -5.869740  0.169157 -0.736250
      ESP Fit Center  208 is at  -6.111682 -0.535594 -0.736250
      ESP Fit Center  209 is at  -6.111682 -1.280719 -0.736250
      ESP Fit Center  210 is at  -5.869740 -1.985470 -0.736250
      ESP Fit Center  211 is at  -5.412076 -2.573478 -0.736250
      ESP Fit Center  212 is at  -4.788282 -2.981023 -0.736250
      ESP Fit Center  213 is at  -4.065958 -3.163940 -0.736250
      ESP Fit Center  214 is at  -3.323379 -3.102408 -0.736250
      ESP Fit Center  215 is at  -2.641014 -2.803095 -0.736250
      ESP Fit Center  216 is at  -3.879039  1.017304 -1.399718
      ESP Fit Center  217 is at  -4.615881  0.870737 -1.399718
      ESP Fit Center  218 is at  -5.240545  0.453350 -1.399718
      ESP Fit Center  219 is at  -5.657932 -0.171315 -1.399718
      ESP Fit Center  220 is at  -5.804499 -0.908156 -1.399718
      ESP Fit Center  221 is at  -5.657932 -1.644998 -1.399718
      ESP Fit Center  222 is at  -5.240545 -2.269663 -1.399718
      ESP Fit Center  223 is at  -4.615881 -2.687050 -1.399718
      ESP Fit Center  224 is at  -3.879039 -2.833617 -1.399718
      ESP Fit Center  225 is at  -3.142197 -2.687050 -1.399718
      ESP Fit Center  226 is at  -3.179574  0.303352 -1.926250
      ESP Fit Center  227 is at  -3.879039  0.490772 -1.926250
      ESP Fit Center  228 is at  -4.578503  0.303352 -1.926250
      ESP Fit Center  229 is at  -5.090547 -0.208692 -1.926250
      ESP Fit Center  230 is at  -5.277968 -0.908156 -1.926250
      ESP Fit Center  231 is at  -5.090547 -1.607621 -1.926250
      ESP Fit Center  232 is at  -4.578503 -2.119664 -1.926250
      ESP Fit Center  233 is at  -3.879039 -2.307085 -1.926250
      ESP Fit Center  234 is at  -3.179574 -2.119664 -1.926250
      ESP Fit Center  235 is at  -3.143578 -0.908156 -2.264304
      ESP Fit Center  236 is at  -3.511309 -0.271229 -2.264304
      ESP Fit Center  237 is at  -4.246769 -0.271229 -2.264304
      ESP Fit Center  238 is at  -4.614499 -0.908156 -2.264304
      ESP Fit Center  239 is at  -4.246769 -1.545084 -2.264304
      ESP Fit Center  240 is at  -3.511309 -1.545084 -2.264304
      ESP Fit Center  241 is at  -3.879039 -0.908156 -2.380789
      ESP Fit Center  242 is at   2.983473 -0.798290  2.099891
      ESP Fit Center  243 is at   3.701715 -0.798290  1.973245
      ESP Fit Center  244 is at   3.342594 -0.176274  1.973245
      ESP Fit Center  245 is at   2.624352 -0.176274  1.973245
      ESP Fit Center  246 is at   2.265231 -0.798290  1.973245
      ESP Fit Center  247 is at   2.624352 -1.420306  1.973245
      ESP Fit Center  248 is at   3.342594 -1.420306  1.973245
      ESP Fit Center  249 is at   1.688298 -1.178588  1.608584
      ESP Fit Center  250 is at   4.119043 -1.528076  1.608584
      ESP Fit Center  251 is at   1.688298 -1.178588 -1.608802
      ESP Fit Center  252 is at   4.119043 -1.528076 -1.608802
      ESP Fit Center  253 is at   3.701715 -0.798290 -1.973464
      ESP Fit Center  254 is at   3.342594 -0.176274 -1.973464
      ESP Fit Center  255 is at   2.624352 -0.176274 -1.973464
      ESP Fit Center  256 is at   2.265231 -0.798290 -1.973464
      ESP Fit Center  257 is at   2.624352 -1.420306 -1.973464
      ESP Fit Center  258 is at   3.342594 -1.420306 -1.973464
      ESP Fit Center  259 is at   2.983473 -0.798290 -2.100109
      ESP Fit Center  260 is at   4.128987 -0.342949  1.959763
      ESP Fit Center  261 is at   4.879047 -0.342949  1.810567
      ESP Fit Center  262 is at   4.504017  0.306622  1.810567
      ESP Fit Center  263 is at   3.753957  0.306622  1.810567
      ESP Fit Center  264 is at   4.504017 -0.992519  1.810567
      ESP Fit Center  265 is at   5.514916 -0.342949  1.385692
      ESP Fit Center  266 is at   5.329237  0.350016  1.385692
      ESP Fit Center  267 is at   4.821952  0.857301  1.385692
      ESP Fit Center  268 is at   4.128987  1.042981  1.385692
      ESP Fit Center  269 is at   3.436022  0.857301  1.385692
      ESP Fit Center  270 is at   4.821952 -1.543199  1.385692
      ESP Fit Center  271 is at   5.329237 -1.035913  1.385692
      ESP Fit Center  272 is at   5.939791 -0.342949  0.749822
      ESP Fit Center  273 is at   5.783239  0.393572  0.749822
      ESP Fit Center  274 is at   5.340651  1.002741  0.749822
      ESP Fit Center  275 is at   4.688556  1.379228  0.749822
      ESP Fit Center  276 is at   4.688556 -2.065125  0.749822
      ESP Fit Center  277 is at   5.340651 -1.688638  0.749822
      ESP Fit Center  278 is at   5.783239 -1.079469  0.749822
      ESP Fit Center  279 is at   6.088987 -0.342949 -0.000237
      ESP Fit Center  280 is at   5.956633  0.365085 -0.000237
      ESP Fit Center  281 is at   5.577445  0.977495 -0.000237
      ESP Fit Center  282 is at   5.002634  1.411571 -0.000237
      ESP Fit Center  283 is at   5.002634 -2.097469 -0.000237
      ESP Fit Center  284 is at   5.577445 -1.663392 -0.000237
      ESP Fit Center  285 is at   5.956633 -1.050982 -0.000237
      ESP Fit Center  286 is at   5.939791 -0.342949 -0.750297
      ESP Fit Center  287 is at   5.783239  0.393572 -0.750297
      ESP Fit Center  288 is at   5.340651  1.002741 -0.750297
      ESP Fit Center  289 is at   4.688556  1.379228 -0.750297
      ESP Fit Center  290 is at   4.688556 -2.065125 -0.750297
      ESP Fit Center  291 is at   5.340651 -1.688638 -0.750297
      ESP Fit Center  292 is at   5.783239 -1.079469 -0.750297
      ESP Fit Center  293 is at   5.514916 -0.342949 -1.386166
      ESP Fit Center  294 is at   5.329237  0.350016 -1.386166
      ESP Fit Center  295 is at   4.821952  0.857301 -1.386166
      ESP Fit Center  296 is at   4.128987  1.042981 -1.386166
      ESP Fit Center  297 is at   3.436022  0.857301 -1.386166
      ESP Fit Center  298 is at   4.821952 -1.543199 -1.386166
      ESP Fit Center  299 is at   5.329237 -1.035913 -1.386166
      ESP Fit Center  300 is at   4.879047 -0.342949 -1.811041
      ESP Fit Center  301 is at   4.504017  0.306622 -1.811041
      ESP Fit Center  302 is at   3.753957  0.306622 -1.811041
      ESP Fit Center  303 is at   4.504017 -0.992519 -1.811041
      ESP Fit Center  304 is at   4.128987 -0.342949 -1.960237
      ESP Fit Center  305 is at   2.666891 -1.984979  1.960044
      ESP Fit Center  306 is at   3.416951 -1.984979  1.810848
      ESP Fit Center  307 is at   1.916832 -1.984979  1.810848
      ESP Fit Center  308 is at   2.291861 -2.634549  1.810848
      ESP Fit Center  309 is at   3.041921 -2.634549  1.810848
      ESP Fit Center  310 is at   4.052821 -1.984979  1.385973
      ESP Fit Center  311 is at   1.280962 -1.984979  1.385973
      ESP Fit Center  312 is at   1.466641 -2.677943  1.385973
      ESP Fit Center  313 is at   1.973927 -3.185229  1.385973
      ESP Fit Center  314 is at   2.666891 -3.370908  1.385973
      ESP Fit Center  315 is at   3.359856 -3.185229  1.385973
      ESP Fit Center  316 is at   3.867141 -2.677943  1.385973
      ESP Fit Center  317 is at   0.895658 -2.361466  0.750103
      ESP Fit Center  318 is at   1.201920 -3.049343  0.750103
      ESP Fit Center  319 is at   1.761489 -3.553181  0.750103
      ESP Fit Center  320 is at   2.477611 -3.785863  0.750103
      ESP Fit Center  321 is at   3.226460 -3.707156  0.750103
      ESP Fit Center  322 is at   3.878556 -3.330668  0.750103
      ESP Fit Center  323 is at   4.321143 -2.721499  0.750103
      ESP Fit Center  324 is at   0.740264 -2.345128  0.000044
      ESP Fit Center  325 is at   1.000466 -3.016786  0.000044
      ESP Fit Center  326 is at   1.485727 -3.549093  0.000044
      ESP Fit Center  327 is at   2.130512 -3.870157  0.000044
      ESP Fit Center  328 is at   2.847737 -3.936618  0.000044
      ESP Fit Center  329 is at   3.540538 -3.739499  0.000044
      ESP Fit Center  330 is at   4.115349 -3.305422  0.000044
      ESP Fit Center  331 is at   4.494537 -2.693012  0.000044
      ESP Fit Center  332 is at   0.895658 -2.361466 -0.750016
      ESP Fit Center  333 is at   1.201920 -3.049343 -0.750016
      ESP Fit Center  334 is at   1.761489 -3.553181 -0.750016
      ESP Fit Center  335 is at   2.477611 -3.785863 -0.750016
      ESP Fit Center  336 is at   3.226460 -3.707156 -0.750016
      ESP Fit Center  337 is at   3.878556 -3.330668 -0.750016
      ESP Fit Center  338 is at   4.321143 -2.721499 -0.750016
      ESP Fit Center  339 is at   4.052821 -1.984979 -1.385885
      ESP Fit Center  340 is at   1.280962 -1.984979 -1.385885
      ESP Fit Center  341 is at   1.466641 -2.677943 -1.385885
      ESP Fit Center  342 is at   1.973927 -3.185229 -1.385885
      ESP Fit Center  343 is at   2.666891 -3.370908 -1.385885
      ESP Fit Center  344 is at   3.359856 -3.185229 -1.385885
      ESP Fit Center  345 is at   3.867141 -2.677943 -1.385885
      ESP Fit Center  346 is at   3.416951 -1.984979 -1.810760
      ESP Fit Center  347 is at   1.916832 -1.984979 -1.810760
      ESP Fit Center  348 is at   2.291861 -2.634549 -1.810760
      ESP Fit Center  349 is at   3.041921 -2.634549 -1.810760
      ESP Fit Center  350 is at   2.666891 -1.984979 -1.959956
      ESP Fit Center  351 is at   0.617210  3.612640  1.513462
      ESP Fit Center  352 is at  -0.111715  3.612640  1.513462
      ESP Fit Center  353 is at  -0.476177  2.981373  1.513462
      ESP Fit Center  354 is at   1.315373  3.753415  1.047297
      ESP Fit Center  355 is at   0.658634  4.230564  1.047297
      ESP Fit Center  356 is at  -0.153139  4.230564  1.047297
      ESP Fit Center  357 is at  -0.809877  3.753415  1.047297
      ESP Fit Center  358 is at  -1.060729  2.981373  1.047297
      ESP Fit Center  359 is at   1.703017  3.742533  0.373669
      ESP Fit Center  360 is at   1.183169  4.329321  0.373669
      ESP Fit Center  361 is at   0.450172  4.607310  0.373669
      ESP Fit Center  362 is at  -0.328052  4.512816  0.373669
      ESP Fit Center  363 is at  -0.973222  4.067488  0.373669
      ESP Fit Center  364 is at  -1.337537  3.373343  0.373669
      ESP Fit Center  365 is at   1.703017  3.742533 -0.374001
      ESP Fit Center  366 is at   1.183169  4.329321 -0.374001
      ESP Fit Center  367 is at   0.450172  4.607310 -0.374001
      ESP Fit Center  368 is at  -0.328052  4.512816 -0.374001
      ESP Fit Center  369 is at  -0.973222  4.067488 -0.374001
      ESP Fit Center  370 is at  -1.337537  3.373343 -0.374001
      ESP Fit Center  371 is at   1.315373  3.753415 -1.047629
      ESP Fit Center  372 is at   0.658634  4.230564 -1.047629
      ESP Fit Center  373 is at  -0.153139  4.230564 -1.047629
      ESP Fit Center  374 is at  -0.809877  3.753415 -1.047629
      ESP Fit Center  375 is at  -1.060729  2.981373 -1.047629
      ESP Fit Center  376 is at   0.617210  3.612640 -1.513794
      ESP Fit Center  377 is at  -0.111715  3.612640 -1.513794
      ESP Fit Center  378 is at  -0.476177  2.981373 -1.513794
      ESP Fit Center  379 is at   3.614701  2.141546  1.513175
      ESP Fit Center  380 is at   3.250238  2.772814  1.513175
      ESP Fit Center  381 is at   4.199253  2.141546  1.047010
      ESP Fit Center  382 is at   3.948401  2.913589  1.047010
      ESP Fit Center  383 is at   3.291663  3.390737  1.047010
      ESP Fit Center  384 is at   2.479889  3.390737  1.047010
      ESP Fit Center  385 is at   3.948401  1.369504  1.047010
      ESP Fit Center  386 is at   4.523655  2.141546  0.373382
      ESP Fit Center  387 is at   4.336046  2.902707  0.373382
      ESP Fit Center  388 is at   3.816197  3.489494  0.373382
      ESP Fit Center  389 is at   3.083200  3.767483  0.373382
      ESP Fit Center  390 is at   2.304976  3.672990  0.373382
      ESP Fit Center  391 is at   4.523655  2.141546 -0.374288
      ESP Fit Center  392 is at   4.336046  2.902707 -0.374288
      ESP Fit Center  393 is at   3.816197  3.489494 -0.374288
      ESP Fit Center  394 is at   3.083200  3.767483 -0.374288
      ESP Fit Center  395 is at   2.304976  3.672990 -0.374288
      ESP Fit Center  396 is at   4.199253  2.141546 -1.047916
      ESP Fit Center  397 is at   3.948401  2.913589 -1.047916
      ESP Fit Center  398 is at   3.291663  3.390737 -1.047916
      ESP Fit Center  399 is at   2.479889  3.390737 -1.047916
      ESP Fit Center  400 is at   3.948401  1.369504 -1.047916
      ESP Fit Center  401 is at   3.614701  2.141546 -1.514081
      ESP Fit Center  402 is at   3.250238  2.772814 -1.514081
      ESP Fit Center  403 is at  -2.293276 -2.844900 -0.504820
      ESP Fit Center  404 is at  -1.515051 -2.939393 -0.504820
      ESP Fit Center  405 is at  -0.782055 -2.661404 -0.504820
      ESP Fit Center  406 is at  -0.262206 -2.074617 -0.504820
      ESP Fit Center  407 is at  -2.293276 -2.844900 -1.252490
      ESP Fit Center  408 is at  -1.515051 -2.939393 -1.252490
      ESP Fit Center  409 is at  -0.782055 -2.661404 -1.252490
      ESP Fit Center  410 is at  -0.262206 -2.074617 -1.252490
      ESP Fit Center  411 is at  -0.398999 -1.313456 -1.926118
      ESP Fit Center  412 is at  -0.649851 -0.541414 -1.926118
      ESP Fit Center  413 is at  -2.775101 -2.085499 -1.926118
      ESP Fit Center  414 is at  -2.118362 -2.562647 -1.926118
      ESP Fit Center  415 is at  -1.306589 -2.562647 -1.926118
      ESP Fit Center  416 is at  -0.649851 -2.085499 -1.926118
      ESP Fit Center  417 is at  -0.983551 -1.313456 -2.392283
      ESP Fit Center  418 is at  -1.348013 -0.682189 -2.392283
      ESP Fit Center  419 is at  -2.076938 -0.682189 -2.392283
      ESP Fit Center  420 is at  -2.441400 -1.313456 -2.392283
      ESP Fit Center  421 is at  -2.076938 -1.944724 -2.392283
      ESP Fit Center  422 is at  -1.348013 -1.944724 -2.392283
      ESP Fit Center  423 is at  -1.712476 -1.313456 -2.558655
      ESP Fit Center  424 is at  -1.715031 -1.310850  2.564235
      ESP Fit Center  425 is at  -0.986106 -1.310850  2.397863
      ESP Fit Center  426 is at  -1.350568 -0.679583  2.397863
      ESP Fit Center  427 is at  -2.079493 -0.679583  2.397863
      ESP Fit Center  428 is at  -2.443955 -1.310850  2.397863
      ESP Fit Center  429 is at  -2.079493 -1.942118  2.397863
      ESP Fit Center  430 is at  -1.350568 -1.942118  2.397863
      ESP Fit Center  431 is at  -0.401554 -1.310850  1.931698
      ESP Fit Center  432 is at  -0.652406 -0.538808  1.931698
      ESP Fit Center  433 is at  -2.777656 -2.082893  1.931698
      ESP Fit Center  434 is at  -2.120917 -2.560041  1.931698
      ESP Fit Center  435 is at  -1.309144 -2.560041  1.931698
      ESP Fit Center  436 is at  -0.652406 -2.082893  1.931698
      ESP Fit Center  437 is at  -2.295831 -2.842294  1.258070
      ESP Fit Center  438 is at  -1.517606 -2.936787  1.258070
      ESP Fit Center  439 is at  -0.784610 -2.658798  1.258070
      ESP Fit Center  440 is at  -0.264761 -2.072011  1.258070
      ESP Fit Center  441 is at  -2.295831 -2.842294  0.510400
      ESP Fit Center  442 is at  -1.517606 -2.936787  0.510400
      ESP Fit Center  443 is at  -0.784610 -2.658798  0.510400
      ESP Fit Center  444 is at  -0.264761 -2.072011  0.510400
      ESP Fit Center  445 is at   0.633824  1.970528  2.368205
      ESP Fit Center  446 is at   1.365677  1.970528  2.252291
      ESP Fit Center  447 is at   0.999751  2.604332  2.252291
      ESP Fit Center  448 is at   0.267897  2.604332  2.252291
      ESP Fit Center  449 is at  -0.098030  1.970528  2.252291
      ESP Fit Center  450 is at   0.999751  1.336724  2.252291
      ESP Fit Center  451 is at   1.212110  3.236798  1.915895
      ESP Fit Center  452 is at   0.435712  3.348427  1.915895
      ESP Fit Center  453 is at  -0.277787  3.022583  1.915895
      ESP Fit Center  454 is at  -0.701856  2.362719  1.915895
      ESP Fit Center  455 is at   1.367052  3.740698  1.391945
      ESP Fit Center  456 is at   1.865777  3.856173  0.731731
      ESP Fit Center  457 is at   1.865777  3.856173 -0.731977
      ESP Fit Center  458 is at   1.367052  3.740698 -1.392191
      ESP Fit Center  459 is at   1.212110  3.236798 -1.916141
      ESP Fit Center  460 is at   0.435712  3.348427 -1.916141
      ESP Fit Center  461 is at  -0.277787  3.022583 -1.916141
      ESP Fit Center  462 is at  -0.701856  2.362719 -1.916141
      ESP Fit Center  463 is at   1.365677  1.970528 -2.252537
      ESP Fit Center  464 is at   0.999751  2.604332 -2.252537
      ESP Fit Center  465 is at   0.267897  2.604332 -2.252537
      ESP Fit Center  466 is at  -0.098030  1.970528 -2.252537
      ESP Fit Center  467 is at   0.999751  1.336724 -2.252537
      ESP Fit Center  468 is at   0.633824  1.970528 -2.368451
      ESP Fit Center  469 is at   1.986815  1.544414  2.368069
      ESP Fit Center  470 is at   2.718669  1.544414  2.252155
      ESP Fit Center  471 is at   2.352742  2.178218  2.252155
      ESP Fit Center  472 is at   1.620888  2.178218  2.252155
      ESP Fit Center  473 is at   1.254961  1.544414  2.252155
      ESP Fit Center  474 is at   1.620888  0.910610  2.252155
      ESP Fit Center  475 is at   2.352742  0.910610  2.252155
      ESP Fit Center  476 is at   3.378883  1.544414  1.915759
      ESP Fit Center  477 is at   3.157897  2.297023  1.915759
      ESP Fit Center  478 is at   2.565101  2.810684  1.915759
      ESP Fit Center  479 is at   1.788703  2.922313  1.915759
      ESP Fit Center  480 is at   1.986815  3.460432  1.391809
      ESP Fit Center  481 is at   1.986815  3.460432 -1.392327
      ESP Fit Center  482 is at   3.378883  1.544414 -1.916277
      ESP Fit Center  483 is at   3.157897  2.297023 -1.916277
      ESP Fit Center  484 is at   2.565101  2.810684 -1.916277
      ESP Fit Center  485 is at   1.788703  2.922313 -1.916277
      ESP Fit Center  486 is at   2.718669  1.544414 -2.252673
      ESP Fit Center  487 is at   2.352742  2.178218 -2.252673
      ESP Fit Center  488 is at   1.620888  2.178218 -2.252673
      ESP Fit Center  489 is at   1.254961  1.544414 -2.252673
      ESP Fit Center  490 is at   1.620888  0.910610 -2.252673
      ESP Fit Center  491 is at   2.352742  0.910610 -2.252673
      ESP Fit Center  492 is at   1.986815  1.544414 -2.368587
      ESP Fit Center  493 is at   1.930133  0.176375  2.368251
      ESP Fit Center  494 is at   2.661987  0.176375  2.252337
      ESP Fit Center  495 is at   2.296060  0.810179  2.252337
      ESP Fit Center  496 is at   1.564206  0.810179  2.252337
      ESP Fit Center  497 is at   1.198279  0.176375  2.252337
      ESP Fit Center  498 is at   1.564206 -0.457429  2.252337
      ESP Fit Center  499 is at   2.296060 -0.457429  2.252337
      ESP Fit Center  500 is at   2.661987  0.176375 -2.252491
      ESP Fit Center  501 is at   2.296060  0.810179 -2.252491
      ESP Fit Center  502 is at   1.564206  0.810179 -2.252491
      ESP Fit Center  503 is at   1.198279  0.176375 -2.252491
      ESP Fit Center  504 is at   1.564206 -0.457429 -2.252491
      ESP Fit Center  505 is at   2.296060 -0.457429 -2.252491
      ESP Fit Center  506 is at   1.930133  0.176375 -2.368405
      ESP Fit Center  507 is at   0.662705 -0.280711  2.210544
      ESP Fit Center  508 is at   0.284698 -0.935439  2.077239
      ESP Fit Center  509 is at   1.040713 -0.935439  2.077239
      ESP Fit Center  510 is at   0.662705 -1.701554  1.693400
      ESP Fit Center  511 is at   0.662705 -2.195008  1.105325
      ESP Fit Center  512 is at   0.284698 -2.424498  0.383944
      ESP Fit Center  513 is at   0.284698 -2.424498 -0.383734
      ESP Fit Center  514 is at   0.662705 -2.195008 -1.105115
      ESP Fit Center  515 is at   0.662705 -1.701554 -1.693190
      ESP Fit Center  516 is at   0.284698 -0.935439 -2.077029
      ESP Fit Center  517 is at   1.040713 -0.935439 -2.077029
      ESP Fit Center  518 is at   0.662705 -0.280711 -2.210335
      ESP Fit Center  519 is at  -0.136934  0.831352  2.368368
      ESP Fit Center  520 is at   0.594920  0.831352  2.252454
      ESP Fit Center  521 is at  -0.502861  1.465156  2.252454
      ESP Fit Center  522 is at  -0.868788  0.831352  2.252454
      ESP Fit Center  523 is at  -0.502861  0.197548  2.252454
      ESP Fit Center  524 is at   0.228993  0.197548  2.252454
      ESP Fit Center  525 is at   0.594920  0.831352 -2.252374
      ESP Fit Center  526 is at  -0.502861  1.465156 -2.252374
      ESP Fit Center  527 is at  -0.868788  0.831352 -2.252374
      ESP Fit Center  528 is at  -0.502861  0.197548 -2.252374
      ESP Fit Center  529 is at   0.228993  0.197548 -2.252374
      ESP Fit Center  530 is at  -0.136934  0.831352 -2.368288
      ESP Fit Center  531 is at  -1.603353  0.656280  2.368599
      ESP Fit Center  532 is at  -0.871499  0.656280  2.252685
      ESP Fit Center  533 is at  -1.237426  1.290084  2.252685
      ESP Fit Center  534 is at  -1.969280  1.290084  2.252685
      ESP Fit Center  535 is at  -2.335207  0.656280  2.252685
      ESP Fit Center  536 is at  -1.969280  0.022476  2.252685
      ESP Fit Center  537 is at  -1.237426  0.022476  2.252685
      ESP Fit Center  538 is at  -1.025067  1.922550  1.916289
      ESP Fit Center  539 is at  -1.025067  1.922550 -1.915747
      ESP Fit Center  540 is at  -0.871499  0.656280 -2.252143
      ESP Fit Center  541 is at  -1.237426  1.290084 -2.252143
      ESP Fit Center  542 is at  -1.969280  1.290084 -2.252143
      ESP Fit Center  543 is at  -2.335207  0.656280 -2.252143
      ESP Fit Center  544 is at  -1.969280  0.022476 -2.252143
      ESP Fit Center  545 is at  -1.237426  0.022476 -2.252143
      ESP Fit Center  546 is at  -1.603353  0.656280 -2.368057
      ESP Fit Center  547 is at  -2.324965  1.632719  2.210707
      ESP Fit Center  548 is at  -1.946958  2.287447  2.077402
      ESP Fit Center  549 is at  -2.702973  2.287447  2.077402
      ESP Fit Center  550 is at  -3.080980  1.632719  2.077402
      ESP Fit Center  551 is at  -2.702973  0.977991  2.077402
      ESP Fit Center  552 is at  -1.094479  2.343140  1.693563
      ESP Fit Center  553 is at  -1.614544  2.863205  1.693563
      ESP Fit Center  554 is at  -2.324965  3.053562  1.693563
      ESP Fit Center  555 is at  -3.035387  2.863205  1.693563
      ESP Fit Center  556 is at  -3.555451  2.343140  1.693563
      ESP Fit Center  557 is at  -3.745808  1.632719  1.693563
      ESP Fit Center  558 is at  -1.592395  3.401298  1.105488
      ESP Fit Center  559 is at  -2.324965  3.547016  1.105488
      ESP Fit Center  560 is at  -3.057535  3.401298  1.105488
      ESP Fit Center  561 is at  -3.678577  2.986331  1.105488
      ESP Fit Center  562 is at  -4.093545  2.365288  1.105488
      ESP Fit Center  563 is at  -4.239262  1.632719  1.105488
      ESP Fit Center  564 is at  -1.946958  3.776505  0.384107
      ESP Fit Center  565 is at  -2.702973  3.776505  0.384107
      ESP Fit Center  566 is at  -3.413394  3.517933  0.384107
      ESP Fit Center  567 is at  -3.992535  3.031976  0.384107
      ESP Fit Center  568 is at  -4.370543  2.377248  0.384107
      ESP Fit Center  569 is at  -1.946958  3.776505 -0.383571
      ESP Fit Center  570 is at  -2.702973  3.776505 -0.383571
      ESP Fit Center  571 is at  -3.413394  3.517933 -0.383571
      ESP Fit Center  572 is at  -3.992535  3.031976 -0.383571
      ESP Fit Center  573 is at  -4.370543  2.377248 -0.383571
      ESP Fit Center  574 is at  -1.592395  3.401298 -1.104952
      ESP Fit Center  575 is at  -2.324965  3.547016 -1.104952
      ESP Fit Center  576 is at  -3.057535  3.401298 -1.104952
      ESP Fit Center  577 is at  -3.678577  2.986331 -1.104952
      ESP Fit Center  578 is at  -4.093545  2.365288 -1.104952
      ESP Fit Center  579 is at  -4.239262  1.632719 -1.104952
      ESP Fit Center  580 is at  -1.094479  2.343140 -1.693027
      ESP Fit Center  581 is at  -1.614544  2.863205 -1.693027
      ESP Fit Center  582 is at  -2.324965  3.053562 -1.693027
      ESP Fit Center  583 is at  -3.035387  2.863205 -1.693027
      ESP Fit Center  584 is at  -3.555451  2.343140 -1.693027
      ESP Fit Center  585 is at  -3.745808  1.632719 -1.693027
      ESP Fit Center  586 is at  -1.946958  2.287447 -2.076866
      ESP Fit Center  587 is at  -2.702973  2.287447 -2.076866
      ESP Fit Center  588 is at  -3.080980  1.632719 -2.076866
      ESP Fit Center  589 is at  -2.702973  0.977991 -2.076866
      ESP Fit Center  590 is at  -2.324965  1.632719 -2.210172
      ESP Fit Center  591 is at  -2.463181 -0.155906  2.253860
      ESP Fit Center  592 is at  -2.097254 -3.158038  0.001446
      ESP Fit Center  593 is at  -1.365400 -3.042124  0.001446
      ESP Fit Center  594 is at  -0.705186 -2.705728  0.001446
      ESP Fit Center  595 is at  -2.463181 -0.155906 -2.250968
      ESP Fit Center  596 is at  -3.879039 -0.908156  2.683316
      ESP Fit Center  597 is at  -3.122839 -0.908156  2.574591
      ESP Fit Center  598 is at  -3.500939 -0.253268  2.574591
      ESP Fit Center  599 is at  -4.257139 -0.253268  2.574591
      ESP Fit Center  600 is at  -4.635239 -0.908156  2.574591
      ESP Fit Center  601 is at  -4.257139 -1.563045  2.574591
      ESP Fit Center  602 is at  -3.500939 -1.563045  2.574591
      ESP Fit Center  603 is at  -2.622317 -0.182588  2.257224
      ESP Fit Center  604 is at  -3.153470  0.348565  2.257224
      ESP Fit Center  605 is at  -3.879039  0.542980  2.257224
      ESP Fit Center  606 is at  -4.604607  0.348565  2.257224
      ESP Fit Center  607 is at  -5.135760 -0.182588  2.257224
      ESP Fit Center  608 is at  -5.330176 -0.908156  2.257224
      ESP Fit Center  609 is at  -5.135760 -1.633725  2.257224
      ESP Fit Center  610 is at  -4.604607 -2.164878  2.257224
      ESP Fit Center  611 is at  -3.879039 -2.359293  2.257224
      ESP Fit Center  612 is at  -3.153470 -2.164878  2.257224
      ESP Fit Center  613 is at  -3.691871  1.111702  1.756926
      ESP Fit Center  614 is at  -4.434167  1.042918  1.756926
      ESP Fit Center  615 is at  -5.101490  0.710631  1.756926
      ESP Fit Center  616 is at  -5.603714  0.159717  1.756926
      ESP Fit Center  617 is at  -5.873011 -0.535418  1.756926
      ESP Fit Center  618 is at  -5.873011 -1.280894  1.756926
      ESP Fit Center  619 is at  -5.603714 -1.976030  1.756926
      ESP Fit Center  620 is at  -5.101490 -2.526943  1.756926
      ESP Fit Center  621 is at  -4.434167 -2.859231  1.756926
      ESP Fit Center  622 is at  -3.691871 -2.928015  1.756926
      ESP Fit Center  623 is at  -2.974854 -2.724005  1.756926
      ESP Fit Center  624 is at  -4.633519  1.413894  1.114228
      ESP Fit Center  625 is at  -5.314145  1.067097  1.114228
      ESP Fit Center  626 is at  -5.854293  0.526949  1.114228
      ESP Fit Center  627 is at  -6.201089 -0.153677  1.114228
      ESP Fit Center  628 is at  -6.320587 -0.908156  1.114228
      ESP Fit Center  629 is at  -6.201089 -1.662636  1.114228
      ESP Fit Center  630 is at  -5.854293 -2.343262  1.114228
      ESP Fit Center  631 is at  -5.314145 -2.883410  1.114228
      ESP Fit Center  632 is at  -4.633519 -3.230207  1.114228
      ESP Fit Center  633 is at  -3.879039 -3.349704  1.114228
      ESP Fit Center  634 is at  -3.124559 -3.230207  1.114228
      ESP Fit Center  635 is at  -4.982707  1.508540  0.381199
      ESP Fit Center  636 is at  -5.618863  1.099708  0.381199
      ESP Fit Center  637 is at  -6.114069  0.528210  0.381199
      ESP Fit Center  638 is at  -6.428205 -0.159654  0.381199
      ESP Fit Center  639 is at  -6.535824 -0.908156  0.381199
      ESP Fit Center  640 is at  -6.428205 -1.656659  0.381199
      ESP Fit Center  641 is at  -6.114069 -2.344523  0.381199
      ESP Fit Center  642 is at  -5.618863 -2.916021  0.381199
      ESP Fit Center  643 is at  -4.982707 -3.324853  0.381199
      ESP Fit Center  644 is at  -4.257139 -3.537899  0.381199
      ESP Fit Center  645 is at  -3.500939 -3.537899  0.381199
      ESP Fit Center  646 is at  -2.775371 -3.324853  0.381199
      ESP Fit Center  647 is at  -4.982707  1.508540 -0.382777
      ESP Fit Center  648 is at  -5.618863  1.099708 -0.382777
      ESP Fit Center  649 is at  -6.114069  0.528210 -0.382777
      ESP Fit Center  650 is at  -6.428205 -0.159654 -0.382777
      ESP Fit Center  651 is at  -6.535824 -0.908156 -0.382777
      ESP Fit Center  652 is at  -6.428205 -1.656659 -0.382777
      ESP Fit Center  653 is at  -6.114069 -2.344523 -0.382777
      ESP Fit Center  654 is at  -5.618863 -2.916021 -0.382777
      ESP Fit Center  655 is at  -4.982707 -3.324853 -0.382777
      ESP Fit Center  656 is at  -4.257139 -3.537899 -0.382777
      ESP Fit Center  657 is at  -3.500939 -3.537899 -0.382777
      ESP Fit Center  658 is at  -2.775371 -3.324853 -0.382777
      ESP Fit Center  659 is at  -4.633519  1.413894 -1.115807
      ESP Fit Center  660 is at  -5.314145  1.067097 -1.115807
      ESP Fit Center  661 is at  -5.854293  0.526949 -1.115807
      ESP Fit Center  662 is at  -6.201089 -0.153677 -1.115807
      ESP Fit Center  663 is at  -6.320587 -0.908156 -1.115807
      ESP Fit Center  664 is at  -6.201089 -1.662636 -1.115807
      ESP Fit Center  665 is at  -5.854293 -2.343262 -1.115807
      ESP Fit Center  666 is at  -5.314145 -2.883410 -1.115807
      ESP Fit Center  667 is at  -4.633519 -3.230207 -1.115807
      ESP Fit Center  668 is at  -3.879039 -3.349704 -1.115807
      ESP Fit Center  669 is at  -3.124559 -3.230207 -1.115807
      ESP Fit Center  670 is at  -3.691871  1.111702 -1.758504
      ESP Fit Center  671 is at  -4.434167  1.042918 -1.758504
      ESP Fit Center  672 is at  -5.101490  0.710631 -1.758504
      ESP Fit Center  673 is at  -5.603714  0.159717 -1.758504
      ESP Fit Center  674 is at  -5.873011 -0.535418 -1.758504
      ESP Fit Center  675 is at  -5.873011 -1.280894 -1.758504
      ESP Fit Center  676 is at  -5.603714 -1.976030 -1.758504
      ESP Fit Center  677 is at  -5.101490 -2.526943 -1.758504
      ESP Fit Center  678 is at  -4.434167 -2.859231 -1.758504
      ESP Fit Center  679 is at  -3.691871 -2.928015 -1.758504
      ESP Fit Center  680 is at  -2.974854 -2.724005 -1.758504
      ESP Fit Center  681 is at  -2.622317 -0.182588 -2.258802
      ESP Fit Center  682 is at  -3.153470  0.348565 -2.258802
      ESP Fit Center  683 is at  -3.879039  0.542980 -2.258802
      ESP Fit Center  684 is at  -4.604607  0.348565 -2.258802
      ESP Fit Center  685 is at  -5.135760 -0.182588 -2.258802
      ESP Fit Center  686 is at  -5.330176 -0.908156 -2.258802
      ESP Fit Center  687 is at  -5.135760 -1.633725 -2.258802
      ESP Fit Center  688 is at  -4.604607 -2.164878 -2.258802
      ESP Fit Center  689 is at  -3.879039 -2.359293 -2.258802
      ESP Fit Center  690 is at  -3.153470 -2.164878 -2.258802
      ESP Fit Center  691 is at  -3.122839 -0.908156 -2.576169
      ESP Fit Center  692 is at  -3.500939 -0.253268 -2.576169
      ESP Fit Center  693 is at  -4.257139 -0.253268 -2.576169
      ESP Fit Center  694 is at  -4.635239 -0.908156 -2.576169
      ESP Fit Center  695 is at  -4.257139 -1.563045 -2.576169
      ESP Fit Center  696 is at  -3.500939 -1.563045 -2.576169
      ESP Fit Center  697 is at  -3.879039 -0.908156 -2.684894
      ESP Fit Center  698 is at   2.983473 -0.798290  2.368219
      ESP Fit Center  699 is at   3.715327 -0.798290  2.252305
      ESP Fit Center  700 is at   3.349400 -0.164486  2.252305
      ESP Fit Center  701 is at   2.617546 -0.164486  2.252305
      ESP Fit Center  702 is at   2.251619 -0.798290  2.252305
      ESP Fit Center  703 is at   2.617546 -1.432094  2.252305
      ESP Fit Center  704 is at   3.349400 -1.432094  2.252305
      ESP Fit Center  705 is at   1.647793 -1.190481  1.915909
      ESP Fit Center  706 is at   4.154556 -1.550899  1.915909
      ESP Fit Center  707 is at   1.647793 -1.190481 -1.916127
      ESP Fit Center  708 is at   4.154556 -1.550899 -1.916127
      ESP Fit Center  709 is at   3.715327 -0.798290 -2.252523
      ESP Fit Center  710 is at   3.349400 -0.164486 -2.252523
      ESP Fit Center  711 is at   2.617546 -0.164486 -2.252523
      ESP Fit Center  712 is at   2.251619 -0.798290 -2.252523
      ESP Fit Center  713 is at   2.617546 -1.432094 -2.252523
      ESP Fit Center  714 is at   3.349400 -1.432094 -2.252523
      ESP Fit Center  715 is at   2.983473 -0.798290 -2.368437
      ESP Fit Center  716 is at   4.128987 -0.342949  2.210202
      ESP Fit Center  717 is at   4.885002 -0.342949  2.076897
      ESP Fit Center  718 is at   4.506995  0.311779  2.076897
      ESP Fit Center  719 is at   3.750980  0.311779  2.076897
      ESP Fit Center  720 is at   4.506995 -0.997677  2.076897
      ESP Fit Center  721 is at   5.549830 -0.342949  1.693058
      ESP Fit Center  722 is at   5.359473  0.367473  1.693058
      ESP Fit Center  723 is at   4.839409  0.887538  1.693058
      ESP Fit Center  724 is at   4.128987  1.077895  1.693058
      ESP Fit Center  725 is at   4.839409 -1.573435  1.693058
      ESP Fit Center  726 is at   5.359473 -1.053370  1.693058
      ESP Fit Center  727 is at   6.043284 -0.342949  1.104983
      ESP Fit Center  728 is at   5.897567  0.389621  1.104983
      ESP Fit Center  729 is at   5.482599  1.010664  1.104983
      ESP Fit Center  730 is at   4.861557  1.425631  1.104983
      ESP Fit Center  731 is at   4.861557 -2.111528  1.104983
      ESP Fit Center  732 is at   5.482599 -1.696561  1.104983
      ESP Fit Center  733 is at   5.897567 -1.075518  1.104983
      ESP Fit Center  734 is at   6.305845 -0.342949  0.383602
      ESP Fit Center  735 is at   6.174565  0.401581  0.383602
      ESP Fit Center  736 is at   5.796557  1.056309  0.383602
      ESP Fit Center  737 is at   5.217416  1.542266  0.383602
      ESP Fit Center  738 is at   5.217416 -2.228163  0.383602
      ESP Fit Center  739 is at   5.796557 -1.742206  0.383602
      ESP Fit Center  740 is at   6.174565 -1.087478  0.383602
      ESP Fit Center  741 is at   6.305845 -0.342949 -0.384076
      ESP Fit Center  742 is at   6.174565  0.401581 -0.384076
      ESP Fit Center  743 is at   5.796557  1.056309 -0.384076
      ESP Fit Center  744 is at   5.217416  1.542266 -0.384076
      ESP Fit Center  745 is at   5.217416 -2.228163 -0.384076
      ESP Fit Center  746 is at   5.796557 -1.742206 -0.384076
      ESP Fit Center  747 is at   6.174565 -1.087478 -0.384076
      ESP Fit Center  748 is at   6.043284 -0.342949 -1.105457
      ESP Fit Center  749 is at   5.897567  0.389621 -1.105457
      ESP Fit Center  750 is at   5.482599  1.010664 -1.105457
      ESP Fit Center  751 is at   4.861557  1.425631 -1.105457
      ESP Fit Center  752 is at   4.861557 -2.111528 -1.105457
      ESP Fit Center  753 is at   5.482599 -1.696561 -1.105457
      ESP Fit Center  754 is at   5.897567 -1.075518 -1.105457
      ESP Fit Center  755 is at   5.549830 -0.342949 -1.693532
      ESP Fit Center  756 is at   5.359473  0.367473 -1.693532
      ESP Fit Center  757 is at   4.839409  0.887538 -1.693532
      ESP Fit Center  758 is at   4.128987  1.077895 -1.693532
      ESP Fit Center  759 is at   4.839409 -1.573435 -1.693532
      ESP Fit Center  760 is at   5.359473 -1.053370 -1.693532
      ESP Fit Center  761 is at   4.885002 -0.342949 -2.077371
      ESP Fit Center  762 is at   4.506995  0.311779 -2.077371
      ESP Fit Center  763 is at   3.750980  0.311779 -2.077371
      ESP Fit Center  764 is at   4.506995 -0.997677 -2.077371
      ESP Fit Center  765 is at   4.128987 -0.342949 -2.210677
      ESP Fit Center  766 is at   2.666891 -1.984979  2.210483
      ESP Fit Center  767 is at   3.422906 -1.984979  2.077178
      ESP Fit Center  768 is at   1.910876 -1.984979  2.077178
      ESP Fit Center  769 is at   2.288884 -2.639707  2.077178
      ESP Fit Center  770 is at   3.044899 -2.639707  2.077178
      ESP Fit Center  771 is at   1.246048 -1.984979  1.693339
      ESP Fit Center  772 is at   1.436405 -2.695400  1.693339
      ESP Fit Center  773 is at   1.956470 -3.215465  1.693339
      ESP Fit Center  774 is at   2.666891 -3.405822  1.693339
      ESP Fit Center  775 is at   3.377313 -3.215465  1.693339
      ESP Fit Center  776 is at   3.897378 -2.695400  1.693339
      ESP Fit Center  777 is at   0.898312 -2.717548  1.105264
      ESP Fit Center  778 is at   1.313279 -3.338591  1.105264
      ESP Fit Center  779 is at   1.934322 -3.753558  1.105264
      ESP Fit Center  780 is at   2.666891 -3.899276  1.105264
      ESP Fit Center  781 is at   3.399461 -3.753558  1.105264
      ESP Fit Center  782 is at   4.020504 -3.338591  1.105264
      ESP Fit Center  783 is at   4.435471 -2.717548  1.105264
      ESP Fit Center  784 is at   0.621314 -2.729508  0.383883
      ESP Fit Center  785 is at   0.999321 -3.384236  0.383883
[...]
 2050 Fit       0.014526
 2051 Fit       0.016239
 2052 Fit       0.017891
 2053 Fit       0.020541
 2054 Fit       0.021757
 2055 Fit       0.017644
 2056 Fit       0.014048
 2057 Fit       0.015258
 2058 Fit       0.017728
 2059 Fit       0.018112
 2060 Fit       0.018131
 2061 Fit       0.020559
 2062 Fit       0.021757
 2063 Fit       0.017651
 2064 Fit       0.014078
 2065 Fit       0.015288
 2066 Fit       0.017754
 2067 Fit       0.021439
 2068 Fit       0.025880
 2069 Fit       0.011563
 2070 Fit       0.014556
 2071 Fit       0.016270
 2072 Fit       0.017926
 2073 Fit       0.011408
 2074 Fit       0.013758
 2075 Fit       0.014444
 2076 Fit       0.014378
 2077 Fit       0.015481
 2078 Fit       0.012393
 2079 Fit       0.012977
 2080 Fit       0.011698
 2081 Fit       0.009322
 2082 Fit       0.012517
 2083 Fit       0.012112
 2084 Fit       0.009006
 2085 Fit       0.015903
 2086 Fit       0.016938
 2087 Fit       0.016377
 2088 Fit       0.014853
 2089 Fit       0.014951
 2090 Fit       0.017457
 2091 Fit       0.018159
 2092 Fit       0.016643
 2093 Fit       0.014256
 2094 Fit       0.012285
 2095 Fit       0.020651
 2096 Fit       0.019098
 2097 Fit       0.016581
 2098 Fit       0.012792
 2099 Fit       0.008832
 2100 Fit       0.023278
 2101 Fit       0.029504
 2102 Fit       0.023279
 2103 Fit       0.020650
 2104 Fit       0.019095
 2105 Fit       0.016578
 2106 Fit       0.012785
 2107 Fit       0.008822
 2108 Fit       0.018156
 2109 Fit       0.016638
 2110 Fit       0.014247
 2111 Fit       0.012272
 2112 Fit       0.016930
 2113 Fit       0.016370
 2114 Fit       0.014842
 2115 Fit       0.014933
 2116 Fit       0.017443
 2117 Fit       0.015890
 2118 Fit       0.016230
 2119 Fit       0.015232
 2120 Fit       0.016510
 2121 Fit       0.016972
 2122 Fit       0.017205
 2123 Fit       0.017402
 2124 Fit       0.015910
 2125 Fit       0.013844
 2126 Fit       0.016101
 2127 Fit       0.017955
 2128 Fit       0.018639
 2129 Fit       0.013635
 2130 Fit       0.011471
 2131 Fit       0.015521
 2132 Fit       0.018739
 2133 Fit       0.020474
 2134 Fit       0.021182
 2135 Fit       0.023597
 2136 Fit       0.024267
 2137 Fit       0.027343
 2138 Fit       0.028979
 2139 Fit       0.028979
 2140 Fit       0.027344
 2141 Fit       0.023599
 2142 Fit       0.024267
 2143 Fit       0.011470
 2144 Fit       0.015521
 2145 Fit       0.018740
 2146 Fit       0.020474
 2147 Fit       0.021181
 2148 Fit       0.013841
 2149 Fit       0.016100
 2150 Fit       0.017953
 2151 Fit       0.018636
 2152 Fit       0.013629
 2153 Fit       0.015226
 2154 Fit       0.016506
 2155 Fit       0.016965
 2156 Fit       0.017193
 2157 Fit       0.017389
 2158 Fit       0.015901
 2159 Fit       0.016221
 2160 Fit       0.016106
 2161 Fit       0.014422
 2162 Fit       0.016057
 2163 Fit       0.017571
 2164 Fit       0.018029
 2165 Fit       0.015901
 2166 Fit       0.014305
 2167 Fit       0.014673
 2168 Fit       0.014661
 2169 Fit       0.014415
 2170 Fit       0.016050
 2171 Fit       0.017559
 2172 Fit       0.018013
 2173 Fit       0.015889
 2174 Fit       0.014298
 2175 Fit       0.016096
 2176 Fit       0.019126
 2177 Fit       0.018369
 2178 Fit       0.015871
 2179 Fit       0.012197
 2180 Fit       0.012182
 2181 Fit       0.018340
 2182 Fit       0.015858
 2183 Fit       0.019105
 2184 Fit       0.018214
 2185 Fit       0.018544
 2186 Fit       0.015918
 2187 Fit       0.018340
 2188 Fit       0.020888
 2189 Fit       0.019707
 2190 Fit       0.012942
 2191 Fit       0.022322
 2192 Fit       0.012921
 2193 Fit       0.022278
 2194 Fit       0.018524
 2195 Fit       0.015892
 2196 Fit       0.018299
 2197 Fit       0.020843
 2198 Fit       0.019678
 2199 Fit       0.018184
 2200 Fit       0.015277
 2201 Fit       0.019128
 2202 Fit       0.014117
 2203 Fit       0.009038
 2204 Fit       0.009859
 2205 Fit       0.016633
 2206 Fit       0.020820
 2207 Fit       0.007257
 2208 Fit       0.007233
 2209 Fit       0.019088
 2210 Fit       0.014084
 2211 Fit       0.009000
 2212 Fit       0.009804
 2213 Fit       0.016560
 2214 Fit       0.020759
 2215 Fit       0.015228
 2216 Fit       0.003254
 2217 Fit       0.002892
 2218 Fit      -0.002965
 2219 Fit      -0.003453
 2220 Fit       0.003389
 2221 Fit      -0.002862
 2222 Fit      -0.007434
 2223 Fit      -0.009905
 2224 Fit      -0.009972
 2225 Fit       0.004245
 2226 Fit      -0.002674
 2227 Fit      -0.007998
 2228 Fit      -0.011719
 2229 Fit      -0.014199
 2230 Fit      -0.015660
 2231 Fit       0.005121
 2232 Fit      -0.003043
 2233 Fit      -0.008815
 2234 Fit      -0.012856
 2235 Fit      -0.015807
 2236 Fit      -0.018098
 2237 Fit      -0.004726
 2238 Fit      -0.010363
 2239 Fit      -0.014269
 2240 Fit      -0.017211
 2241 Fit      -0.019647
 2242 Fit      -0.021911
 2243 Fit      -0.002640
 2244 Fit      -0.009349
 2245 Fit      -0.013782
 2246 Fit      -0.017021
 2247 Fit      -0.019656
 2248 Fit      -0.022058
 2249 Fit      -0.002641
 2250 Fit      -0.009351
 2251 Fit      -0.013784
 2252 Fit      -0.017023
 2253 Fit      -0.019658
 2254 Fit      -0.022060
 2255 Fit      -0.004729
 2256 Fit      -0.010367
 2257 Fit      -0.014274
 2258 Fit      -0.017217
 2259 Fit      -0.019653
 2260 Fit      -0.021919
 2261 Fit       0.005119
 2262 Fit      -0.003048
 2263 Fit      -0.008822
 2264 Fit      -0.012865
 2265 Fit      -0.015817
 2266 Fit      -0.018110
 2267 Fit       0.004237
 2268 Fit      -0.002684
 2269 Fit      -0.008009
 2270 Fit      -0.011732
 2271 Fit      -0.014215
 2272 Fit      -0.015683
 2273 Fit       0.003374
 2274 Fit      -0.002878
 2275 Fit      -0.007452
 2276 Fit      -0.009928
 2277 Fit      -0.010005
 2278 Fit       0.002869
 2279 Fit      -0.002990
 2280 Fit      -0.003488
 2281 Fit       0.003220
 2282 Fit       0.009730
 2283 Fit       0.008502
 2284 Fit       0.003736
 2285 Fit      -0.000790
 2286 Fit       0.004733
 2287 Fit       0.000845
 2288 Fit      -0.003736
 2289 Fit      -0.004422
 2290 Fit      -0.002296
 2291 Fit       0.002079
 2292 Fit       0.009369
 2293 Fit       0.002291
 2294 Fit      -0.003898
 2295 Fit      -0.006743
 2296 Fit      -0.007158
 2297 Fit      -0.006502
 2298 Fit      -0.005382
 2299 Fit      -0.003525
 2300 Fit      -0.000224
 2301 Fit       0.004788
 2302 Fit       0.010204
 2303 Fit      -0.005070
 2304 Fit      -0.008847
 2305 Fit      -0.009787
 2306 Fit      -0.009329
 2307 Fit      -0.008360
 2308 Fit      -0.007375
 2309 Fit      -0.006547
 2310 Fit      -0.005710
 2311 Fit      -0.004423
 2312 Fit      -0.002136
 2313 Fit       0.001618
 2314 Fit       0.007093
 2315 Fit      -0.013599
 2316 Fit      -0.013509
 2317 Fit      -0.012309
 2318 Fit      -0.010759
 2319 Fit      -0.009218
 2320 Fit      -0.007923
 2321 Fit      -0.007005
 2322 Fit      -0.006436
 2323 Fit      -0.006004
 2324 Fit      -0.005351
 2325 Fit      -0.004050
 2326 Fit      -0.001696
 2327 Fit       0.002045
 2328 Fit       0.007489
 2329 Fit      -0.017435
 2330 Fit      -0.014588
 2331 Fit      -0.012107
 2332 Fit      -0.009965
 2333 Fit      -0.008233
 2334 Fit      -0.007005
 2335 Fit      -0.006302
 2336 Fit      -0.006014
 2337 Fit      -0.005888
 2338 Fit      -0.005567
 2339 Fit      -0.004655
 2340 Fit      -0.002787
 2341 Fit       0.000324
 2342 Fit       0.004922
 2343 Fit      -0.020556
 2344 Fit      -0.016383
 2345 Fit      -0.013215
 2346 Fit      -0.010644
 2347 Fit      -0.008577
 2348 Fit      -0.007049
 2349 Fit      -0.006093
 2350 Fit      -0.005671
 2351 Fit      -0.005634
 2352 Fit      -0.005732
 2353 Fit      -0.005644
 2354 Fit      -0.005031
 2355 Fit      -0.003590
 2356 Fit      -0.001095
 2357 Fit       0.002589
 2358 Fit       0.007548
 2359 Fit      -0.018821
 2360 Fit      -0.014839
 2361 Fit      -0.011777
 2362 Fit      -0.009327
 2363 Fit      -0.007448
 2364 Fit      -0.006171
 2365 Fit      -0.005496
 2366 Fit      -0.005333
 2367 Fit      -0.005488
 2368 Fit      -0.005679
 2369 Fit      -0.005577
 2370 Fit      -0.004860
 2371 Fit      -0.003259
 2372 Fit      -0.000603
 2373 Fit       0.003161
 2374 Fit       0.007943
 2375 Fit      -0.018819
 2376 Fit      -0.014838
 2377 Fit      -0.011775
 2378 Fit      -0.009325
 2379 Fit      -0.007446
 2380 Fit      -0.006169
 2381 Fit      -0.005494
 2382 Fit      -0.005332
 2383 Fit      -0.005487
 2384 Fit      -0.005679
 2385 Fit      -0.005578
 2386 Fit      -0.004862
 2387 Fit      -0.003262
 2388 Fit      -0.000606
 2389 Fit       0.003157
 2390 Fit       0.007942
 2391 Fit      -0.020549
 2392 Fit      -0.016380
 2393 Fit      -0.013211
 2394 Fit      -0.010639
 2395 Fit      -0.008572
 2396 Fit      -0.007043
 2397 Fit      -0.006088
 2398 Fit      -0.005666
 2399 Fit      -0.005631
 2400 Fit      -0.005731
 2401 Fit      -0.005645
 2402 Fit      -0.005035
 2403 Fit      -0.003598
 2404 Fit      -0.001106
 2405 Fit       0.002576
 2406 Fit       0.007536
 2407 Fit      -0.017431
 2408 Fit      -0.014585
 2409 Fit      -0.012103
 2410 Fit      -0.009959
 2411 Fit      -0.008226
 2412 Fit      -0.006998
 2413 Fit      -0.006296
 2414 Fit      -0.006010
 2415 Fit      -0.005888
 2416 Fit      -0.005571
 2417 Fit      -0.004664
 2418 Fit      -0.002803
 2419 Fit       0.000302
 2420 Fit       0.004894
 2421 Fit      -0.013603
 2422 Fit      -0.013512
 2423 Fit      -0.012310
 2424 Fit      -0.010758
 2425 Fit      -0.009214
 2426 Fit      -0.007918
 2427 Fit      -0.007001
 2428 Fit      -0.006435
 2429 Fit      -0.006007
 2430 Fit      -0.005360
 2431 Fit      -0.004067
 2432 Fit      -0.001723
 2433 Fit       0.002007
 2434 Fit       0.007437
 2435 Fit      -0.005098
 2436 Fit      -0.008865
 2437 Fit      -0.009798
 2438 Fit      -0.009336
 2439 Fit      -0.008363
 2440 Fit      -0.007377
 2441 Fit      -0.006552
 2442 Fit      -0.005721
 2443 Fit      -0.004443
 2444 Fit      -0.002168
 2445 Fit       0.001571
 2446 Fit       0.007023
 2447 Fit       0.012445
 2448 Fit       0.009282
 2449 Fit       0.002232
 2450 Fit      -0.003935
 2451 Fit      -0.006766
 2452 Fit      -0.007174
 2453 Fit      -0.006516
 2454 Fit      -0.005401
 2455 Fit      -0.003554
 2456 Fit      -0.000271
 2457 Fit       0.004716
 2458 Fit       0.010103
 2459 Fit       0.004657
 2460 Fit       0.000787
 2461 Fit      -0.003773
 2462 Fit      -0.004452
 2463 Fit      -0.002337
 2464 Fit       0.002016
 2465 Fit      -0.000841
 2466 Fit       0.008779
 2467 Fit       0.004224
 2468 Fit       0.009328
 2469 Fit       0.013752
 2470 Fit       0.012491
 2471 Fit       0.006717
 2472 Fit       0.003190
 2473 Fit       0.008879
 2474 Fit       0.009468
 2475 Fit      -0.002878
 2476 Fit      -0.002879
 2477 Fit      -0.009092
 2478 Fit      -0.009094
 2479 Fit       0.008874
 2480 Fit       0.009462
 2481 Fit      -0.002880
 2482 Fit      -0.002883
 2483 Fit       0.004219
 2484 Fit       0.009322
 2485 Fit       0.013745
 2486 Fit       0.012484
 2487 Fit       0.006712
 2488 Fit       0.003186
 2489 Fit       0.008774
 2490 Fit       0.002327
 2491 Fit      -0.003165
 2492 Fit       0.001400
 2493 Fit      -0.002873
 2494 Fit      -0.007280
 2495 Fit      -0.004021
 2496 Fit       0.001011
 2497 Fit       0.007238
 2498 Fit      -0.007965
 2499 Fit      -0.008673
 2500 Fit      -0.010223
 2501 Fit      -0.007328
 2502 Fit      -0.003222
 2503 Fit       0.002440
 2504 Fit       0.009520
 2505 Fit      -0.012663
 2506 Fit      -0.012880
 2507 Fit      -0.012077
 2508 Fit      -0.012202
 2509 Fit      -0.009451
 2510 Fit      -0.005833
 2511 Fit      -0.000842
 2512 Fit       0.006299
 2513 Fit      -0.016589
 2514 Fit      -0.015698
 2515 Fit      -0.014275
 2516 Fit      -0.013403
 2517 Fit      -0.010735
 2518 Fit      -0.007401
 2519 Fit      -0.002916
 2520 Fit       0.003704
 2521 Fit      -0.020150
 2522 Fit      -0.018655
 2523 Fit      -0.017293
 2524 Fit      -0.015579
 2525 Fit      -0.013967
 2526 Fit      -0.011263
 2527 Fit      -0.007950
 2528 Fit      -0.003516
 2529 Fit       0.003154
 2530 Fit      -0.021480
 2531 Fit      -0.019672
 2532 Fit      -0.018098
 2533 Fit      -0.016234
 2534 Fit      -0.013967
 2535 Fit      -0.011264
 2536 Fit      -0.007951
 2537 Fit      -0.003516
 2538 Fit       0.003155
 2539 Fit      -0.021479
 2540 Fit      -0.019672
 2541 Fit      -0.018098
 2542 Fit      -0.016234
 2543 Fit      -0.013404
 2544 Fit      -0.010735
 2545 Fit      -0.007402
 2546 Fit      -0.002916
 2547 Fit       0.003705
 2548 Fit      -0.020149
 2549 Fit      -0.018655
 2550 Fit      -0.017294
 2551 Fit      -0.015580
 2552 Fit      -0.012203
 2553 Fit      -0.009452
 2554 Fit      -0.005834
 2555 Fit      -0.000842
 2556 Fit       0.006300
 2557 Fit      -0.016589
 2558 Fit      -0.015699
 2559 Fit      -0.014276
 2560 Fit      -0.010225
 2561 Fit      -0.007330
 2562 Fit      -0.003224
 2563 Fit       0.002439
 2564 Fit       0.009519
 2565 Fit      -0.012663
 2566 Fit      -0.012881
 2567 Fit      -0.012079
 2568 Fit      -0.007283
 2569 Fit      -0.004024
 2570 Fit       0.001008
 2571 Fit       0.007234
 2572 Fit      -0.007967
 2573 Fit      -0.008675
 2574 Fit      -0.003169
 2575 Fit       0.001396
 2576 Fit      -0.002877
 2577 Fit       0.002321
 2578 Fit       0.001733
 2579 Fit       0.004102
 2580 Fit      -0.002008
 2581 Fit      -0.004342
 2582 Fit       0.006194
 2583 Fit      -0.000142
 2584 Fit      -0.004918
 2585 Fit      -0.007873
 2586 Fit      -0.009130
 2587 Fit      -0.008550
 2588 Fit       0.005221
 2589 Fit      -0.001043
 2590 Fit      -0.005780
 2591 Fit      -0.009042
 2592 Fit      -0.011264
 2593 Fit      -0.012637
 2594 Fit      -0.013136
 2595 Fit      -0.012766
 2596 Fit       0.001103
 2597 Fit      -0.004554
 2598 Fit      -0.008409
 2599 Fit      -0.011138
 2600 Fit      -0.013215
 2601 Fit      -0.014811
 2602 Fit      -0.015921
 2603 Fit      -0.016610
 2604 Fit      -0.017285
 2605 Fit      -0.000320
 2606 Fit      -0.005693
 2607 Fit      -0.009266
 2608 Fit      -0.011846
 2609 Fit      -0.013923
 2610 Fit      -0.015687
 2611 Fit      -0.017151
 2612 Fit      -0.018325
 2613 Fit      -0.019471
 2614 Fit      -0.002897
 2615 Fit      -0.007490
 2616 Fit      -0.010596
 2617 Fit      -0.012953
 2618 Fit      -0.014952
 2619 Fit      -0.016717
 2620 Fit      -0.018238
 2621 Fit      -0.019557
 2622 Fit      -0.021066
 2623 Fit      -0.002895
 2624 Fit      -0.007490
 2625 Fit      -0.010597
 2626 Fit      -0.012953
 2627 Fit      -0.014952
 2628 Fit      -0.016718
 2629 Fit      -0.018238
 2630 Fit      -0.019558
 2631 Fit      -0.021066
 2632 Fit      -0.000314
 2633 Fit      -0.005693
 2634 Fit      -0.009267
 2635 Fit      -0.011848
 2636 Fit      -0.013925
 2637 Fit      -0.015689
 2638 Fit      -0.017152
 2639 Fit      -0.018326
 2640 Fit      -0.019473
 2641 Fit       0.001104
 2642 Fit      -0.004556
 2643 Fit      -0.008411
 2644 Fit      -0.011140
 2645 Fit      -0.013217
 2646 Fit      -0.014813
 2647 Fit      -0.015923
 2648 Fit      -0.016612
 2649 Fit      -0.017289
 2650 Fit       0.005215
 2651 Fit      -0.001047
 2652 Fit      -0.005783
 2653 Fit      -0.009046
 2654 Fit      -0.011267
 2655 Fit      -0.012639
 2656 Fit      -0.013138
 2657 Fit      -0.012769
 2658 Fit       0.006187
 2659 Fit      -0.000147
 2660 Fit      -0.004922
 2661 Fit      -0.007876
 2662 Fit      -0.009132
 2663 Fit      -0.008553
 2664 Fit       0.004098
 2665 Fit      -0.002011
 2666 Fit      -0.004345
 2667 Fit       0.001730
 2668 Fit       0.017856
 2669 Fit       0.013456
 2670 Fit       0.022748
 2671 Fit       0.019581
 2672 Fit       0.015690
 2673 Fit       0.010307
 2674 Fit       0.026441
 2675 Fit       0.023215
 2676 Fit       0.020212
 2677 Fit       0.016611
 2678 Fit       0.011586
 2679 Fit       0.003954
 2680 Fit       0.028077
 2681 Fit       0.024409
 2682 Fit       0.021350
 2683 Fit       0.017902
 2684 Fit       0.013174
 2685 Fit       0.005858
 2686 Fit       0.028078
 2687 Fit       0.024409
 2688 Fit       0.021350
 2689 Fit       0.017902
 2690 Fit       0.013174
 2691 Fit       0.005858
 2692 Fit       0.026441
 2693 Fit       0.023215
 2694 Fit       0.020211
 2695 Fit       0.016610
 2696 Fit       0.011585
 2697 Fit       0.003953
 2698 Fit       0.022747
 2699 Fit       0.019579
 2700 Fit       0.015688
 2701 Fit       0.010305
 2702 Fit       0.017853
 2703 Fit       0.013452
 2704 Fit       0.013895
 2705 Fit       0.018191
 2706 Fit       0.021524
 2707 Fit       0.010451
 2708 Fit       0.016083
 2709 Fit       0.020017
 2710 Fit       0.022915
 2711 Fit       0.014261
 2712 Fit       0.018745
 2713 Fit       0.021899
 2714 Fit       0.024447
 2715 Fit       0.027111
 2716 Fit       0.013531
 2717 Fit       0.018459
 2718 Fit       0.021825
 2719 Fit       0.024474
 2720 Fit       0.027194
 2721 Fit       0.013531
 2722 Fit       0.018459
 2723 Fit       0.021825
 2724 Fit       0.024474
 2725 Fit       0.027194
 2726 Fit       0.014261
 2727 Fit       0.018745
 2728 Fit       0.021899
 2729 Fit       0.024446
 2730 Fit       0.027109
 2731 Fit       0.010452
 2732 Fit       0.016083
 2733 Fit       0.020016
 2734 Fit       0.022914
 2735 Fit       0.013894
 2736 Fit       0.018190
 2737 Fit       0.021522
 2738 Fit       0.009200
 2739 Fit       0.004661
 2740 Fit       0.010161
 2741 Fit       0.009303
 2742 Fit       0.006231
 2743 Fit       0.010583
 2744 Fit       0.010753
 2745 Fit       0.009653
 2746 Fit       0.008247
 2747 Fit       0.009558
 2748 Fit       0.011590
 2749 Fit       0.012302
 2750 Fit       0.012534
 2751 Fit       0.014010
 2752 Fit       0.018738
 2753 Fit       0.022221
 2754 Fit       0.012315
 2755 Fit       0.013907
 2756 Fit       0.015568
 2757 Fit       0.017686
 2758 Fit       0.018551
 2759 Fit       0.014970
 2760 Fit       0.011971
 2761 Fit       0.012986
 2762 Fit       0.015184
 2763 Fit       0.015475
 2764 Fit       0.015493
 2765 Fit       0.017702
 2766 Fit       0.018554
 2767 Fit       0.014979
 2768 Fit       0.011999
 2769 Fit       0.013014
 2770 Fit       0.015209
 2771 Fit       0.018762
 2772 Fit       0.022222
 2773 Fit       0.012344
 2774 Fit       0.013935
 2775 Fit       0.015599
 2776 Fit       0.009588
 2777 Fit       0.011617
 2778 Fit       0.012333
 2779 Fit       0.012575
 2780 Fit       0.014060
 2781 Fit       0.010607
 2782 Fit       0.010783
 2783 Fit       0.009696
 2784 Fit       0.008312
 2785 Fit       0.010185
 2786 Fit       0.009337
 2787 Fit       0.006283
 2788 Fit       0.009238
 2789 Fit       0.004715
 -----------------------------------------------------------------
 Leave Link  602 at Thu Jan 16 21:47:15 2014, MaxMem=   235929600 cpu:         0.7

 Test job not archived.
 1\1\GINC-G60\SP\RHF\Gen\C6H4Cl1N1O4\KOLAR\16-Jan-2014\0\\# hf/gen pop=
 mk iop(6/33=2,6/41=5,6/42=2)\\na resp\\0,1\C,0,0.633824,1.970528,-0.00
 0123\C,0,1.986815,1.544414,-0.000259\C,0,1.930133,0.176375,-0.000077\O
 ,0,0.662705,-0.280711,0.000105\C,0,-0.136934,0.831352,0.00004\C,0,-1.6
 03353,0.65628,0.000271\O,0,-2.324965,1.632719,0.000268\C,0,-2.097254,-
 0.78971,0.001446\Cl,0,-3.879039,-0.908156,-0.000789\N,0,2.983473,-0.79
 829,-0.000109\O,0,4.128987,-0.342949,-0.000237\O,0,2.666891,-1.984979,
 0.000044\H,0,0.252748,2.981373,-0.000166\H,0,2.885776,2.141546,-0.0004
 53\H,0,-1.712476,-1.313456,-0.878655\H,0,-1.715031,-1.31085,0.884235\\
 Version=AM64L-G09RevD.01\State=1-A\HF=-1042.7399604\RMSD=8.211e-09\Dip
 ole=0.3726473,0.9273675,0.0011149\Quadrupole=-13.0926062,5.6975954,7.3
 950108,10.4465505,-0.0052341,-0.0028426\PG=C01 [X(C6H4Cl1N1O4)]\\@


 DO YOU KNOW THAT THE LETTERS IN "EPISCOPAL", WHEN
 REARRANGED, SPELL "PEPSI COLA"?
 Job cpu time:       0 days  0 hours  0 minutes 20.7 seconds.
 File lengths (MBytes):  RWF=     14 Int=      0 D2E=      0 Chk=      2 Scr=      1
 Normal termination of Gaussian 09 at Thu Jan 16 21:47:15 2014.
19.95user 0.76system 0:28.21elapsed 73%CPU (0avgtext+0avgdata 4455408maxresident)k
22784inputs+30344outputs (5major+431869minor)pagefaults 0swaps
