Linux g31 2.6.38.6-client #1 SMP Tue Jun 12 11:27:21 CEST 2012 x86_64 GNU/Linux
Fri Jan 17 11:54:31 CET 2014

 Entering Gaussian System, Link 0=/usr/local/programs/common/gaussian/gaussian09_d01/arch/amd64-pgi_10.4.0-acml/g09/g09
 Initial command:
 /usr/local/programs/common/gaussian/gaussian09_d01/arch/amd64-pgi_10.4.0-acml/g09/l1.exe "/scratch/kolar/g09_19821/Gau-23600.inp" -scrdir="/scratch/kolar/g09_19821/"
 Entering Link 1 = /usr/local/programs/common/gaussian/gaussian09_d01/arch/amd64-pgi_10.4.0-acml/g09/l1.exe PID=     23602.
  
 Copyright (c) 1988,1990,1992,1993,1995,1998,2003,2009,2013,
            Gaussian, Inc.  All Rights Reserved.
  
 This is part of the Gaussian(R) 09 program.  It is based on
 the Gaussian(R) 03 system (copyright 2003, Gaussian, Inc.),
 the Gaussian(R) 98 system (copyright 1998, Gaussian, Inc.),
 the Gaussian(R) 94 system (copyright 1995, Gaussian, Inc.),
 the Gaussian 92(TM) system (copyright 1992, Gaussian, Inc.),
 the Gaussian 90(TM) system (copyright 1990, Gaussian, Inc.),
 the Gaussian 88(TM) system (copyright 1988, Gaussian, Inc.),
 the Gaussian 86(TM) system (copyright 1986, Carnegie Mellon
 University), and the Gaussian 82(TM) system (copyright 1983,
 Carnegie Mellon University). Gaussian is a federally registered
 trademark of Gaussian, Inc.
  
 This software contains proprietary and confidential information,
 including trade secrets, belonging to Gaussian, Inc.
  
 This software is provided under written license and may be
 used, copied, transmitted, or stored only in accord with that
 written license.
  
 The following legend is applicable only to US Government
 contracts under FAR:
  
                    RESTRICTED RIGHTS LEGEND
  
 Use, reproduction and disclosure by the US Government is
 subject to restrictions as set forth in subparagraphs (a)
 and (c) of the Commercial Computer Software - Restricted
 Rights clause in FAR 52.227-19.
  
 Gaussian, Inc.
 340 Quinnipiac St., Bldg. 40, Wallingford CT 06492
  
  
 ---------------------------------------------------------------
 Warning -- This program may not be used in any manner that
 competes with the business of Gaussian, Inc. or will provide
 assistance to any competitor of Gaussian, Inc.  The licensee
 of this program is prohibited from giving any competitor of
 Gaussian, Inc. access to this program.  By using this program,
 the user acknowledges that Gaussian, Inc. is engaged in the
 business of creating and licensing software in the field of
 computational chemistry and represents and warrants to the
 licensee that it is not a competitor of Gaussian, Inc. and that
 it will not use this program in any manner prohibited above.
 ---------------------------------------------------------------
  

 Cite this work as:
 Gaussian 09, Revision D.01,
 M. J. Frisch, G. W. Trucks, H. B. Schlegel, G. E. Scuseria, 
 M. A. Robb, J. R. Cheeseman, G. Scalmani, V. Barone, B. Mennucci, 
 G. A. Petersson, H. Nakatsuji, M. Caricato, X. Li, H. P. Hratchian, 
 A. F. Izmaylov, J. Bloino, G. Zheng, J. L. Sonnenberg, M. Hada, 
 M. Ehara, K. Toyota, R. Fukuda, J. Hasegawa, M. Ishida, T. Nakajima, 
 Y. Honda, O. Kitao, H. Nakai, T. Vreven, J. A. Montgomery, Jr., 
 J. E. Peralta, F. Ogliaro, M. Bearpark, J. J. Heyd, E. Brothers, 
 K. N. Kudin, V. N. Staroverov, T. Keith, R. Kobayashi, J. Normand, 
 K. Raghavachari, A. Rendell, J. C. Burant, S. S. Iyengar, J. Tomasi, 
 M. Cossi, N. Rega, J. M. Millam, M. Klene, J. E. Knox, J. B. Cross, 
 V. Bakken, C. Adamo, J. Jaramillo, R. Gomperts, R. E. Stratmann, 
 O. Yazyev, A. J. Austin, R. Cammi, C. Pomelli, J. W. Ochterski, 
 R. L. Martin, K. Morokuma, V. G. Zakrzewski, G. A. Voth, 
 P. Salvador, J. J. Dannenberg, S. Dapprich, A. D. Daniels, 
 O. Farkas, J. B. Foresman, J. V. Ortiz, J. Cioslowski, 
 and D. J. Fox, Gaussian, Inc., Wallingford CT, 2013.
 
 ******************************************
 Gaussian 09:  AM64L-G09RevD.01 24-Apr-2013
                17-Jan-2014 
 ******************************************
 %mem=1800mb
 ------------------------------------------------------------------
 # hf/gen pseudo=read pop=(mk, readradii) iop(6/33=2,6/41=5,6/42=2)
 ------------------------------------------------------------------
 1/38=1/1;
 2/12=2,17=6,18=5,40=1/2;
 3/5=7,11=9,16=1,17=8,25=1,30=1/1,2,3;
 4//1;
 5/5=2,38=5/2;
 6/7=2,8=2,9=2,10=2,15=8,20=101,28=1,33=2,41=5,42=2/1,2;
 99/5=1,9=1/99;
 -------
 na resp
 -------
 Symbolic Z-matrix:
 Charge =  0 Multiplicity = 1
 6                    -1.88057   1.29604  -1.03437 
 6                    -2.05473  -0.08535  -0.38669 
 1                    -1.5893   -0.87199  -0.99341 
 8                    -1.32687   0.04159   0.8425 
 6                    -0.54243   1.21585   0.79147 
 1                    -0.94198   1.9322    1.53712 
 8                    -0.64659   1.75825  -0.5016 
 6                     0.90653   0.97215   1.17077 
 53                    1.95692  -0.42058  -0.16456 
 6                    -3.50399  -0.45281  -0.12144 
 8                    -3.55534  -1.80459   0.29699 
 1                    -1.79151   1.2631   -2.12252 
 1                    -2.70457   1.97512  -0.75962 
 1                     1.47482   1.90155   1.13488 
 1                     0.96797   0.52639   2.16277 
 1                    -3.90437   0.23235   0.64227 
 1                    -4.07864  -0.29678  -1.05212 
 1                    -4.46783  -2.00832   0.55048 
 
                          Input orientation:                          
 ---------------------------------------------------------------------
 Center     Atomic      Atomic             Coordinates (Angstroms)
 Number     Number       Type             X           Y           Z
 ---------------------------------------------------------------------
      1          6           0       -1.880566    1.296037   -1.034371
      2          6           0       -2.054728   -0.085351   -0.386686
      3          1           0       -1.589298   -0.871992   -0.993407
      4          8           0       -1.326874    0.041586    0.842499
      5          6           0       -0.542431    1.215846    0.791469
      6          1           0       -0.941981    1.932203    1.537119
      7          8           0       -0.646590    1.758246   -0.501598
      8          6           0        0.906528    0.972152    1.170774
      9         53           0        1.956923   -0.420581   -0.164556
     10          6           0       -3.503986   -0.452813   -0.121444
     11          8           0       -3.555340   -1.804590    0.296993
     12          1           0       -1.791507    1.263096   -2.122521
     13          1           0       -2.704573    1.975121   -0.759624
     14          1           0        1.474824    1.901550    1.134877
     15          1           0        0.967972    0.526391    2.162768
     16          1           0       -3.904371    0.232347    0.642268
     17          1           0       -4.078639   -0.296782   -1.052124
     18          1           0       -4.467828   -2.008320    0.550481
 ---------------------------------------------------------------------
                    Distance matrix (angstroms):
                    1          2          3          4          5
     1  C    0.000000
     2  C    1.535598   0.000000
     3  H    2.187891   1.097059   0.000000
     4  O    2.324406   1.434148   2.067376   0.000000
     5  C    2.265111   2.316939   2.939520   1.413096   0.000000
     6  H    2.810375   3.001626   3.832244   2.050627   1.108513
     7  O    1.421331   2.322694   2.837028   2.283923   1.406083
     8  C    3.568677   3.508993   3.783344   2.441680   1.517479
     9  I    4.292980   4.031757   3.669666   3.465701   3.136662
    10  C    2.554879   1.518463   2.145241   2.431755   3.519750
    11  O    3.767132   2.382233   2.529860   2.944827   4.294783
    12  H    1.092285   2.213756   2.423714   3.240265   3.170767
    13  H    1.102555   2.192470   3.066683   2.864160   2.767173
    14  H    4.041154   4.326739   4.648760   3.375568   2.158110
    15  H    4.350658   4.001332   4.296108   2.691554   2.153399
    16  H    2.835197   2.140294   3.042131   2.592291   3.506019
    17  H    2.714574   2.140964   2.555608   3.358020   4.265167
    18  H    4.486029   3.224770   3.458434   3.762045   5.085476
                    6          7          8          9         10
     6  H    0.000000
     7  O    2.067337   0.000000
     8  C    2.114921   2.413907   0.000000
     9  I    4.103040   3.411622   2.196848   0.000000
    10  C    3.873371   3.632907   4.811755   5.461174   0.000000
    11  O    4.725588   4.668230   5.327481   5.702066   1.415990
    12  H    3.816066   2.045336   4.267298   4.551826   3.143444
    13  H    2.895445   2.085403   4.215736   5.274755   2.634615
    14  H    2.450242   2.683092   1.089968   2.704300   5.648886
    15  H    2.452685   3.350093   1.089280   2.700225   5.116139
    16  H    3.530726   3.774909   4.896058   5.952482   1.101367
    17  H    4.638014   4.037967   5.603870   6.101730   1.104870
    18  H    5.378919   5.467701   6.176705   6.656547   1.949379
                   11         12         13         14         15
    11  O    0.000000
    12  H    4.286706   0.000000
    13  H    4.015776   1.788339   0.000000
    14  H    6.303973   4.656950   4.589325   0.000000
    15  H    5.419865   5.149870   4.911902   1.790118   0.000000
    16  H    2.095268   3.629145   2.538125   5.653728   5.112544
    17  H    2.089843   2.968155   2.671171   6.360549   6.039986
    18  H    0.968709   5.000980   4.548983   7.137487   6.210648
                   16         17         18
    16  H    0.000000
    17  H    1.783623   0.000000
    18  H    2.312249   2.376799   0.000000
 Stoichiometry    C5H9IO3
 Framework group  C1[X(C5H9IO3)]
 Deg. of freedom    48
 Full point group                 C1      NOp   1
 Largest Abelian subgroup         C1      NOp   1
 Largest concise Abelian subgroup C1      NOp   1
                         Standard orientation:                         
 ---------------------------------------------------------------------
 Center     Atomic      Atomic             Coordinates (Angstroms)
 Number     Number       Type             X           Y           Z
 ---------------------------------------------------------------------
      1          6           0       -1.880566    1.296037   -1.034371
      2          6           0       -2.054728   -0.085351   -0.386686
      3          1           0       -1.589298   -0.871992   -0.993407
      4          8           0       -1.326874    0.041586    0.842499
      5          6           0       -0.542431    1.215846    0.791469
      6          1           0       -0.941981    1.932203    1.537119
      7          8           0       -0.646590    1.758246   -0.501598
      8          6           0        0.906528    0.972152    1.170774
      9         53           0        1.956923   -0.420581   -0.164556
     10          6           0       -3.503986   -0.452813   -0.121444
     11          8           0       -3.555340   -1.804590    0.296993
     12          1           0       -1.791507    1.263096   -2.122521
     13          1           0       -2.704573    1.975121   -0.759624
     14          1           0        1.474824    1.901550    1.134877
     15          1           0        0.967972    0.526391    2.162768
     16          1           0       -3.904371    0.232347    0.642268
     17          1           0       -4.078639   -0.296782   -1.052124
     18          1           0       -4.467828   -2.008320    0.550481
 ---------------------------------------------------------------------
 Rotational constants (GHZ):      1.8865356      0.4560329      0.4122014
 General basis read from cards:  (5D, 7F)
 ======================================================================================================
                                       Pseudopotential Parameters
 ======================================================================================================
  Center     Atomic      Valence      Angular      Power
  Number     Number     Electrons     Momentum     of R      Exponent        Coefficient   SO-Coeffient
 ======================================================================================================
    1          6
                                   No pseudopotential on this center.
    2          6
                                   No pseudopotential on this center.
    3          1
                                   No pseudopotential on this center.
    4          8
                                   No pseudopotential on this center.
    5          6
                                   No pseudopotential on this center.
    6          1
                                   No pseudopotential on this center.
    7          8
                                   No pseudopotential on this center.
    8          6
                                   No pseudopotential on this center.
    9         53            7
                                      F and up 
                                                     0        1.0715702       -0.07476210    0.00000000
                                                     1       44.1936028      -30.08112240    0.00000000
                                                     2       12.9367609      -75.37227210    0.00000000
                                                     2        3.1956412      -22.05637580    0.00000000
                                                     2        0.8589806       -1.69795850    0.00000000
                                      S - F
                                                     0      127.9202670        2.93800360    0.00000000
                                                     1       78.6211465       41.24712670    0.00000000
                                                     2       36.5146237      287.86800950    0.00000000
                                                     2        9.9065681      114.37585060    0.00000000
                                                     2        1.9420086       37.65477140    0.00000000
                                      P - F
                                                     0       13.0035304        2.22226300    0.00000000
                                                     1       76.0331404       39.40908310    0.00000000
                                                     2       24.1961684      177.40750020    0.00000000
                                                     2        6.4053433       77.98894620    0.00000000
                                                     2        1.5851786       25.75476410    0.00000000
                                      D - F
                                                     0       40.4278108        7.05243600    0.00000000
                                                     1       28.9084375       33.30416350    0.00000000
                                                     2       15.6268936      186.94538750    0.00000000
                                                     2        4.1442856       71.96883610    0.00000000
                                                     2        0.9377235        9.36306570    0.00000000
   10          6
                                   No pseudopotential on this center.
   11          8
                                   No pseudopotential on this center.
   12          1
                                   No pseudopotential on this center.
   13          1
                                   No pseudopotential on this center.
   14          1
                                   No pseudopotential on this center.
   15          1
                                   No pseudopotential on this center.
   16          1
                                   No pseudopotential on this center.
   17          1
                                   No pseudopotential on this center.
   18          1
                                   No pseudopotential on this center.
 ======================================================================================================
 There are   146 symmetry adapted cartesian basis functions of A   symmetry.
 There are   138 symmetry adapted basis functions of A   symmetry.
   138 basis functions,   272 primitive gaussians,   146 cartesian basis functions
    35 alpha electrons       35 beta electrons
       nuclear repulsion energy       463.8494807432 Hartrees.
 NAtoms=   18 NActive=   18 NUniq=   18 SFac= 1.00D+00 NAtFMM=   60 NAOKFM=F Big=F
 Integral buffers will be    131072 words long.
 Raffenetti 1 integral format.
 Two-electron integral symmetry is turned on.
 One-electron integrals computed using PRISM.
   1 Symmetry operations used in ECPInt.
 ECPInt:  NShTT=    1485 NPrTT=    8688 LenC2=    1464 LenP2D=    6111.
 LDataN:  DoStor=T MaxTD1= 5 Len=  102
 NBasis=   138 RedAO= T EigKep=  3.28D-03  NBF=   138
 NBsUse=   138 1.00D-06 EigRej= -1.00D+00 NBFU=   138
 ExpMin= 1.05D-01 ExpMax= 5.48D+03 ExpMxC= 8.25D+02 IAcc=1 IRadAn=         1 AccDes= 0.00D+00
 Harris functional with IExCor=  205 and IRadAn=       1 diagonalized for initial guess.
 HarFok:  IExCor=  205 AccDes= 0.00D+00 IRadAn=         1 IDoV= 1 UseB2=F ITyADJ=14
 ICtDFT=  3500011 ScaDFX=  1.000000  1.000000  1.000000  1.000000
 Defaulting to unpruned grid for atomic number  53.
 FoFCou: FMM=F IPFlag=           0 FMFlag=      100000 FMFlg1=           0
         NFxFlg=           0 DoJE=T BraDBF=F KetDBF=T FulRan=T
         wScrn=  0.000000 ICntrl=     500 IOpCl=  0 I1Cent=   200000004 NGrid=           0
         NMat0=    1 NMatS0=      1 NMatT0=    0 NMatD0=    1 NMtDS0=    0 NMtDT0=    0
 Petite list used in FoFCou.
 Keep R1 ints in memory in canonical form, NReq=47671102.
 Requested convergence on RMS density matrix=1.00D-08 within 128 cycles.
 Requested convergence on MAX density matrix=1.00D-06.
 Requested convergence on             energy=1.00D-06.
 No special actions if energy rises.
 SCF Done:  E(RHF) =  -430.285003140     A.U. after   12 cycles
            NFock= 12  Conv=0.75D-08     -V/T= 2.0201

 **********************************************************************

            Population analysis using the SCF density.

 **********************************************************************

 Orbital symmetries:
 BldTbl:  Degeneracy threshold= 1.00D-02
       Occupied  (A) (A) (A) (A) (A) (A) (A) (A) (A) (A) (A) (A)
                 (A) (A) (A) (A) (A) (A) (A) (A) (A) (A) (A) (A)
                 (A) (A) (A) (A) (A) (A) (A) (A) (A) (A) (A)
       Virtual   (A) (A) (A) (A) (A) (A) (A) (A) (A) (A) (A) (A)
                 (A) (A) (A) (A) (A) (A) (A) (A) (A) (A) (A) (A)
                 (A) (A) (A) (A) (A) (A) (A) (A) (A) (A) (A) (A)
                 (A) (A) (A) (A) (A) (A) (A) (A) (A) (A) (A) (A)
                 (A) (A) (A) (A) (A) (A) (A) (A) (A) (A) (A) (A)
                 (A) (A) (A) (A) (A) (A) (A) (A) (A) (A) (A) (A)
                 (A) (A) (A) (A) (A) (A) (A) (A) (A) (A) (A) (A)
                 (A) (A) (A) (A) (A) (A) (A) (A) (A) (A) (A) (A)
                 (A) (A) (A) (A) (A) (A) (A)
 The electronic state is 1-A.
 Alpha  occ. eigenvalues --  -20.58331 -20.57443 -20.56682 -11.35489 -11.29500
 Alpha  occ. eigenvalues --  -11.29271 -11.28991 -11.28606  -1.45240  -1.36743
 Alpha  occ. eigenvalues --   -1.34213  -1.08697  -1.00918  -0.92902  -0.87018
 Alpha  occ. eigenvalues --   -0.82656  -0.79830  -0.72629  -0.71614  -0.68162
 Alpha  occ. eigenvalues --   -0.65917  -0.63453  -0.61726  -0.60392  -0.57116
 Alpha  occ. eigenvalues --   -0.56349  -0.53202  -0.51998  -0.49791  -0.45731
 Alpha  occ. eigenvalues --   -0.45339  -0.44540  -0.41552  -0.35085  -0.34751
 Alpha virt. eigenvalues --    0.11402   0.21700   0.23120   0.24746   0.26330
 Alpha virt. eigenvalues --    0.27438   0.29051   0.29933   0.31399   0.32371
 Alpha virt. eigenvalues --    0.33279   0.35424   0.39334   0.40769   0.42652
 Alpha virt. eigenvalues --    0.43440   0.44810   0.51371   0.56595   0.57791
 Alpha virt. eigenvalues --    0.59078   0.74482   0.75239   0.76800   0.77503
 Alpha virt. eigenvalues --    0.79611   0.81718   0.82605   0.83211   0.84915
 Alpha virt. eigenvalues --    0.88499   0.89730   0.93523   0.95112   1.00229
 Alpha virt. eigenvalues --    1.06132   1.06575   1.09155   1.09751   1.11483
 Alpha virt. eigenvalues --    1.11972   1.13399   1.15855   1.16895   1.18937
 Alpha virt. eigenvalues --    1.20332   1.22854   1.28169   1.29098   1.31690
 Alpha virt. eigenvalues --    1.33985   1.37918   1.43719   1.48610   1.50738
 Alpha virt. eigenvalues --    1.56535   1.58704   1.61594   1.64263   1.70530
 Alpha virt. eigenvalues --    1.76637   1.82230   1.83548   1.94623   1.97249
 Alpha virt. eigenvalues --    2.01359   2.03270   2.04187   2.05080   2.08493
 Alpha virt. eigenvalues --    2.14020   2.15423   2.18448   2.20814   2.23742
 Alpha virt. eigenvalues --    2.29606   2.35481   2.37237   2.37943   2.40437
 Alpha virt. eigenvalues --    2.43512   2.45706   2.50369   2.50643   2.51707
 Alpha virt. eigenvalues --    2.62746   2.66090   2.67221   2.73840   2.75731
 Alpha virt. eigenvalues --    2.80346   2.85515   2.87761   2.91027   2.98342
 Alpha virt. eigenvalues --    3.00337   3.08845   3.11184   3.22397   3.24099
 Alpha virt. eigenvalues --    3.30604   3.41156  10.18253
          Condensed to atoms (all electrons):
               1          2          3          4          5          6
     1  C    4.867611   0.346232  -0.036519  -0.039263  -0.064314  -0.001481
     2  C    0.346232   4.866093   0.395570   0.192322  -0.057023   0.003605
     3  H   -0.036519   0.395570   0.504869  -0.037762   0.002664  -0.000352
     4  O   -0.039263   0.192322  -0.037762   8.520338   0.238212  -0.049082
     5  C   -0.064314  -0.057023   0.002664   0.238212   4.459088   0.419910
     6  H   -0.001481   0.003605  -0.000352  -0.049082   0.419910   0.578623
     7  O    0.200414  -0.034665   0.001043  -0.050844   0.242545  -0.045395
     8  C    0.004852   0.000397   0.000522  -0.046857   0.273438  -0.077033
     9  I   -0.000506  -0.001861   0.000303   0.000098  -0.050839   0.004498
    10  C   -0.043702   0.344964  -0.046493  -0.044802   0.003213   0.000770
    11  O    0.001622  -0.048838   0.001691   0.002589  -0.000028   0.000000
    12  H    0.394109  -0.026971  -0.001776   0.002339   0.005099  -0.000318
    13  H    0.396098  -0.054858   0.003470   0.000444  -0.001297   0.002594
    14  H   -0.000150  -0.000054  -0.000008   0.002332  -0.026784   0.000153
    15  H   -0.000085  -0.000052   0.000016  -0.000245  -0.027606  -0.000324
    16  H   -0.001306  -0.036593   0.004809   0.000360   0.000082  -0.000188
    17  H    0.001312  -0.051873  -0.000254   0.003072   0.000025  -0.000019
    18  H   -0.000146   0.005754  -0.000197  -0.000133   0.000005   0.000001
               7          8          9         10         11         12
     1  C    0.200414   0.004852  -0.000506  -0.043702   0.001622   0.394109
     2  C   -0.034665   0.000397  -0.001861   0.344964  -0.048838  -0.026971
     3  H    0.001043   0.000522   0.000303  -0.046493   0.001691  -0.001776
     4  O   -0.050844  -0.046857   0.000098  -0.044802   0.002589   0.002339
     5  C    0.242545   0.273438  -0.050839   0.003213  -0.000028   0.005099
     6  H   -0.045395  -0.077033   0.004498   0.000770   0.000000  -0.000318
     7  O    8.471235  -0.048583  -0.001763   0.001717  -0.000013  -0.029058
     8  C   -0.048583   5.568093   0.264374  -0.000281   0.000000   0.000091
     9  I   -0.001763   0.264374   6.799636   0.000146  -0.000003   0.000094
    10  C    0.001717  -0.000281   0.000146   4.796141   0.217272   0.000331
    11  O   -0.000013   0.000000  -0.000003   0.217272   8.407563  -0.000047
    12  H   -0.029058   0.000091   0.000094   0.000331  -0.000047   0.489615
    13  H   -0.039625  -0.000385   0.000030  -0.000093   0.000008  -0.032980
    14  H    0.000023   0.360598  -0.040686   0.000003   0.000000  -0.000007
    15  H    0.002217   0.365060  -0.041310  -0.000001   0.000000   0.000001
    16  H   -0.000060   0.000016  -0.000007   0.383333  -0.036206   0.000055
    17  H    0.000020   0.000006  -0.000003   0.391088  -0.039553   0.000160
    18  H    0.000001   0.000000   0.000000  -0.027240   0.260949   0.000002
              13         14         15         16         17         18
     1  C    0.396098  -0.000150  -0.000085  -0.001306   0.001312  -0.000146
     2  C   -0.054858  -0.000054  -0.000052  -0.036593  -0.051873   0.005754
     3  H    0.003470  -0.000008   0.000016   0.004809  -0.000254  -0.000197
     4  O    0.000444   0.002332  -0.000245   0.000360   0.003072  -0.000133
     5  C   -0.001297  -0.026784  -0.027606   0.000082   0.000025   0.000005
     6  H    0.002594   0.000153  -0.000324  -0.000188  -0.000019   0.000001
     7  O   -0.039625   0.000023   0.002217  -0.000060   0.000020   0.000001
     8  C   -0.000385   0.360598   0.365060   0.000016   0.000006   0.000000
     9  I    0.000030  -0.040686  -0.041310  -0.000007  -0.000003   0.000000
    10  C   -0.000093   0.000003  -0.000001   0.383333   0.391088  -0.027240
    11  O    0.000008   0.000000   0.000000  -0.036206  -0.039553   0.260949
    12  H   -0.032980  -0.000007   0.000001   0.000055   0.000160   0.000002
    13  H    0.561562  -0.000004   0.000009   0.003011  -0.000166   0.000003
    14  H   -0.000004   0.476817  -0.019665   0.000000   0.000000   0.000000
    15  H    0.000009  -0.019665   0.470129   0.000001   0.000000   0.000000
    16  H    0.003011   0.000000   0.000001   0.574052  -0.042605  -0.003972
    17  H   -0.000166   0.000000   0.000000  -0.042605   0.598265  -0.002432
    18  H    0.000003   0.000000   0.000000  -0.003972  -0.002432   0.313231
 Mulliken charges:
               1
     1  C   -0.024778
     2  C    0.157850
     3  H    0.208405
     4  O   -0.693121
     5  C    0.583612
     6  H    0.164038
     7  O   -0.669207
     8  C   -0.664309
     9  I    0.067800
    10  C    0.023636
    11  O   -0.767007
    12  H    0.199264
    13  H    0.162178
    14  H    0.247433
    15  H    0.251856
    16  H    0.155218
    17  H    0.142957
    18  H    0.454175
 Sum of Mulliken charges =   0.00000
 Mulliken charges with hydrogens summed into heavy atoms:
               1
     1  C    0.336664
     2  C    0.366255
     4  O   -0.693121
     5  C    0.747650
     7  O   -0.669207
     8  C   -0.165020
     9  I    0.067800
    10  C    0.321812
    11  O   -0.312832
 DipInt: DoE/N= T F RetVal/Mat= T F Init=T NMatP=  1 IDeriv=0 Min/MaxMlt=  0  4
 Entering OneElI...
 OneElI was handed   235872558 working-precision words.
 Multipole integrals L=0 to 4 MinM= 0 MaxM= 0.
 Requested accuracy = 0.1000D-12
 ShPair: Thresh= 1.00D-13 NBox=     0 BxSize= 0.00D+00 RnKept= 1.35D+01
         NSMCal=                 1485 NSMKep=                1423
 PrsmSu:  NPrtUS=   1 ThrOK=F IAlg=1 NPAlg=1 LenDen=           0.
 Prism:   IPart=     0 DynPar=F LinDyn=F Incr=          14.
 PRISM was handed   235746311 working-precision words and  1423 shell-pairs
 IPart=  0 NShTot=        1423 NBatch=          73 AvBLen=        19.5
 PrSmSu:  NxtVal=             15.
 Electronic moments (au):
        -70.00000000        168.56033290        -35.73223860        -14.19503609
      -1257.77101633       -395.49605886       -206.07578381       -135.71125216
        -50.28079330         14.39867032       6204.40657333       -310.82584865
       -101.32352211       1135.84928176       1368.61845365         20.35523489
        281.84565187       -264.05410847        -21.64213761       -319.70510841
     -48391.33609603      -4705.50381797      -1690.75994880     -10528.74226863
        -47.54584005      -1747.02524936        393.93634412       -622.11719025
        -70.18266211      -7755.08101147      -2444.11416103      -1088.22892253
       1163.71377132       -172.87217305        154.17974616
 Electronic spatial extent (au):  <R**2>=           1859.3429
 DipInt: DoE/N= F T RetVal/Mat= T F Init=T NMatP=  1 IDeriv=0 Min/MaxMlt=  0  4
 Nuclear    moments (au):
         70.00000000       -170.11024505         36.55998452         14.30440535
       1218.32013332        342.77555238        157.82021871        135.20060707
         52.89833224        -11.36879293      -6190.33240011        269.43701581
         88.09783517      -1082.15688954      -1398.35686260        -23.29427102
       -231.20241773        255.05522716         25.01499027        331.06206253
      44408.08512067       3301.34101133        987.64105362      10743.91358098
       -168.87922344       1669.26398981       -367.63533165        576.71348139
         71.03403704       6789.86729024       1493.71609535        752.46525878
      -1206.90196131        118.61980583       -195.61138646
 Total      moments (au):
          0.00000000         -1.54991215          0.82774592          0.10936926
        -39.45088301        -52.72050648        -48.25556510         -0.51064509
          2.61753893          3.02987740         14.07417322        -41.38883283
        -13.22568694         53.69239222        -29.73840896         -2.93903613
         50.64323415         -8.99888131          3.37285267         11.35695412
      -3983.25097537      -1404.16280665       -703.11889518        215.17131235
       -216.42506349        -77.76125955         26.30101247        -45.40370886
          0.85137492       -965.21372123       -950.39806569       -335.76366375
        -43.18818999        -54.25236722        -41.43164030
 Traceless Quadrup. (au):
          7.35810185         -5.91152162         -1.44658024         -0.51064509
          2.61753893          3.02987740
 Charge=              0.0000 electrons
 Dipole moment (field-independent basis, Debye):
    X=             -3.9395    Y=              2.1039    Z=              0.2780  Tot=              4.4747
 Quadrupole moment (field-independent basis, Debye-Ang):
   XX=            -53.0628   YY=            -70.9109   ZZ=            -64.9054
   XY=             -0.6868   XZ=              3.5207   YZ=              4.0753
 Traceless Quadrupole moment (field-independent basis, Debye-Ang):
   XX=              9.8969   YY=             -7.9512   ZZ=             -1.9457
   XY=             -0.6868   XZ=              3.5207   YZ=              4.0753
 Octapole moment (field-independent basis, Debye-Ang**2):
  XXX=             10.0175  YYY=            -29.4590  ZZZ=             -9.4135  XYY=             38.2162
  XXY=            -21.1667  XXZ=             -2.0919  XZZ=             36.0459  YZZ=             -6.4051
  YYZ=              2.4007  XYZ=              8.0834
 Hexadecapole moment (field-independent basis, Debye-Ang**3):
 XXXX=          -1500.2832 YYYY=           -528.8750 ZZZZ=           -264.8283 XXXY=             81.0438
 XXXZ=            -81.5161 YYYX=            -29.2886 YYYZ=              9.9062 ZZZX=            -17.1012
 ZZZY=              0.3207 XXYY=           -363.5457 XXZZ=           -357.9655 YYZZ=           -126.4647
 XXYZ=            -16.2667 YYXZ=            -20.4340 ZZXY=            -15.6051
 N-N= 4.638494807432D+02 E-N=-1.934623923920D+03  KE= 4.217925059171D+02
 Entering OneElI...
 OneElI was handed   235884973 working-precision words.
 Calculate electrostatic properties
    NBasis =   138  MinDer = 0  MaxDer = 0
    NGrid  =    18  NMatD  =   1
 Requested accuracy = 0.1000D-12
 ShPair: Thresh= 1.00D-13 NBox=     0 BxSize= 0.00D+00 RnKept= 1.35D+01
         NSMCal=                 1485 NSMKep=                1360
 PrsmSu:  NPrtUS=   1 ThrOK=F IAlg=1 NPAlg=1 LenDen=           0.
 Prism:   IPart=     0 DynPar=F LinDyn=F Incr=         244.
 PRISM was handed   235766374 working-precision words and  1360 shell-pairs
 IPart=  0 NShTot=       24480 NBatch=        1360 AvBLen=        18.0
 PrSmSu:  NxtVal=            245.
 --------------------------------------------------------
       Center         ----      EFG at Nuclei      ----
                      3XX-RR        3YY-RR        3ZZ-RR
 --------------------------------------------------------
     1   Atom       -0.225071      0.086456      0.138615
     2   Atom        0.056368      0.201607     -0.257974
     3   Atom        0.063478     -0.068382      0.004903
     4   Atom        0.302428     -0.114181     -0.188247
     5   Atom        0.149277     -0.089178     -0.060098
     6   Atom        0.078355     -0.032229     -0.046126
     7   Atom       -0.278285      1.260632     -0.982347
     8   Atom        0.050497     -0.035312     -0.015185
     9   Atom        0.011095     -0.007743     -0.003352
    10   Atom        0.149311     -0.261999      0.112688
    11   Atom       -0.608572     -0.933114      1.541686
    12   Atom        0.139623      0.148158     -0.287781
    13   Atom       -0.097382     -0.018371      0.115753
    14   Atom        0.020551     -0.175983      0.155432
    15   Atom        0.143942      0.077073     -0.221015
    16   Atom        0.086742     -0.029520     -0.057222
    17   Atom        0.025263      0.124589     -0.149852
    18   Atom       -0.380365      0.172906      0.207460
 --------------------------------------------------------
                        XY            XZ            YZ
 --------------------------------------------------------
     1   Atom       -0.177424     -0.177240     -0.074740
     2   Atom       -0.016518     -0.263145      0.012603
     3   Atom        0.126338      0.094770     -0.167751
     4   Atom       -1.504565     -1.186966     -0.129516
     5   Atom       -0.189872     -0.023620      0.203613
     6   Atom        0.091093      0.091624     -0.170068
     7   Atom       -0.705738     -1.189379      0.671012
     8   Atom        0.213272      0.191413     -0.267019
     9   Atom        0.040603      0.037395     -0.050765
    10   Atom       -0.016304      0.014173      0.146206
    11   Atom       -0.567299      0.715135      0.996035
    12   Atom       -0.004711      0.030308     -0.015886
    13   Atom        0.186368      0.075580     -0.066969
    14   Atom       -0.195570      0.011262      0.010719
    15   Atom        0.018275     -0.021510      0.167560
    16   Atom        0.089580      0.112848     -0.174666
    17   Atom        0.022451     -0.180242      0.053513
    18   Atom       -0.128210      0.173513      0.052932
 --------------------------------------------------------


 ---------------------------------------------------------------------------------
              Nuclear Quadrupole Coupling Constant in Principal Axis System
 ---------------------------------------------------------------------------------

       Atom             a.u.   MegaHertz   Gauss  10(-4) cm-1        Axes

              Baa    -0.0873   -14.566    -5.198    -4.859 -0.4892  0.6327  0.6004
     9 I(127) Bbb     0.0418     6.972     2.488     2.326  0.8415  0.1614  0.5155
              Bcc     0.0455     7.594     2.710     2.533  0.2292  0.7574 -0.6114
 

 ---------------------------------------------------------------------------------

 No NMR shielding tensors so no spin-rotation constants.
 Leave Link  601 at Fri Jan 17 11:54:39 2014, MaxMem=   235929600 cpu:         0.2
 FitSet:  NAtFit=    18 NAtPot=    18 NAtFrz=     0 MDM=    22 TotChg=   0.00000
 Merz-Kollman atomic radii used.
 Read replacement radii for each type of atom:
 Rad(53) =   2.700000000000D+00
 Atom Element Radius
    1     6    1.50
    2     6    1.50
    3     1    1.20
    4     8    1.40
    5     6    1.50
    6     1    1.20
    7     8    1.40
    8     6    1.50
    9    53    2.70
   10     6    1.50
   11     8    1.40
   12     1    1.20
   13     1    1.20
   14     1    1.20
   15     1    1.20
   16     1    1.20
   17     1    1.20
   18     1    1.20
 Generate VDW surfaces: Layer= 5 Dens= 2 Start= 1.400 Inc= 0.179

 **********************************************************************

            Electrostatic Properties Using The SCF Density

 **********************************************************************

       Atomic Center    1 is at  -1.880566  1.296037 -1.034371
       Atomic Center    2 is at  -2.054728 -0.085351 -0.386686
       Atomic Center    3 is at  -1.589298 -0.871992 -0.993407
       Atomic Center    4 is at  -1.326874  0.041586  0.842499
       Atomic Center    5 is at  -0.542431  1.215846  0.791469
       Atomic Center    6 is at  -0.941981  1.932203  1.537119
       Atomic Center    7 is at  -0.646590  1.758246 -0.501598
       Atomic Center    8 is at   0.906528  0.972152  1.170774
       Atomic Center    9 is at   1.956923 -0.420581 -0.164556
       Atomic Center   10 is at  -3.503986 -0.452813 -0.121444
       Atomic Center   11 is at  -3.555340 -1.804590  0.296993
       Atomic Center   12 is at  -1.791507  1.263096 -2.122521
       Atomic Center   13 is at  -2.704573  1.975121 -0.759624
       Atomic Center   14 is at   1.474824  1.901550  1.134877
       Atomic Center   15 is at   0.967972  0.526391  2.162768
       Atomic Center   16 is at  -3.904371  0.232347  0.642268
       Atomic Center   17 is at  -4.078639 -0.296782 -1.052124
       Atomic Center   18 is at  -4.467828 -2.008320  0.550481
      ESP Fit Center   19 is at  -1.689746  3.355311 -1.399032
      ESP Fit Center   20 is at  -1.318571  3.025679 -2.084371
      ESP Fit Center   21 is at  -2.070667  3.104728 -2.084371
      ESP Fit Center   22 is at  -2.772970 -0.085351 -2.360040
      ESP Fit Center   23 is at  -1.391873 -2.497929 -0.619572
      ESP Fit Center   24 is at  -2.170098 -2.403435 -1.367242
      ESP Fit Center   25 is at  -1.391873 -2.497929 -1.367242
      ESP Fit Center   26 is at  -2.651923 -1.644034 -2.040870
      ESP Fit Center   27 is at  -1.995184 -2.121183 -2.040870
      ESP Fit Center   28 is at  -1.183411 -2.121183 -2.040870
      ESP Fit Center   29 is at  -2.318222 -0.871992 -2.507034
      ESP Fit Center   30 is at  -1.953760 -1.503259 -2.507034
      ESP Fit Center   31 is at  -1.224835 -1.503259 -2.507034
      ESP Fit Center   32 is at  -1.589298 -0.871992 -2.673407
      ESP Fit Center   33 is at  -1.326874  0.041586  2.802499
      ESP Fit Center   34 is at  -0.576814  0.041586  2.653303
      ESP Fit Center   35 is at  -1.701904  0.691157  2.653303
      ESP Fit Center   36 is at  -2.076933  0.041586  2.653303
      ESP Fit Center   37 is at  -1.701904 -0.607985  2.653303
      ESP Fit Center   38 is at  -0.951844 -0.607985  2.653303
      ESP Fit Center   39 is at  -2.527124  0.734551  2.228429
      ESP Fit Center   40 is at  -2.712803  0.041586  2.228429
      ESP Fit Center   41 is at  -2.527124 -0.651379  2.228429
      ESP Fit Center   42 is at  -2.019839 -1.158664  2.228429
      ESP Fit Center   43 is at  -1.326874 -1.344343  2.228429
      ESP Fit Center   44 is at  -2.791845  1.105950  1.592559
      ESP Fit Center   45 is at  -1.516154 -1.759298  1.592559
      ESP Fit Center   46 is at  -0.901552  0.593830  2.764824
      ESP Fit Center   47 is at  -2.575314  1.595858  1.156130
      ESP Fit Center   48 is at  -0.941981  1.932203  3.217119
      ESP Fit Center   49 is at  -0.213056  1.932203  3.050747
      ESP Fit Center   50 is at  -0.577519  2.563470  3.050747
      ESP Fit Center   51 is at  -1.306443  2.563470  3.050747
      ESP Fit Center   52 is at  -1.670906  1.932203  3.050747
      ESP Fit Center   53 is at  -1.306443  1.300936  3.050747
      ESP Fit Center   54 is at  -0.577519  1.300936  3.050747
      ESP Fit Center   55 is at   0.120644  2.704245  2.584582
      ESP Fit Center   56 is at  -0.536094  3.181394  2.584582
      ESP Fit Center   57 is at  -1.347868  3.181394  2.584582
      ESP Fit Center   58 is at  -2.004606  2.704245  2.584582
      ESP Fit Center   59 is at  -2.255458  1.932203  2.584582
      ESP Fit Center   60 is at  -2.004606  1.160161  2.584582
      ESP Fit Center   61 is at  -0.011560  3.280151  1.910954
      ESP Fit Center   62 is at  -0.744557  3.558140  1.910954
      ESP Fit Center   63 is at  -1.522781  3.463646  1.910954
      ESP Fit Center   64 is at  -2.167951  3.018318  1.910954
      ESP Fit Center   65 is at  -2.532266  2.324173  1.910954
      ESP Fit Center   66 is at  -2.532266  1.540233  1.910954
      ESP Fit Center   67 is at  -0.011560  3.280151  1.163284
      ESP Fit Center   68 is at  -0.744557  3.558140  1.163284
      ESP Fit Center   69 is at  -1.522781  3.463646  1.163284
      ESP Fit Center   70 is at  -2.167951  3.018318  1.163284
      ESP Fit Center   71 is at  -2.532266  2.324173  1.163284
      ESP Fit Center   72 is at   0.565074  3.103936  0.248462
      ESP Fit Center   73 is at  -0.087021  3.480423  0.248462
      ESP Fit Center   74 is at  -0.835871  3.559130  0.248462
      ESP Fit Center   75 is at  -1.551992  3.326448  0.248462
      ESP Fit Center   76 is at   0.227057  3.512766 -0.501598
      ESP Fit Center   77 is at  -0.465744  3.709885 -0.501598
      ESP Fit Center   78 is at  -1.182970  3.643424 -0.501598
      ESP Fit Center   79 is at   0.565074  3.103936 -1.251657
      ESP Fit Center   80 is at  -0.087021  3.480423 -1.251657
      ESP Fit Center   81 is at  -0.835871  3.559130 -1.251657
      ESP Fit Center   82 is at   0.046375  2.958496 -1.887527
      ESP Fit Center   83 is at  -0.646590  3.144175 -1.887527
      ESP Fit Center   84 is at  -0.271560  2.407817 -2.312402
      ESP Fit Center   85 is at   0.714424  2.308267  2.779468
      ESP Fit Center   86 is at   1.956923 -0.420581  3.615444
      ESP Fit Center   87 is at   2.694365 -0.420581  3.542813
      ESP Fit Center   88 is at   2.325644  0.218062  3.542813
      ESP Fit Center   89 is at   1.219482 -0.420581  3.542813
      ESP Fit Center   90 is at   1.588202 -1.059224  3.542813
      ESP Fit Center   91 is at   2.325644 -1.059224  3.542813
      ESP Fit Center   92 is at   3.403467 -0.420581  3.327709
      ESP Fit Center   93 is at   3.209666  0.302691  3.327709
      ESP Fit Center   94 is at   2.680195  0.832163  3.327709
      ESP Fit Center   95 is at   0.704180 -1.143852  3.327709
      ESP Fit Center   96 is at   1.233651 -1.673324  3.327709
      ESP Fit Center   97 is at   1.956923 -1.867124  3.327709
      ESP Fit Center   98 is at   2.680195 -1.673324  3.327709
      ESP Fit Center   99 is at   3.209666 -1.143852  3.327709
      ESP Fit Center  100 is at   4.056979 -0.420581  2.978399
      ESP Fit Center  101 is at   3.930330  0.297681  2.978399
      ESP Fit Center  102 is at   3.565659  0.929309  2.978399
      ESP Fit Center  103 is at   3.006951  1.398121  2.978399
      ESP Fit Center  104 is at   2.321594  1.647570  2.978399
      ESP Fit Center  105 is at  -0.016483 -1.138842  2.978399
      ESP Fit Center  106 is at   0.348187 -1.770470  2.978399
      ESP Fit Center  107 is at   0.906895 -2.239282  2.978399
      ESP Fit Center  108 is at   1.592252 -2.488732  2.978399
      ESP Fit Center  109 is at   2.321594 -2.488732  2.978399
      ESP Fit Center  110 is at   3.006951 -2.239282  2.978399
      ESP Fit Center  111 is at   3.565659 -1.770470  2.978399
      ESP Fit Center  112 is at   3.930330 -1.138842  2.978399
      ESP Fit Center  113 is at   4.629787 -0.420581  2.508308
      ESP Fit Center  114 is at   4.530670  0.300549  2.508308
      ESP Fit Center  115 is at   4.240670  0.968196  2.508308
      ESP Fit Center  116 is at   3.781295  1.532844  2.508308
      ESP Fit Center  117 is at   3.186614  1.952615  2.508308
      ESP Fit Center  118 is at   2.500733  2.196378  2.508308
      ESP Fit Center  119 is at  -0.691045 -0.784536  2.508308
      ESP Fit Center  120 is at  -0.494658 -1.485452  2.508308
      ESP Fit Center  121 is at  -0.116447 -2.107393  2.508308
      ESP Fit Center  122 is at   0.415535 -2.604230  2.508308
      ESP Fit Center  123 is at   1.061836 -2.939116  2.508308
      ESP Fit Center  124 is at   1.774520 -3.087213  2.508308
      ESP Fit Center  125 is at   2.500733 -3.037539  2.508308
      ESP Fit Center  126 is at   3.186614 -2.793777  2.508308
      ESP Fit Center  127 is at   3.781295 -2.374006  2.508308
      ESP Fit Center  128 is at   4.240670 -1.809358  2.508308
      ESP Fit Center  129 is at   4.530670 -1.141711  2.508308
      ESP Fit Center  130 is at   5.099878 -0.420581  1.935500
      ESP Fit Center  131 is at   5.015160  0.304235  1.935500
      ESP Fit Center  132 is at   4.765570  0.989975  1.935500
      ESP Fit Center  133 is at   4.364566  1.599672  1.935500
      ESP Fit Center  134 is at   3.833766  2.100457  1.935500
      ESP Fit Center  135 is at   3.201784  2.465331  1.935500
      ESP Fit Center  136 is at  -0.668978 -2.147663  1.935500
      ESP Fit Center  137 is at  -0.199904 -2.706683  1.935500
      ESP Fit Center  138 is at   0.385446 -3.142460  1.935500
      ESP Fit Center  139 is at   1.055513 -3.431499  1.935500
      ESP Fit Center  140 is at   1.774177 -3.558218  1.935500
      ESP Fit Center  141 is at   2.502692 -3.515787  1.935500
      ESP Fit Center  142 is at   3.201784 -3.306493  1.935500
      ESP Fit Center  143 is at   3.833766 -2.941618  1.935500
      ESP Fit Center  144 is at   4.364566 -2.440833  1.935500
      ESP Fit Center  145 is at   4.765570 -1.831136  1.935500
      ESP Fit Center  146 is at   5.015160 -1.145396  1.935500
      ESP Fit Center  147 is at   5.449188 -0.420581  1.281988
      ESP Fit Center  148 is at   5.372873  0.305502  1.281988
      ESP Fit Center  149 is at   5.147266  0.999851  1.281988
      ESP Fit Center  150 is at   4.782225  1.632121  1.281988
      ESP Fit Center  151 is at   4.293704  2.174678  1.281988
      ESP Fit Center  152 is at   3.703055  2.603809  1.281988
      ESP Fit Center  153 is at   3.036092  2.900760  1.281988
      ESP Fit Center  154 is at  -0.868378 -2.473282  1.281988
      ESP Fit Center  155 is at  -0.379858 -3.015839  1.281988
      ESP Fit Center  156 is at   0.210791 -3.444971  1.281988
      ESP Fit Center  157 is at   0.877754 -3.741922  1.281988
      ESP Fit Center  158 is at   1.591882 -3.893714  1.281988
      ESP Fit Center  159 is at   2.321964 -3.893714  1.281988
      ESP Fit Center  160 is at   3.036092 -3.741922  1.281988
      ESP Fit Center  161 is at   3.703055 -3.444971  1.281988
      ESP Fit Center  162 is at   4.293704 -3.015839  1.281988
      ESP Fit Center  163 is at   4.782225 -2.473282  1.281988
      ESP Fit Center  164 is at   5.147266 -1.841013  1.281988
      ESP Fit Center  165 is at   5.372873 -1.146663  1.281988
      ESP Fit Center  166 is at   5.664292 -0.420581  0.572886
      ESP Fit Center  167 is at   5.593055  0.302691  0.572886
      ESP Fit Center  168 is at   5.382085  0.998168  0.572886
      ESP Fit Center  169 is at   5.039487  1.639123  0.572886
      ESP Fit Center  170 is at   4.578428  2.200925  0.572886
      ESP Fit Center  171 is at   4.016627  2.661983  0.572886
      ESP Fit Center  172 is at   3.375672  3.004581  0.572886
      ESP Fit Center  173 is at   2.680195  3.215552  0.572886
      ESP Fit Center  174 is at  -1.125641 -2.480284  0.572886
      ESP Fit Center  175 is at  -0.664582 -3.042086  0.572886
      ESP Fit Center  176 is at  -0.102780 -3.503145  0.572886
      ESP Fit Center  177 is at   0.538175 -3.845742  0.572886
      ESP Fit Center  178 is at   1.233651 -4.056713  0.572886
      ESP Fit Center  179 is at   1.956923 -4.127949  0.572886
      ESP Fit Center  180 is at   2.680195 -4.056713  0.572886
      ESP Fit Center  181 is at   3.375672 -3.845742  0.572886
      ESP Fit Center  182 is at   4.016627 -3.503145  0.572886
      ESP Fit Center  183 is at   4.578428 -3.042086  0.572886
      ESP Fit Center  184 is at   5.039487 -2.480284  0.572886
      ESP Fit Center  185 is at   5.382085 -1.839329  0.572886
      ESP Fit Center  186 is at   5.593055 -1.143852  0.572886
      ESP Fit Center  187 is at   5.736923 -0.420581 -0.164556
      ESP Fit Center  188 is at   5.668614  0.294789 -0.164556
      ESP Fit Center  189 is at   5.466154  0.984303 -0.164556
      ESP Fit Center  190 is at   5.136861  1.623042 -0.164556
      ESP Fit Center  191 is at   4.692638  2.187918 -0.164556
      ESP Fit Center  192 is at   4.149538  2.658516 -0.164556
      ESP Fit Center  193 is at   3.527192  3.017828 -0.164556
      ESP Fit Center  194 is at   2.848092  3.252867 -0.164556
      ESP Fit Center  195 is at   2.136783  3.355138 -0.164556
      ESP Fit Center  196 is at   1.418973  3.320944 -0.164556
      ESP Fit Center  197 is at   0.720606  3.151522 -0.164556
      ESP Fit Center  198 is at  -1.014358 -2.757222 -0.164556
      ESP Fit Center  199 is at  -0.518450 -3.277314 -0.164556
      ESP Fit Center  200 is at   0.066923 -3.694157 -0.164556
      ESP Fit Center  201 is at   0.720606 -3.992684 -0.164556
      ESP Fit Center  202 is at   1.418973 -4.162106 -0.164556
      ESP Fit Center  203 is at   2.136783 -4.196299 -0.164556
      ESP Fit Center  204 is at   2.848092 -4.094028 -0.164556
      ESP Fit Center  205 is at   3.527192 -3.858990 -0.164556
      ESP Fit Center  206 is at   4.149538 -3.499678 -0.164556
      ESP Fit Center  207 is at   4.692638 -3.029079 -0.164556
      ESP Fit Center  208 is at   5.136861 -2.464203 -0.164556
      ESP Fit Center  209 is at   5.466154 -1.825465 -0.164556
      ESP Fit Center  210 is at   5.668614 -1.135950 -0.164556
      ESP Fit Center  211 is at   5.664292 -0.420581 -0.901997
      ESP Fit Center  212 is at   5.593055  0.302691 -0.901997
      ESP Fit Center  213 is at   5.382085  0.998168 -0.901997
      ESP Fit Center  214 is at   5.039487  1.639123 -0.901997
      ESP Fit Center  215 is at   4.578428  2.200925 -0.901997
      ESP Fit Center  216 is at   4.016627  2.661983 -0.901997
      ESP Fit Center  217 is at   3.375672  3.004581 -0.901997
      ESP Fit Center  218 is at   2.680195  3.215552 -0.901997
      ESP Fit Center  219 is at   1.956923  3.286788 -0.901997
      ESP Fit Center  220 is at   1.233651  3.215552 -0.901997
      ESP Fit Center  221 is at  -0.664582 -3.042086 -0.901997
      ESP Fit Center  222 is at  -0.102780 -3.503145 -0.901997
      ESP Fit Center  223 is at   0.538175 -3.845742 -0.901997
      ESP Fit Center  224 is at   1.233651 -4.056713 -0.901997
      ESP Fit Center  225 is at   1.956923 -4.127949 -0.901997
      ESP Fit Center  226 is at   2.680195 -4.056713 -0.901997
      ESP Fit Center  227 is at   3.375672 -3.845742 -0.901997
      ESP Fit Center  228 is at   4.016627 -3.503145 -0.901997
      ESP Fit Center  229 is at   4.578428 -3.042086 -0.901997
      ESP Fit Center  230 is at   5.039487 -2.480284 -0.901997
      ESP Fit Center  231 is at   5.382085 -1.839329 -0.901997
      ESP Fit Center  232 is at   5.593055 -1.143852 -0.901997
      ESP Fit Center  233 is at   5.449188 -0.420581 -1.611099
      ESP Fit Center  234 is at   5.372873  0.305502 -1.611099
      ESP Fit Center  235 is at   5.147266  0.999851 -1.611099
      ESP Fit Center  236 is at   4.782225  1.632121 -1.611099
      ESP Fit Center  237 is at   4.293704  2.174678 -1.611099
      ESP Fit Center  238 is at   3.703055  2.603809 -1.611099
      ESP Fit Center  239 is at   3.036092  2.900760 -1.611099
      ESP Fit Center  240 is at   2.321964  3.052553 -1.611099
      ESP Fit Center  241 is at   1.591882  3.052553 -1.611099
      ESP Fit Center  242 is at   0.877754  2.900760 -1.611099
      ESP Fit Center  243 is at  -0.868378 -2.473282 -1.611099
      ESP Fit Center  244 is at  -0.379858 -3.015839 -1.611099
      ESP Fit Center  245 is at   0.210791 -3.444971 -1.611099
      ESP Fit Center  246 is at   0.877754 -3.741922 -1.611099
      ESP Fit Center  247 is at   1.591882 -3.893714 -1.611099
      ESP Fit Center  248 is at   2.321964 -3.893714 -1.611099
      ESP Fit Center  249 is at   3.036092 -3.741922 -1.611099
      ESP Fit Center  250 is at   3.703055 -3.444971 -1.611099
      ESP Fit Center  251 is at   4.293704 -3.015839 -1.611099
      ESP Fit Center  252 is at   4.782225 -2.473282 -1.611099
      ESP Fit Center  253 is at   5.147266 -1.841013 -1.611099
      ESP Fit Center  254 is at   5.372873 -1.146663 -1.611099
      ESP Fit Center  255 is at   5.099878 -0.420581 -2.264611
      ESP Fit Center  256 is at   5.015160  0.304235 -2.264611
      ESP Fit Center  257 is at   4.765570  0.989975 -2.264611
      ESP Fit Center  258 is at   4.364566  1.599672 -2.264611
      ESP Fit Center  259 is at   3.833766  2.100457 -2.264611
      ESP Fit Center  260 is at   3.201784  2.465331 -2.264611
      ESP Fit Center  261 is at   2.502692  2.674626 -2.264611
      ESP Fit Center  262 is at   1.774177  2.717057 -2.264611
      ESP Fit Center  263 is at   1.055513  2.590337 -2.264611
      ESP Fit Center  264 is at   0.385446  2.301298 -2.264611
      ESP Fit Center  265 is at  -0.668978 -2.147663 -2.264611
      ESP Fit Center  266 is at  -0.199904 -2.706683 -2.264611
      ESP Fit Center  267 is at   0.385446 -3.142460 -2.264611
      ESP Fit Center  268 is at   1.055513 -3.431499 -2.264611
      ESP Fit Center  269 is at   1.774177 -3.558218 -2.264611
      ESP Fit Center  270 is at   2.502692 -3.515787 -2.264611
      ESP Fit Center  271 is at   3.201784 -3.306493 -2.264611
      ESP Fit Center  272 is at   3.833766 -2.941618 -2.264611
      ESP Fit Center  273 is at   4.364566 -2.440833 -2.264611
      ESP Fit Center  274 is at   4.765570 -1.831136 -2.264611
      ESP Fit Center  275 is at   5.015160 -1.145396 -2.264611
      ESP Fit Center  276 is at   4.629787 -0.420581 -2.837419
      ESP Fit Center  277 is at   4.530670  0.300549 -2.837419
      ESP Fit Center  278 is at   4.240670  0.968196 -2.837419
      ESP Fit Center  279 is at   3.781295  1.532844 -2.837419
      ESP Fit Center  280 is at   3.186614  1.952615 -2.837419
      ESP Fit Center  281 is at   2.500733  2.196378 -2.837419
      ESP Fit Center  282 is at   1.774520  2.246052 -2.837419
      ESP Fit Center  283 is at   1.061836  2.097954 -2.837419
      ESP Fit Center  284 is at   0.415535  1.763068 -2.837419
      ESP Fit Center  285 is at  -0.116447  1.266231 -2.837419
      ESP Fit Center  286 is at  -0.691045 -0.056626 -2.837419
      ESP Fit Center  287 is at  -0.691045 -0.784536 -2.837419
      ESP Fit Center  288 is at  -0.494658 -1.485452 -2.837419
      ESP Fit Center  289 is at  -0.116447 -2.107393 -2.837419
      ESP Fit Center  290 is at   0.415535 -2.604230 -2.837419
      ESP Fit Center  291 is at   1.061836 -2.939116 -2.837419
      ESP Fit Center  292 is at   1.774520 -3.087213 -2.837419
      ESP Fit Center  293 is at   2.500733 -3.037539 -2.837419
      ESP Fit Center  294 is at   3.186614 -2.793777 -2.837419
      ESP Fit Center  295 is at   3.781295 -2.374006 -2.837419
      ESP Fit Center  296 is at   4.240670 -1.809358 -2.837419
      ESP Fit Center  297 is at   4.530670 -1.141711 -2.837419
      ESP Fit Center  298 is at   4.056979 -0.420581 -3.307511
      ESP Fit Center  299 is at   3.930330  0.297681 -3.307511
      ESP Fit Center  300 is at   3.565659  0.929309 -3.307511
      ESP Fit Center  301 is at   3.006951  1.398121 -3.307511
      ESP Fit Center  302 is at   2.321594  1.647570 -3.307511
      ESP Fit Center  303 is at   1.592252  1.647570 -3.307511
      ESP Fit Center  304 is at   0.906895  1.398121 -3.307511
      ESP Fit Center  305 is at   0.348187  0.929309 -3.307511
      ESP Fit Center  306 is at  -0.016483  0.297681 -3.307511
      ESP Fit Center  307 is at  -0.143132 -0.420581 -3.307511
      ESP Fit Center  308 is at  -0.016483 -1.138842 -3.307511
      ESP Fit Center  309 is at   0.348187 -1.770470 -3.307511
      ESP Fit Center  310 is at   0.906895 -2.239282 -3.307511
      ESP Fit Center  311 is at   1.592252 -2.488732 -3.307511
      ESP Fit Center  312 is at   2.321594 -2.488732 -3.307511
      ESP Fit Center  313 is at   3.006951 -2.239282 -3.307511
      ESP Fit Center  314 is at   3.565659 -1.770470 -3.307511
      ESP Fit Center  315 is at   3.930330 -1.138842 -3.307511
      ESP Fit Center  316 is at   3.403467 -0.420581 -3.656820
      ESP Fit Center  317 is at   3.209666  0.302691 -3.656820
      ESP Fit Center  318 is at   2.680195  0.832163 -3.656820
      ESP Fit Center  319 is at   1.956923  1.025963 -3.656820
      ESP Fit Center  320 is at   1.233651  0.832163 -3.656820
      ESP Fit Center  321 is at   0.704180  0.302691 -3.656820
      ESP Fit Center  322 is at   0.510380 -0.420581 -3.656820
      ESP Fit Center  323 is at   0.704180 -1.143852 -3.656820
      ESP Fit Center  324 is at   1.233651 -1.673324 -3.656820
      ESP Fit Center  325 is at   1.956923 -1.867124 -3.656820
      ESP Fit Center  326 is at   2.680195 -1.673324 -3.656820
      ESP Fit Center  327 is at   3.209666 -1.143852 -3.656820
      ESP Fit Center  328 is at   2.694365 -0.420581 -3.871924
      ESP Fit Center  329 is at   2.325644  0.218062 -3.871924
      ESP Fit Center  330 is at   1.588202  0.218062 -3.871924
      ESP Fit Center  331 is at   1.219482 -0.420581 -3.871924
      ESP Fit Center  332 is at   1.588202 -1.059224 -3.871924
      ESP Fit Center  333 is at   2.325644 -1.059224 -3.871924
      ESP Fit Center  334 is at   1.956923 -0.420581 -3.944556
      ESP Fit Center  335 is at  -5.536869 -0.072801  0.243217
      ESP Fit Center  336 is at  -4.750292  1.197563 -0.486105
      ESP Fit Center  337 is at  -3.696090 -1.788928 -1.730137
      ESP Fit Center  338 is at  -2.943236 -1.680684 -1.730137
      ESP Fit Center  339 is at  -3.555340 -1.804590  2.256993
      ESP Fit Center  340 is at  -2.805280 -1.804590  2.107797
      ESP Fit Center  341 is at  -3.180310 -1.155020  2.107797
      ESP Fit Center  342 is at  -3.930369 -1.155020  2.107797
      ESP Fit Center  343 is at  -3.930369 -2.454161  2.107797
      ESP Fit Center  344 is at  -3.180310 -2.454161  2.107797
      ESP Fit Center  345 is at  -2.169410 -1.804590  1.682923
      ESP Fit Center  346 is at  -3.555340 -3.190519  1.682923
      ESP Fit Center  347 is at  -2.862375 -3.004840  1.682923
      ESP Fit Center  348 is at  -2.355090 -2.497555  1.682923
      ESP Fit Center  349 is at  -3.744620 -3.605474  1.047053
      ESP Fit Center  350 is at  -2.995771 -3.526767  1.047053
      ESP Fit Center  351 is at  -2.343675 -3.150280  1.047053
      ESP Fit Center  352 is at  -1.901088 -2.541110  1.047053
      ESP Fit Center  353 is at  -4.091719 -3.689768  0.296993
      ESP Fit Center  354 is at  -3.374494 -3.756229  0.296993
      ESP Fit Center  355 is at  -2.681693 -3.559110  0.296993
      ESP Fit Center  356 is at  -2.106882 -3.125034  0.296993
      ESP Fit Center  357 is at  -1.727694 -2.512624  0.296993
      ESP Fit Center  358 is at  -4.460742 -3.372792 -0.453066
      ESP Fit Center  359 is at  -3.744620 -3.605474 -0.453066
      ESP Fit Center  360 is at  -2.995771 -3.526767 -0.453066
      ESP Fit Center  361 is at  -2.343675 -3.150280 -0.453066
      ESP Fit Center  362 is at  -1.901088 -2.541110 -0.453066
      ESP Fit Center  363 is at  -4.941269 -1.804590 -1.088936
      ESP Fit Center  364 is at  -4.755590 -2.497555 -1.088936
      ESP Fit Center  365 is at  -4.248304 -3.004840 -1.088936
      ESP Fit Center  366 is at  -3.555340 -3.190519 -1.088936
      ESP Fit Center  367 is at  -2.862375 -3.004840 -1.088936
      ESP Fit Center  368 is at  -2.355090 -2.497555 -1.088936
      ESP Fit Center  369 is at  -3.930369 -2.454161 -1.513811
      ESP Fit Center  370 is at  -3.180310 -2.454161 -1.513811
      ESP Fit Center  371 is at  -0.341237  2.024256 -2.496356
      ESP Fit Center  372 is at  -0.861086  2.611044 -2.496356
      ESP Fit Center  373 is at  -1.594083  2.889033 -2.496356
      ESP Fit Center  374 is at  -2.372307  2.794539 -2.496356
      ESP Fit Center  375 is at  -3.017477  2.349211 -2.496356
      ESP Fit Center  376 is at  -3.381792  1.655066 -2.496356
      ESP Fit Center  377 is at  -3.381792  0.871126 -2.496356
      ESP Fit Center  378 is at  -3.017477  0.176981 -2.496356
      ESP Fit Center  379 is at  -2.372307 -0.268347 -2.496356
      ESP Fit Center  380 is at  -0.478030  1.263096 -3.169984
      ESP Fit Center  381 is at  -0.728882  2.035138 -3.169984
      ESP Fit Center  382 is at  -1.385620  2.512287 -3.169984
      ESP Fit Center  383 is at  -2.197394  2.512287 -3.169984
      ESP Fit Center  384 is at  -2.854132  2.035138 -3.169984
      ESP Fit Center  385 is at  -3.104984  1.263096 -3.169984
      ESP Fit Center  386 is at  -2.854132  0.491054 -3.169984
      ESP Fit Center  387 is at  -2.197394  0.013905 -3.169984
      ESP Fit Center  388 is at  -1.385620  0.013905 -3.169984
      ESP Fit Center  389 is at  -0.728882  0.491054 -3.169984
      ESP Fit Center  390 is at  -1.062582  1.263096 -3.636148
      ESP Fit Center  391 is at  -1.427045  1.894363 -3.636148
      ESP Fit Center  392 is at  -2.155969  1.894363 -3.636148
      ESP Fit Center  393 is at  -2.520432  1.263096 -3.636148
      ESP Fit Center  394 is at  -2.155969  0.631829 -3.636148
      ESP Fit Center  395 is at  -1.427045  0.631829 -3.636148
      ESP Fit Center  396 is at  -1.791507  1.263096 -3.802521
      ESP Fit Center  397 is at  -2.704573  1.975121  0.920376
      ESP Fit Center  398 is at  -2.340111  2.606388  0.754004
      ESP Fit Center  399 is at  -3.069035  2.606388  0.754004
      ESP Fit Center  400 is at  -3.433498  1.975121  0.754004
      ESP Fit Center  401 is at  -2.298686  3.224312  0.287839
      ESP Fit Center  402 is at  -3.110460  3.224312  0.287839
      ESP Fit Center  403 is at  -3.767198  2.747163  0.287839
      ESP Fit Center  404 is at  -4.018050  1.975121  0.287839
      ESP Fit Center  405 is at  -2.507149  3.601058 -0.385789
      ESP Fit Center  406 is at  -3.285373  3.506564 -0.385789
      ESP Fit Center  407 is at  -3.930543  3.061235 -0.385789
      ESP Fit Center  408 is at  -4.294858  2.367091 -0.385789
      ESP Fit Center  409 is at  -4.294858  1.583151 -0.385789
      ESP Fit Center  410 is at  -2.507149  3.601058 -1.133459
      ESP Fit Center  411 is at  -3.285373  3.506564 -1.133459
      ESP Fit Center  412 is at  -3.930543  3.061235 -1.133459
      ESP Fit Center  413 is at  -4.294858  2.367091 -1.133459
      ESP Fit Center  414 is at  -4.294858  1.583151 -1.133459
      ESP Fit Center  415 is at  -2.298686  3.224312 -1.807087
      ESP Fit Center  416 is at  -3.110460  3.224312 -1.807087
      ESP Fit Center  417 is at  -3.767198  2.747163 -1.807087
      ESP Fit Center  418 is at  -4.018050  1.975121 -1.807087
      ESP Fit Center  419 is at  -3.069035  2.606388 -2.273251
      ESP Fit Center  420 is at   1.839286  2.532818  2.648505
      ESP Fit Center  421 is at   1.110362  2.532818  2.648505
      ESP Fit Center  422 is at   2.537449  2.673593  2.182340
      ESP Fit Center  423 is at   1.880711  3.150741  2.182340
      ESP Fit Center  424 is at   1.068937  3.150741  2.182340
      ESP Fit Center  425 is at   2.405245  3.249498  1.508712
      ESP Fit Center  426 is at   1.672248  3.527487  1.508712
      ESP Fit Center  427 is at   0.894024  3.432994  1.508712
      ESP Fit Center  428 is at   2.405245  3.249498  0.761042
      ESP Fit Center  429 is at   1.672248  3.527487  0.761042
      ESP Fit Center  430 is at   0.894024  3.432994  0.761042
      ESP Fit Center  431 is at   0.967972  0.526391  3.842768
      ESP Fit Center  432 is at   1.696897  0.526391  3.676396
      ESP Fit Center  433 is at   1.332434  1.157659  3.676396
      ESP Fit Center  434 is at   0.603510  1.157659  3.676396
      ESP Fit Center  435 is at   0.239047  0.526391  3.676396
      ESP Fit Center  436 is at   0.603510 -0.104876  3.676396
      ESP Fit Center  437 is at   1.332434 -0.104876  3.676396
      ESP Fit Center  438 is at   2.030597  1.298434  3.210231
      ESP Fit Center  439 is at   1.373859  1.775582  3.210231
      ESP Fit Center  440 is at   0.562085  1.775582  3.210231
      ESP Fit Center  441 is at  -0.094653  1.298434  3.210231
      ESP Fit Center  442 is at  -0.345505  0.526391  3.210231
      ESP Fit Center  443 is at  -0.094653 -0.245651  3.210231
      ESP Fit Center  444 is at  -3.904371  0.232347  2.322268
      ESP Fit Center  445 is at  -3.175446  0.232347  2.155896
      ESP Fit Center  446 is at  -3.539909  0.863614  2.155896
      ESP Fit Center  447 is at  -4.268833  0.863614  2.155896
      ESP Fit Center  448 is at  -4.633296  0.232347  2.155896
      ESP Fit Center  449 is at  -4.268833 -0.398921  2.155896
      ESP Fit Center  450 is at  -3.539909 -0.398921  2.155896
      ESP Fit Center  451 is at  -2.841746  1.004389  1.689731
      ESP Fit Center  452 is at  -3.498484  1.481538  1.689731
      ESP Fit Center  453 is at  -4.310258  1.481538  1.689731
      ESP Fit Center  454 is at  -4.966996  1.004389  1.689731
      ESP Fit Center  455 is at  -5.217848  0.232347  1.689731
      ESP Fit Center  456 is at  -4.966996 -0.539696  1.689731
      ESP Fit Center  457 is at  -2.973950  1.580295  1.016103
      ESP Fit Center  458 is at  -3.706946  1.858284  1.016103
      ESP Fit Center  459 is at  -4.485171  1.763790  1.016103
      ESP Fit Center  460 is at  -5.130341  1.318461  1.016103
      ESP Fit Center  461 is at  -5.494656  0.624317  1.016103
      ESP Fit Center  462 is at  -5.494656 -0.159623  1.016103
      ESP Fit Center  463 is at  -4.485171  1.763790  0.268433
      ESP Fit Center  464 is at  -5.130341  1.318461  0.268433
      ESP Fit Center  465 is at  -5.494656  0.624317  0.268433
      ESP Fit Center  466 is at  -4.310258  1.481538 -0.405195
      ESP Fit Center  467 is at  -4.659439  1.234661 -0.678289
      ESP Fit Center  468 is at  -5.304609  0.789332 -0.678289
      ESP Fit Center  469 is at  -5.668924  0.095188 -0.678289
      ESP Fit Center  470 is at  -5.668924 -0.688752 -0.678289
      ESP Fit Center  471 is at  -4.659439  1.234661 -1.425959
      ESP Fit Center  472 is at  -5.304609  0.789332 -1.425959
      ESP Fit Center  473 is at  -5.668924  0.095188 -1.425959
      ESP Fit Center  474 is at  -5.668924 -0.688752 -1.425959
      ESP Fit Center  475 is at  -5.304609 -1.382897 -1.425959
      ESP Fit Center  476 is at  -4.659439 -1.828226 -1.425959
      ESP Fit Center  477 is at  -3.672752  0.952409 -2.099587
      ESP Fit Center  478 is at  -4.484526  0.952409 -2.099587
      ESP Fit Center  479 is at  -5.141264  0.475260 -2.099587
      ESP Fit Center  480 is at  -5.392116 -0.296782 -2.099587
      ESP Fit Center  481 is at  -5.141264 -1.068825 -2.099587
      ESP Fit Center  482 is at  -4.484526 -1.545973 -2.099587
      ESP Fit Center  483 is at  -3.672752 -1.545973 -2.099587
      ESP Fit Center  484 is at  -3.016014 -1.068825 -2.099587
      ESP Fit Center  485 is at  -3.349714 -0.296782 -2.565751
      ESP Fit Center  486 is at  -3.714177  0.334485 -2.565751
      ESP Fit Center  487 is at  -4.443101  0.334485 -2.565751
      ESP Fit Center  488 is at  -4.807564 -0.296782 -2.565751
      ESP Fit Center  489 is at  -4.443101 -0.928050 -2.565751
      ESP Fit Center  490 is at  -3.714177 -0.928050 -2.565751
      ESP Fit Center  491 is at  -4.078639 -0.296782 -2.732124
      ESP Fit Center  492 is at  -4.467828 -2.008320  2.230481
      ESP Fit Center  493 is at  -4.832290 -1.377053  2.064109
      ESP Fit Center  494 is at  -5.196752 -2.008320  2.064109
      ESP Fit Center  495 is at  -4.832290 -2.639588  2.064109
      ESP Fit Center  496 is at  -4.103365 -2.639588  2.064109
      ESP Fit Center  497 is at  -4.873714 -0.759130  1.597944
      ESP Fit Center  498 is at  -5.530453 -1.236278  1.597944
      ESP Fit Center  499 is at  -5.781305 -2.008320  1.597944
      ESP Fit Center  500 is at  -5.530453 -2.780363  1.597944
      ESP Fit Center  501 is at  -4.873714 -3.257511  1.597944
      ESP Fit Center  502 is at  -4.061941 -3.257511  1.597944
      ESP Fit Center  503 is at  -5.693798 -0.922206  0.924316
      ESP Fit Center  504 is at  -6.058113 -1.616350  0.924316
      ESP Fit Center  505 is at  -6.058113 -2.400290  0.924316
      ESP Fit Center  506 is at  -5.693798 -3.094435  0.924316
      ESP Fit Center  507 is at  -5.048628 -3.539764  0.924316
      ESP Fit Center  508 is at  -4.270403 -3.634257  0.924316
      ESP Fit Center  509 is at  -5.693798 -0.922206  0.176646
      ESP Fit Center  510 is at  -6.058113 -1.616350  0.176646
      ESP Fit Center  511 is at  -6.058113 -2.400290  0.176646
      ESP Fit Center  512 is at  -5.693798 -3.094435  0.176646
      ESP Fit Center  513 is at  -5.048628 -3.539764  0.176646
      ESP Fit Center  514 is at  -4.270403 -3.634257  0.176646
      ESP Fit Center  515 is at  -5.530453 -1.236278 -0.496982
      ESP Fit Center  516 is at  -5.781305 -2.008320 -0.496982
      ESP Fit Center  517 is at  -5.530453 -2.780363 -0.496982
      ESP Fit Center  518 is at  -4.873714 -3.257511 -0.496982
      ESP Fit Center  519 is at  -5.196752 -2.008320 -0.963146
      ESP Fit Center  520 is at  -4.832290 -2.639588 -0.963146
      ESP Fit Center  521 is at  -1.880566  3.664365 -1.034371
      ESP Fit Center  522 is at  -1.327631  3.479528 -1.766224
      ESP Fit Center  523 is at  -2.066569  3.540758 -1.766224
      ESP Fit Center  524 is at  -1.147338  3.066207 -2.426439
      ESP Fit Center  525 is at  -1.880566  3.212055 -2.426439
      ESP Fit Center  526 is at  -2.613794  3.066207 -2.426439
      ESP Fit Center  527 is at  -3.650736  2.029265 -2.426439
      ESP Fit Center  528 is at  -3.796584  1.296037 -2.426439
      ESP Fit Center  529 is at  -1.589298 -2.766655 -0.993407
      ESP Fit Center  530 is at  -2.680679 -2.240541 -1.718463
      ESP Fit Center  531 is at  -1.978807 -2.578545 -1.718463
      ESP Fit Center  532 is at  -2.874758 -1.249437 -2.333135
      ESP Fit Center  533 is at  -2.466634 -1.884491 -2.333135
      ESP Fit Center  534 is at  -1.779961 -2.198084 -2.333135
      ESP Fit Center  535 is at  -2.314354 -0.871992 -2.743847
      ESP Fit Center  536 is at  -1.951826 -1.499909 -2.743847
      ESP Fit Center  537 is at  -1.589298 -0.871992 -2.888069
      ESP Fit Center  538 is at  -1.326874  0.041586  3.052939
      ESP Fit Center  539 is at  -1.704881  0.696314  2.919633
      ESP Fit Center  540 is at  -2.082889  0.041586  2.919633
      ESP Fit Center  541 is at  -1.704881 -0.613142  2.919633
      ESP Fit Center  542 is at  -2.557360  0.752008  2.535794
      ESP Fit Center  543 is at  -2.747717  0.041586  2.535794
      ESP Fit Center  544 is at  -2.557360 -0.668836  2.535794
      ESP Fit Center  545 is at  -2.037295 -1.188900  2.535794
      ESP Fit Center  546 is at  -1.326874 -1.379257  2.535794
      ESP Fit Center  547 is at  -2.059444 -1.726994  1.947719
      ESP Fit Center  548 is at  -0.908358  0.582042  3.043883
      ESP Fit Center  549 is at   0.189423  3.468260  0.791469
      ESP Fit Center  550 is at  -0.941981  1.932203  3.431782
      ESP Fit Center  551 is at  -0.216925  1.932203  3.287559
      ESP Fit Center  552 is at  -0.579453  2.560120  3.287559
      ESP Fit Center  553 is at  -1.304509  2.560120  3.287559
      ESP Fit Center  554 is at  -1.667037  1.932203  3.287559
      ESP Fit Center  555 is at  -1.304509  1.304286  3.287559
      ESP Fit Center  556 is at  -0.579453  1.304286  3.287559
      ESP Fit Center  557 is at   0.185070  2.656515  2.876848
      ESP Fit Center  558 is at  -0.385438  3.150863  2.876848
      ESP Fit Center  559 is at  -1.132644  3.258295  2.876848
      ESP Fit Center  560 is at  -1.819317  2.944702  2.876848
      ESP Fit Center  561 is at  -2.227441  2.309648  2.876848
      ESP Fit Center  562 is at  -2.227441  1.554758  2.876848
      ESP Fit Center  563 is at  -1.819317  0.919704  2.876848
      ESP Fit Center  564 is at   0.149400  3.300752  2.262175
      ESP Fit Center  565 is at  -0.552472  3.638756  2.262175
      ESP Fit Center  566 is at  -1.331491  3.638756  2.262175
      ESP Fit Center  567 is at  -2.033363  3.300752  2.262175
      ESP Fit Center  568 is at  -2.519073  2.691690  2.262175
      ESP Fit Center  569 is at  -2.692421  1.932203  2.262175
      ESP Fit Center  570 is at  -0.216925  3.682643  1.537119
      ESP Fit Center  571 is at  -0.941981  3.826866  1.537119
      ESP Fit Center  572 is at  -1.667037  3.682643  1.537119
      ESP Fit Center  573 is at  -2.281710  3.271932  1.537119
      ESP Fit Center  574 is at  -2.692421  2.657259  1.537119
      ESP Fit Center  575 is at  -2.836644  1.932203  1.537119
      ESP Fit Center  576 is at  -0.552472  3.638756  0.812063
      ESP Fit Center  577 is at  -1.331491  3.638756  0.812063
      ESP Fit Center  578 is at  -2.033363  3.300752  0.812063
      ESP Fit Center  579 is at   0.085980  3.526826  0.603622
      ESP Fit Center  580 is at  -0.646590  3.672543  0.603622
      ESP Fit Center  581 is at  -1.379160  3.526826  0.603622
      ESP Fit Center  582 is at   0.441839  3.643460 -0.117759
      ESP Fit Center  583 is at  -0.268583  3.902033 -0.117759
      ESP Fit Center  584 is at  -1.024598  3.902033 -0.117759
      ESP Fit Center  585 is at  -1.735019  3.643460 -0.117759
      ESP Fit Center  586 is at   0.441839  3.643460 -0.885437
      ESP Fit Center  587 is at  -0.268583  3.902033 -0.885437
      ESP Fit Center  588 is at  -1.024598  3.902033 -0.885437
      ESP Fit Center  589 is at   0.085980  3.526826 -1.606818
      ESP Fit Center  590 is at  -0.646590  3.672543 -1.606818
      ESP Fit Center  591 is at   0.063832  2.988732 -2.194893
      ESP Fit Center  592 is at  -0.646590  3.179089 -2.194893
      ESP Fit Center  593 is at  -0.268583  2.412974 -2.578732
      ESP Fit Center  594 is at   0.708416  2.350051  3.086792
      ESP Fit Center  595 is at   1.956923 -0.420581  4.098435
      ESP Fit Center  596 is at   2.697184 -0.420581  4.033671
      ESP Fit Center  597 is at   2.327053  0.220504  4.033671
      ESP Fit Center  598 is at   1.586793  0.220504  4.033671
      ESP Fit Center  599 is at   1.216663 -0.420581  4.033671
      ESP Fit Center  600 is at   1.586793 -1.061665  4.033671
      ESP Fit Center  601 is at   2.327053 -1.061665  4.033671
      ESP Fit Center  602 is at   3.414952 -0.420581  3.841345
      ESP Fit Center  603 is at   3.219613  0.308434  3.841345
      ESP Fit Center  604 is at   2.685937  0.842109  3.841345
      ESP Fit Center  605 is at   1.956923  1.037448  3.841345
      ESP Fit Center  606 is at   0.498894 -0.420581  3.841345
      ESP Fit Center  607 is at   0.694233 -1.149595  3.841345
      ESP Fit Center  608 is at   1.227909 -1.683271  3.841345
      ESP Fit Center  609 is at   1.956923 -1.878609  3.841345
      ESP Fit Center  610 is at   2.685937 -1.683271  3.841345
      ESP Fit Center  611 is at   3.219613 -1.149595  3.841345
      ESP Fit Center  612 is at   4.088418 -0.420581  3.527302
      ESP Fit Center  613 is at   3.959874  0.308434  3.527302
      ESP Fit Center  614 is at   3.589743  0.949518  3.527302
      ESP Fit Center  615 is at   3.022671  1.425348  3.527302
      ESP Fit Center  616 is at   2.327053  1.678532  3.527302
      ESP Fit Center  617 is at  -0.174572 -0.420581  3.527302
      ESP Fit Center  618 is at  -0.046027 -1.149595  3.527302
      ESP Fit Center  619 is at   0.324103 -1.790679  3.527302
      ESP Fit Center  620 is at   0.891175 -2.266510  3.527302
      ESP Fit Center  621 is at   1.586793 -2.519694  3.527302
      ESP Fit Center  622 is at   2.327053 -2.519694  3.527302
      ESP Fit Center  623 is at   3.022671 -2.266510  3.527302
      ESP Fit Center  624 is at   3.589743 -1.790679  3.527302
      ESP Fit Center  625 is at   3.959874 -1.149595  3.527302
      ESP Fit Center  626 is at   4.697121 -0.420581  3.101085
      ESP Fit Center  627 is at   4.595507  0.318716  3.101085
      ESP Fit Center  628 is at   4.298201  1.003182  3.101085
      ESP Fit Center  629 is at   3.827254  1.582054  3.101085
      ESP Fit Center  630 is at   3.217592  2.012400  3.101085
      ESP Fit Center  631 is at   2.514433  2.262303  3.101085
      ESP Fit Center  632 is at   1.769925  2.313229  3.101085
      ESP Fit Center  633 is at  -0.757752 -0.047457  3.101085
      ESP Fit Center  634 is at  -0.757752 -0.793704  3.101085
      ESP Fit Center  635 is at  -0.556417 -1.512278  3.101085
      ESP Fit Center  636 is at  -0.168679 -2.149886  3.101085
      ESP Fit Center  637 is at   0.376705 -2.659240  3.101085
      ESP Fit Center  638 is at   1.039287 -3.002562  3.101085
      ESP Fit Center  639 is at   1.769925 -3.154390  3.101085
      ESP Fit Center  640 is at   2.514433 -3.103465  3.101085
      ESP Fit Center  641 is at   3.217592 -2.853562  3.101085
      ESP Fit Center  642 is at   3.827254 -2.423216  3.101085
      ESP Fit Center  643 is at   4.298201 -1.844343  3.101085
      ESP Fit Center  644 is at   4.595507 -1.159877  3.101085
      ESP Fit Center  645 is at   5.222563 -0.420581  2.575642
      ESP Fit Center  646 is at   5.140687  0.306093  2.575642
      ESP Fit Center  647 is at   4.899163  0.996328  2.575642
      ESP Fit Center  648 is at   4.510104  1.615513  2.575642
      ESP Fit Center  649 is at   3.993017  2.132600  2.575642
      ESP Fit Center  650 is at   3.373831  2.521660  2.575642
      ESP Fit Center  651 is at   2.683596  2.763183  2.575642
      ESP Fit Center  652 is at  -0.985317 -1.837489  2.575642
      ESP Fit Center  653 is at  -0.596257 -2.456674  2.575642
      ESP Fit Center  654 is at  -0.079170 -2.973761  2.575642
      ESP Fit Center  655 is at   0.540015 -3.362821  2.575642
      ESP Fit Center  656 is at   1.230250 -3.604345  2.575642
      ESP Fit Center  657 is at   1.956923 -3.686221  2.575642
      ESP Fit Center  658 is at   2.683596 -3.604345  2.575642
      ESP Fit Center  659 is at   3.373831 -3.362821  2.575642
      ESP Fit Center  660 is at   3.993017 -2.973761  2.575642
      ESP Fit Center  661 is at   4.510104 -2.456674  2.575642
      ESP Fit Center  662 is at   4.899163 -1.837489  2.575642
      ESP Fit Center  663 is at   5.140687 -1.147254  2.575642
      ESP Fit Center  664 is at   5.648781 -0.420581  1.966940
      ESP Fit Center  665 is at   5.577843  0.299665  1.966940
      ESP Fit Center  666 is at   5.367755  0.992232  1.966940
      ESP Fit Center  667 is at   5.026591  1.630506  1.966940
      ESP Fit Center  668 is at   4.567461  2.189957  1.966940
      ESP Fit Center  669 is at   4.008010  2.649087  1.966940
      ESP Fit Center  670 is at   3.369736  2.990252  1.966940
      ESP Fit Center  671 is at   2.677169  3.200340  1.966940
      ESP Fit Center  672 is at  -1.112745 -2.471667  1.966940
      ESP Fit Center  673 is at  -0.653615 -3.031119  1.966940
      ESP Fit Center  674 is at  -0.094163 -3.490249  1.966940
      ESP Fit Center  675 is at   0.544110 -3.831413  1.966940
      ESP Fit Center  676 is at   1.236677 -4.041501  1.966940
      ESP Fit Center  677 is at   1.956923 -4.112439  1.966940
      ESP Fit Center  678 is at   2.677169 -4.041501  1.966940
      ESP Fit Center  679 is at   3.369736 -3.831413  1.966940
      ESP Fit Center  680 is at   4.008010 -3.490249  1.966940
      ESP Fit Center  681 is at   4.567461 -3.031119  1.966940
      ESP Fit Center  682 is at   5.026591 -2.471667  1.966940
      ESP Fit Center  683 is at   5.367755 -1.833394  1.966940
      ESP Fit Center  684 is at   5.577843 -1.140826  1.966940
      ESP Fit Center  685 is at   5.962824 -0.420581  1.293473
      ESP Fit Center  686 is at   5.894616  0.315502  1.293473
      ESP Fit Center  687 is at   5.692314  1.026518  1.293473
      ESP Fit Center  688 is at   5.362809  1.688254  1.293473
      ESP Fit Center  689 is at   4.917320  2.278177  1.293473
      ESP Fit Center  690 is at   4.371018  2.776197  1.293473
      ESP Fit Center  691 is at   3.742507  3.165355  1.293473
      ESP Fit Center  692 is at   3.053190  3.432398  1.293473
      ESP Fit Center  693 is at  -1.448962 -2.529416  1.293473
      ESP Fit Center  694 is at  -1.003473 -3.119339  1.293473
      ESP Fit Center  695 is at  -0.457171 -3.617359  1.293473
      ESP Fit Center  696 is at   0.171339 -4.006516  1.293473
      ESP Fit Center  697 is at   0.860656 -4.273559  1.293473
[...]
 2814 Fit       0.008185
 2815 Fit       0.009787
 2816 Fit       0.011482
 2817 Fit      -0.016950
 2818 Fit      -0.018224
 2819 Fit      -0.017571
 2820 Fit      -0.015895
 2821 Fit      -0.014047
 2822 Fit      -0.012437
 2823 Fit      -0.011155
 2824 Fit      -0.010161
 2825 Fit      -0.009384
 2826 Fit      -0.008761
 2827 Fit      -0.008247
 2828 Fit      -0.007807
 2829 Fit      -0.007419
 2830 Fit      -0.007061
 2831 Fit      -0.006712
 2832 Fit      -0.006352
 2833 Fit      -0.005956
 2834 Fit      -0.005496
 2835 Fit      -0.005436
 2836 Fit      -0.004887
 2837 Fit      -0.004216
 2838 Fit      -0.003403
 2839 Fit      -0.002433
 2840 Fit      -0.001295
 2841 Fit       0.000013
 2842 Fit       0.001478
 2843 Fit       0.003066
 2844 Fit       0.004710
 2845 Fit       0.006321
 2846 Fit       0.007841
 2847 Fit       0.009335
 2848 Fit       0.011045
 2849 Fit      -0.021103
 2850 Fit      -0.017844
 2851 Fit      -0.015199
 2852 Fit      -0.013216
 2853 Fit      -0.011755
 2854 Fit      -0.010665
 2855 Fit      -0.009831
 2856 Fit      -0.009171
 2857 Fit      -0.008635
 2858 Fit      -0.008186
 2859 Fit      -0.007804
 2860 Fit      -0.007469
 2861 Fit      -0.007166
 2862 Fit      -0.006877
 2863 Fit      -0.006581
 2864 Fit      -0.006259
 2865 Fit      -0.005885
 2866 Fit      -0.005825
 2867 Fit      -0.005380
 2868 Fit      -0.004827
 2869 Fit      -0.004148
 2870 Fit      -0.003328
 2871 Fit      -0.002356
 2872 Fit      -0.001229
 2873 Fit       0.000049
 2874 Fit       0.001455
 2875 Fit       0.002941
 2876 Fit       0.004428
 2877 Fit       0.005819
 2878 Fit       0.007069
 2879 Fit       0.008283
 2880 Fit       0.009780
 2881 Fit      -0.020162
 2882 Fit      -0.016558
 2883 Fit      -0.014106
 2884 Fit      -0.012399
 2885 Fit      -0.011167
 2886 Fit      -0.010243
 2887 Fit      -0.009522
 2888 Fit      -0.008943
 2889 Fit      -0.008467
 2890 Fit      -0.008070
 2891 Fit      -0.007735
 2892 Fit      -0.007449
 2893 Fit      -0.007197
 2894 Fit      -0.006964
 2895 Fit      -0.006731
 2896 Fit      -0.006479
 2897 Fit      -0.006184
 2898 Fit      -0.006119
 2899 Fit      -0.005767
 2900 Fit      -0.005318
 2901 Fit      -0.004756
 2902 Fit      -0.004066
 2903 Fit      -0.003240
 2904 Fit      -0.002275
 2905 Fit      -0.001177
 2906 Fit       0.000033
 2907 Fit       0.001313
 2908 Fit       0.002589
 2909 Fit       0.003760
 2910 Fit       0.004731
 2911 Fit       0.005493
 2912 Fit       0.006217
 2913 Fit       0.007308
 2914 Fit      -0.024154
 2915 Fit      -0.018703
 2916 Fit      -0.015386
 2917 Fit      -0.013237
 2918 Fit      -0.011760
 2919 Fit      -0.010687
 2920 Fit      -0.009867
 2921 Fit      -0.009218
 2922 Fit      -0.008691
 2923 Fit      -0.008257
 2924 Fit      -0.007898
 2925 Fit      -0.007603
 2926 Fit      -0.007359
 2927 Fit      -0.007155
 2928 Fit      -0.006974
 2929 Fit      -0.006800
 2930 Fit      -0.006614
 2931 Fit      -0.006394
 2932 Fit      -0.006323
 2933 Fit      -0.006063
 2934 Fit      -0.005719
 2935 Fit      -0.005276
 2936 Fit      -0.004723
 2937 Fit      -0.004051
 2938 Fit      -0.003262
 2939 Fit      -0.002364
 2940 Fit      -0.001378
 2941 Fit      -0.000344
 2942 Fit       0.000670
 2943 Fit       0.001570
 2944 Fit       0.002244
 2945 Fit       0.002607
 2946 Fit       0.002669
 2947 Fit       0.002626
 2948 Fit       0.002956
 2949 Fit      -0.020604
 2950 Fit      -0.016367
 2951 Fit      -0.013812
 2952 Fit      -0.012135
 2953 Fit      -0.010949
 2954 Fit      -0.010060
 2955 Fit      -0.009361
 2956 Fit      -0.008794
 2957 Fit      -0.008328
 2958 Fit      -0.007945
 2959 Fit      -0.007633
 2960 Fit      -0.007383
 2961 Fit      -0.007186
 2962 Fit      -0.007030
 2963 Fit      -0.006903
 2964 Fit      -0.006787
 2965 Fit      -0.006665
 2966 Fit      -0.006517
 2967 Fit      -0.006449
 2968 Fit      -0.006267
 2969 Fit      -0.006008
 2970 Fit      -0.005657
 2971 Fit      -0.005204
 2972 Fit      -0.004645
 2973 Fit      -0.003983
 2974 Fit      -0.003233
 2975 Fit      -0.002424
 2976 Fit      -0.001606
 2977 Fit      -0.000854
 2978 Fit      -0.000273
 2979 Fit       0.000011
 2980 Fit      -0.000115
 2981 Fit      -0.000700
 2982 Fit      -0.001623
 2983 Fit      -0.020001
 2984 Fit      -0.015745
 2985 Fit      -0.013279
 2986 Fit      -0.011688
 2987 Fit      -0.010568
 2988 Fit      -0.009722
 2989 Fit      -0.009052
 2990 Fit      -0.008504
 2991 Fit      -0.008053
 2992 Fit      -0.007684
 2993 Fit      -0.007389
 2994 Fit      -0.007160
 2995 Fit      -0.006991
 2996 Fit      -0.006870
 2997 Fit      -0.006785
 2998 Fit      -0.006719
 2999 Fit      -0.006655
 3000 Fit      -0.006572
 3001 Fit      -0.006509
 3002 Fit      -0.006403
 3003 Fit      -0.006228
 3004 Fit      -0.005970
 3005 Fit      -0.005622
 3006 Fit      -0.005182
 3007 Fit      -0.004657
 3008 Fit      -0.004065
 3009 Fit      -0.003443
 3010 Fit      -0.002843
 3011 Fit      -0.002347
 3012 Fit      -0.002060
 3013 Fit      -0.002109
 3014 Fit      -0.002619
 3015 Fit      -0.003661
 3016 Fit      -0.005142
 3017 Fit      -0.017921
 3018 Fit      -0.014394
 3019 Fit      -0.012328
 3020 Fit      -0.010975
 3021 Fit      -0.010001
 3022 Fit      -0.009248
 3023 Fit      -0.008637
 3024 Fit      -0.008129
 3025 Fit      -0.007708
 3026 Fit      -0.007364
 3027 Fit      -0.007092
 3028 Fit      -0.006889
 3029 Fit      -0.006749
 3030 Fit      -0.006662
 3031 Fit      -0.006617
 3032 Fit      -0.006598
 3033 Fit      -0.006587
 3034 Fit      -0.006564
 3035 Fit      -0.006517
 3036 Fit      -0.006480
 3037 Fit      -0.006384
 3038 Fit      -0.006216
 3039 Fit      -0.005971
 3040 Fit      -0.005648
 3041 Fit      -0.005257
 3042 Fit      -0.004820
 3043 Fit      -0.004373
 3044 Fit      -0.003971
 3045 Fit      -0.003689
 3046 Fit      -0.003623
 3047 Fit      -0.003882
 3048 Fit      -0.004569
 3049 Fit      -0.005719
 3050 Fit      -0.007169
 3051 Fit      -0.018758
 3052 Fit      -0.014789
 3053 Fit      -0.012509
 3054 Fit      -0.011068
 3055 Fit      -0.010063
 3056 Fit      -0.009296
 3057 Fit      -0.008673
 3058 Fit      -0.008148
 3059 Fit      -0.007700
 3060 Fit      -0.007323
 3061 Fit      -0.007013
 3062 Fit      -0.006772
 3063 Fit      -0.006598
 3064 Fit      -0.006488
 3065 Fit      -0.006434
 3066 Fit      -0.006424
 3067 Fit      -0.006446
 3068 Fit      -0.006481
 3069 Fit      -0.006511
 3070 Fit      -0.006487
 3071 Fit      -0.006509
 3072 Fit      -0.006478
 3073 Fit      -0.006381
 3074 Fit      -0.006213
 3075 Fit      -0.005978
 3076 Fit      -0.005689
 3077 Fit      -0.005375
 3078 Fit      -0.005077
 3079 Fit      -0.004858
 3080 Fit      -0.004793
 3081 Fit      -0.004970
 3082 Fit      -0.005466
 3083 Fit      -0.006298
 3084 Fit      -0.007306
 3085 Fit      -0.007901
 3086 Fit      -0.013890
 3087 Fit      -0.012383
 3088 Fit      -0.011102
 3089 Fit      -0.010149
 3090 Fit      -0.009416
 3091 Fit      -0.008814
 3092 Fit      -0.008292
 3093 Fit      -0.007828
 3094 Fit      -0.007414
 3095 Fit      -0.007054
 3096 Fit      -0.006753
 3097 Fit      -0.006517
 3098 Fit      -0.006348
 3099 Fit      -0.006247
 3100 Fit      -0.006208
 3101 Fit      -0.006222
 3102 Fit      -0.006275
 3103 Fit      -0.006350
 3104 Fit      -0.006428
 3105 Fit      -0.006431
 3106 Fit      -0.006505
 3107 Fit      -0.006531
 3108 Fit      -0.006500
 3109 Fit      -0.006405
 3110 Fit      -0.006254
 3111 Fit      -0.006064
 3112 Fit      -0.005864
 3113 Fit      -0.005698
 3114 Fit      -0.005622
 3115 Fit      -0.005698
 3116 Fit      -0.005974
 3117 Fit      -0.006439
 3118 Fit      -0.006940
 3119 Fit      -0.007010
 3120 Fit      -0.005661
 3121 Fit      -0.005240
 3122 Fit      -0.007592
 3123 Fit      -0.008350
 3124 Fit      -0.008459
 3125 Fit      -0.008312
 3126 Fit      -0.008052
 3127 Fit      -0.007740
 3128 Fit      -0.007406
 3129 Fit      -0.007073
 3130 Fit      -0.006762
 3131 Fit      -0.006489
 3132 Fit      -0.006270
 3133 Fit      -0.006112
 3134 Fit      -0.006021
 3135 Fit      -0.005996
 3136 Fit      -0.006028
 3137 Fit      -0.006105
 3138 Fit      -0.006211
 3139 Fit      -0.006327
 3140 Fit      -0.006360
 3141 Fit      -0.006477
 3142 Fit      -0.006552
 3143 Fit      -0.006573
 3144 Fit      -0.006538
 3145 Fit      -0.006454
 3146 Fit      -0.006342
 3147 Fit      -0.006233
 3148 Fit      -0.006167
 3149 Fit      -0.006184
 3150 Fit      -0.006302
 3151 Fit      -0.006475
 3152 Fit      -0.006516
 3153 Fit      -0.005970
 3154 Fit      -0.004024
 3155 Fit       0.004880
 3156 Fit      -0.000354
 3157 Fit      -0.003733
 3158 Fit      -0.005606
 3159 Fit      -0.006532
 3160 Fit      -0.006917
 3161 Fit      -0.006997
 3162 Fit      -0.006904
 3163 Fit      -0.006718
 3164 Fit      -0.006492
 3165 Fit      -0.006266
 3166 Fit      -0.006068
 3167 Fit      -0.005919
 3168 Fit      -0.005831
 3169 Fit      -0.005808
 3170 Fit      -0.005849
 3171 Fit      -0.005942
 3172 Fit      -0.006072
 3173 Fit      -0.006218
 3174 Fit      -0.006281
 3175 Fit      -0.006433
 3176 Fit      -0.006546
 3177 Fit      -0.006607
 3178 Fit      -0.006615
 3179 Fit      -0.006579
 3180 Fit      -0.006520
 3181 Fit      -0.006464
 3182 Fit      -0.006431
 3183 Fit      -0.006408
 3184 Fit      -0.006301
 3185 Fit      -0.005862
 3186 Fit      -0.004613
 3187 Fit      -0.001866
 3188 Fit       0.008001
 3189 Fit       0.003420
 3190 Fit      -0.000357
 3191 Fit      -0.003022
 3192 Fit      -0.004678
 3193 Fit      -0.005598
 3194 Fit      -0.006039
 3195 Fit      -0.006183
 3196 Fit      -0.006154
 3197 Fit      -0.006037
 3198 Fit      -0.005892
 3199 Fit      -0.005763
 3200 Fit      -0.005677
 3201 Fit      -0.005652
 3202 Fit      -0.005692
 3203 Fit      -0.005792
 3204 Fit      -0.005937
 3205 Fit      -0.006108
 3206 Fit      -0.006195
 3207 Fit      -0.006371
 3208 Fit      -0.006509
 3209 Fit      -0.006595
 3210 Fit      -0.006627
 3211 Fit      -0.006612
 3212 Fit      -0.006560
 3213 Fit      -0.006472
 3214 Fit      -0.006308
 3215 Fit      -0.005946
 3216 Fit      -0.005129
 3217 Fit      -0.003455
 3218 Fit      -0.000514
 3219 Fit       0.003729
 3220 Fit       0.007937
 3221 Fit       0.004782
 3222 Fit       0.001602
 3223 Fit      -0.001108
 3224 Fit      -0.003105
 3225 Fit      -0.004403
 3226 Fit      -0.005152
 3227 Fit      -0.005520
 3228 Fit      -0.005650
 3229 Fit      -0.005648
 3230 Fit      -0.005591
 3231 Fit      -0.005537
 3232 Fit      -0.005521
 3233 Fit      -0.005562
 3234 Fit      -0.005663
 3235 Fit      -0.005816
 3236 Fit      -0.006002
 3237 Fit      -0.006098
 3238 Fit      -0.006289
 3239 Fit      -0.006436
 3240 Fit      -0.006523
 3241 Fit      -0.006539
 3242 Fit      -0.006479
 3243 Fit      -0.006319
 3244 Fit      -0.005986
 3245 Fit      -0.005317
 3246 Fit      -0.004056
 3247 Fit      -0.001958
 3248 Fit       0.000887
 3249 Fit       0.003681
 3250 Fit       0.005139
 3251 Fit       0.004734
 3252 Fit       0.003039
 3253 Fit       0.000837
 3254 Fit      -0.001282
 3255 Fit      -0.002969
 3256 Fit      -0.004125
 3257 Fit      -0.004815
 3258 Fit      -0.005169
 3259 Fit      -0.005317
 3260 Fit      -0.005364
 3261 Fit      -0.005387
 3262 Fit      -0.005437
 3263 Fit      -0.005539
 3264 Fit      -0.005695
 3265 Fit      -0.005890
 3266 Fit      -0.005978
 3267 Fit      -0.006167
 3268 Fit      -0.006298
 3269 Fit      -0.006342
 3270 Fit      -0.006270
 3271 Fit      -0.006034
 3272 Fit      -0.005537
 3273 Fit      -0.004620
 3274 Fit      -0.003141
 3275 Fit      -0.001211
 3276 Fit       0.000572
 3277 Fit       0.001395
 3278 Fit       0.000976
 3279 Fit      -0.000286
 3280 Fit      -0.001804
 3281 Fit      -0.003141
 3282 Fit      -0.004103
 3283 Fit      -0.004692
 3284 Fit      -0.005011
 3285 Fit      -0.005175
 3286 Fit      -0.005285
 3287 Fit      -0.005406
 3288 Fit      -0.005567
 3289 Fit      -0.005766
 3290 Fit      -0.005815
 3291 Fit      -0.005986
 3292 Fit      -0.006049
 3293 Fit      -0.005938
 3294 Fit      -0.005565
 3295 Fit      -0.004809
 3296 Fit      -0.003606
 3297 Fit      -0.002200
 3298 Fit      -0.001241
 3299 Fit      -0.001242
 3300 Fit      -0.002049
 3301 Fit      -0.003119
 3302 Fit      -0.004023
 3303 Fit      -0.004617
 3304 Fit      -0.004964
 3305 Fit      -0.005186
 3306 Fit      -0.005384
 3307 Fit      -0.005598
 3308 Fit      -0.005580
 3309 Fit      -0.005686
 3310 Fit      -0.005539
 3311 Fit      -0.005001
 3312 Fit      -0.004048
 3313 Fit      -0.003089
 3314 Fit      -0.002829
 3315 Fit      -0.003361
 3316 Fit      -0.004123
 3317 Fit      -0.004701
 3318 Fit      -0.005073
 3319 Fit      -0.005352
 3320 Fit      -0.005231
 3321 Fit      -0.005115
 3322 Fit      -0.004421
 3323 Fit      -0.003942
 3324 Fit      -0.004365
 3325 Fit      -0.004921
 3326 Fit      -0.004710
 3327 Fit       0.022255
 3328 Fit       0.018986
 3329 Fit       0.019109
 3330 Fit       0.020318
 3331 Fit       0.022837
 3332 Fit       0.019900
 3333 Fit       0.019136
 3334 Fit       0.021788
 3335 Fit       0.001447
 3336 Fit      -0.001610
 3337 Fit      -0.010216
 3338 Fit      -0.018951
 3339 Fit      -0.013998
 3340 Fit      -0.004589
 3341 Fit      -0.001029
 3342 Fit      -0.006221
 3343 Fit      -0.014785
 3344 Fit       0.007133
 3345 Fit      -0.001963
 3346 Fit      -0.010674
 3347 Fit      -0.018348
 3348 Fit      -0.004088
 3349 Fit      -0.012664
 3350 Fit      -0.019922
 3351 Fit      -0.004378
 3352 Fit      -0.012727
 3353 Fit      -0.019756
 3354 Fit      -0.002985
 3355 Fit      -0.011189
 3356 Fit      -0.018095
 3357 Fit      -0.023808
 3358 Fit      -0.006114
 3359 Fit      -0.013606
 3360 Fit      -0.019765
 3361 Fit       0.000827
 3362 Fit      -0.007271
 3363 Fit      -0.014131
 3364 Fit      -0.019629
 3365 Fit       0.000980
 3366 Fit      -0.006482
 3367 Fit      -0.012867
 3368 Fit      -0.017873
 3369 Fit       0.005622
 3370 Fit      -0.001519
 3371 Fit      -0.008176
 3372 Fit      -0.013592
 3373 Fit      -0.017265
 3374 Fit       0.005763
 3375 Fit      -0.000743
 3376 Fit      -0.006909
 3377 Fit      -0.011624
 3378 Fit      -0.013947
 3379 Fit       0.003805
 3380 Fit      -0.002482
 3381 Fit      -0.007226
 3382 Fit      -0.008541
 3383 Fit       0.002430
 3384 Fit       0.006139
 3385 Fit       0.009559
 3386 Fit       0.012515
 3387 Fit       0.014908
 3388 Fit       0.016514
 3389 Fit       0.016816
 3390 Fit       0.015340
 3391 Fit       0.012512
 3392 Fit       0.004849
 3393 Fit       0.008117
 3394 Fit       0.011095
 3395 Fit       0.013218
 3396 Fit       0.013898
 3397 Fit       0.012650
 3398 Fit       0.006749
 3399 Fit       0.009586
 3400 Fit       0.011316
 3401 Fit       0.010310
 3402 Fit       0.008682
 3403 Fit       0.015824
 3404 Fit       0.011165
 3405 Fit       0.013307
 3406 Fit       0.015536
 3407 Fit       0.018230
 3408 Fit       0.008604
 3409 Fit       0.011512
 3410 Fit       0.013909
 3411 Fit       0.016225
 3412 Fit       0.018860
 3413 Fit       0.005973
 3414 Fit       0.009729
 3415 Fit       0.012518
 3416 Fit       0.014938
 3417 Fit       0.017381
 3418 Fit       0.020215
 3419 Fit       0.005397
 3420 Fit       0.009250
 3421 Fit       0.012127
 3422 Fit       0.014598
 3423 Fit       0.017040
 3424 Fit       0.019816
 3425 Fit       0.006873
 3426 Fit       0.010172
 3427 Fit       0.012841
 3428 Fit       0.015278
 3429 Fit       0.017822
 3430 Fit       0.020904
 3431 Fit       0.011320
 3432 Fit       0.014092
 3433 Fit       0.016875
 3434 Fit       0.001854
 3435 Fit       0.002902
 3436 Fit       0.007056
 3437 Fit       0.007308
 3438 Fit       0.002681
 3439 Fit      -0.005798
 3440 Fit       0.006806
 3441 Fit       0.009793
 3442 Fit       0.010960
 3443 Fit       0.011624
 3444 Fit       0.011832
 3445 Fit       0.012721
 3446 Fit       0.013132
 3447 Fit       0.013518
 3448 Fit       0.014215
 3449 Fit       0.015631
 3450 Fit       0.018048
 3451 Fit       0.015751
 3452 Fit       0.015380
 3453 Fit       0.015251
 3454 Fit       0.015505
 3455 Fit       0.016432
 3456 Fit       0.018594
 3457 Fit       0.017961
 3458 Fit       0.017105
 3459 Fit       0.016827
 3460 Fit       0.017307
 3461 Fit       0.019014
 3462 Fit       0.019157
 3463 Fit       0.018323
 3464 Fit       0.018534
 3465 Fit       0.020537
 3466 Fit       0.018739
 3467 Fit       0.018017
 3468 Fit       0.018043
 3469 Fit       0.018549
 3470 Fit       0.018995
 3471 Fit       0.018981
 3472 Fit       0.017611
 3473 Fit       0.016846
 3474 Fit       0.016364
 3475 Fit       0.015723
 3476 Fit       0.014153
 3477 Fit       0.010456
 3478 Fit       0.019552
 3479 Fit       0.017578
 3480 Fit       0.016265
 3481 Fit       0.015165
 3482 Fit       0.013712
 3483 Fit       0.011192
 3484 Fit       0.007241
 3485 Fit       0.003200
 3486 Fit       0.019672
 3487 Fit       0.017177
 3488 Fit       0.015372
 3489 Fit       0.013546
 3490 Fit       0.011071
 3491 Fit       0.008464
 3492 Fit       0.008403
 3493 Fit       0.016587
 3494 Fit       0.018669
 3495 Fit       0.016704
 3496 Fit       0.014381
 3497 Fit       0.012217
 3498 Fit       0.012408
 3499 Fit       0.014942
 3500 Fit       0.007259
 3501 Fit       0.009825
 3502 Fit       0.005390
 3503 Fit       0.014268
 3504 Fit       0.015943
 3505 Fit       0.014614
 3506 Fit       0.010390
 3507 Fit       0.003155
 3508 Fit       0.019578
 3509 Fit       0.020259
 3510 Fit       0.019604
 3511 Fit       0.017505
 3512 Fit       0.013792
 3513 Fit       0.008237
 3514 Fit       0.000556
 3515 Fit       0.023251
 3516 Fit       0.023019
 3517 Fit       0.022054
 3518 Fit       0.020181
 3519 Fit       0.017238
 3520 Fit       0.013043
 3521 Fit       0.007370
 3522 Fit      -0.000082
 3523 Fit       0.024812
 3524 Fit       0.023896
 3525 Fit       0.022291
 3526 Fit       0.019805
 3527 Fit       0.016243
 3528 Fit       0.011385
 3529 Fit       0.004944
 3530 Fit       0.025232
 3531 Fit       0.023982
 3532 Fit       0.022114
 3533 Fit       0.019405
 3534 Fit       0.015627
 3535 Fit       0.010524
 3536 Fit       0.003772
 3537 Fit       0.023873
 3538 Fit       0.021957
 3539 Fit       0.019337
 3540 Fit       0.015724
 3541 Fit       0.010828
 3542 Fit       0.004308
 3543 Fit       0.019651
 3544 Fit       0.016057
 3545 Fit       0.011021
 3546 Fit       0.013689
 -----------------------------------------------------------------
 Leave Link  602 at Fri Jan 17 11:54:40 2014, MaxMem=   235929600 cpu:         0.8

 Test job not archived.
 1\1\GINC-G31\SP\RHF\Gen\C5H9I1O3\KOLAR\17-Jan-2014\0\\# hf/gen pseudo=
 read pop=(mk, readradii) iop(6/33=2,6/41=5,6/42=2)\\na resp\\0,1\C,0,-
 1.880566,1.296037,-1.034371\C,0,-2.054728,-0.085351,-0.386686\H,0,-1.5
 89298,-0.871992,-0.993407\O,0,-1.326874,0.041586,0.842499\C,0,-0.54243
 1,1.215846,0.791469\H,0,-0.941981,1.932203,1.537119\O,0,-0.64659,1.758
 246,-0.501598\C,0,0.906528,0.972152,1.170774\I,0,1.956923,-0.420581,-0
 .164556\C,0,-3.503986,-0.452813,-0.121444\O,0,-3.55534,-1.80459,0.2969
 93\H,0,-1.791507,1.263096,-2.122521\H,0,-2.704573,1.975121,-0.759624\H
 ,0,1.474824,1.90155,1.134877\H,0,0.967972,0.526391,2.162768\H,0,-3.904
 371,0.232347,0.642268\H,0,-4.078639,-0.296782,-1.052124\H,0,-4.467828,
 -2.00832,0.550481\\Version=AM64L-G09RevD.01\State=1-A\HF=-430.2850031\
 RMSD=7.460e-09\Dipole=-1.5499121,0.8277461,0.1093693\Quadrupole=7.3581
 018,-5.9115215,-1.4465802,-0.5106464,2.6175392,3.0298771\PG=C01 [X(C5H
 9I1O3)]\\@


 MY DESCRIPTION OF EXPERIENCE IS NOT WHAT HAPPENS
 TO A MAN.  EXPERIENCE IS WHAT A MAN DOES WITH WHAT
 HAPPENS TO HIM.
                         - CHUCK KNOX, SEATTLE SEAHAWKS, 1985
 Job cpu time:       0 days  0 hours  0 minutes  9.2 seconds.
 File lengths (MBytes):  RWF=      9 Int=      0 D2E=      0 Chk=      2 Scr=      1
 Normal termination of Gaussian 09 at Fri Jan 17 11:54:40 2014.
8.79user 0.43system 0:09.30elapsed 99%CPU (0avgtext+0avgdata 1694336maxresident)k
8inputs+17736outputs (0major+259098minor)pagefaults 0swaps
