Linux g33 2.6.38.6-client #1 SMP Tue Jun 12 11:27:21 CEST 2012 x86_64 GNU/Linux
Thu Jan 16 22:36:46 CET 2014

 Entering Gaussian System, Link 0=/usr/local/programs/common/gaussian/gaussian09_d01/arch/amd64-pgi_10.4.0-acml/g09/g09
 Initial command:
 /usr/local/programs/common/gaussian/gaussian09_d01/arch/amd64-pgi_10.4.0-acml/g09/l1.exe "/scratch/kolar/g09_26162/Gau-1897.inp" -scrdir="/scratch/kolar/g09_26162/"
 Entering Link 1 = /usr/local/programs/common/gaussian/gaussian09_d01/arch/amd64-pgi_10.4.0-acml/g09/l1.exe PID=      1907.
  
 Copyright (c) 1988,1990,1992,1993,1995,1998,2003,2009,2013,
            Gaussian, Inc.  All Rights Reserved.
  
 This is part of the Gaussian(R) 09 program.  It is based on
 the Gaussian(R) 03 system (copyright 2003, Gaussian, Inc.),
 the Gaussian(R) 98 system (copyright 1998, Gaussian, Inc.),
 the Gaussian(R) 94 system (copyright 1995, Gaussian, Inc.),
 the Gaussian 92(TM) system (copyright 1992, Gaussian, Inc.),
 the Gaussian 90(TM) system (copyright 1990, Gaussian, Inc.),
 the Gaussian 88(TM) system (copyright 1988, Gaussian, Inc.),
 the Gaussian 86(TM) system (copyright 1986, Carnegie Mellon
 University), and the Gaussian 82(TM) system (copyright 1983,
 Carnegie Mellon University). Gaussian is a federally registered
 trademark of Gaussian, Inc.
  
 This software contains proprietary and confidential information,
 including trade secrets, belonging to Gaussian, Inc.
  
 This software is provided under written license and may be
 used, copied, transmitted, or stored only in accord with that
 written license.
  
 The following legend is applicable only to US Government
 contracts under FAR:
  
                    RESTRICTED RIGHTS LEGEND
  
 Use, reproduction and disclosure by the US Government is
 subject to restrictions as set forth in subparagraphs (a)
 and (c) of the Commercial Computer Software - Restricted
 Rights clause in FAR 52.227-19.
  
 Gaussian, Inc.
 340 Quinnipiac St., Bldg. 40, Wallingford CT 06492
  
  
 ---------------------------------------------------------------
 Warning -- This program may not be used in any manner that
 competes with the business of Gaussian, Inc. or will provide
 assistance to any competitor of Gaussian, Inc.  The licensee
 of this program is prohibited from giving any competitor of
 Gaussian, Inc. access to this program.  By using this program,
 the user acknowledges that Gaussian, Inc. is engaged in the
 business of creating and licensing software in the field of
 computational chemistry and represents and warrants to the
 licensee that it is not a competitor of Gaussian, Inc. and that
 it will not use this program in any manner prohibited above.
 ---------------------------------------------------------------
  

 Cite this work as:
 Gaussian 09, Revision D.01,
 M. J. Frisch, G. W. Trucks, H. B. Schlegel, G. E. Scuseria, 
 M. A. Robb, J. R. Cheeseman, G. Scalmani, V. Barone, B. Mennucci, 
 G. A. Petersson, H. Nakatsuji, M. Caricato, X. Li, H. P. Hratchian, 
 A. F. Izmaylov, J. Bloino, G. Zheng, J. L. Sonnenberg, M. Hada, 
 M. Ehara, K. Toyota, R. Fukuda, J. Hasegawa, M. Ishida, T. Nakajima, 
 Y. Honda, O. Kitao, H. Nakai, T. Vreven, J. A. Montgomery, Jr., 
 J. E. Peralta, F. Ogliaro, M. Bearpark, J. J. Heyd, E. Brothers, 
 K. N. Kudin, V. N. Staroverov, T. Keith, R. Kobayashi, J. Normand, 
 K. Raghavachari, A. Rendell, J. C. Burant, S. S. Iyengar, J. Tomasi, 
 M. Cossi, N. Rega, J. M. Millam, M. Klene, J. E. Knox, J. B. Cross, 
 V. Bakken, C. Adamo, J. Jaramillo, R. Gomperts, R. E. Stratmann, 
 O. Yazyev, A. J. Austin, R. Cammi, C. Pomelli, J. W. Ochterski, 
 R. L. Martin, K. Morokuma, V. G. Zakrzewski, G. A. Voth, 
 P. Salvador, J. J. Dannenberg, S. Dapprich, A. D. Daniels, 
 O. Farkas, J. B. Foresman, J. V. Ortiz, J. Cioslowski, 
 and D. J. Fox, Gaussian, Inc., Wallingford CT, 2013.
 
 ******************************************
 Gaussian 09:  AM64L-G09RevD.01 24-Apr-2013
                16-Jan-2014 
 ******************************************
 %mem=1800mb
 -----------------------------------------
 # hf/gen pop=mk iop(6/33=2,6/41=5,6/42=2)
 -----------------------------------------
 1/38=1/1;
 2/12=2,17=6,18=5,40=1/2;
 3/5=7,11=9,16=1,25=1,30=1/1,2,3;
 4//1;
 5/5=2,38=5/2;
 6/7=2,8=2,9=2,10=2,15=8,20=1,28=1,33=2,41=5,42=2/1,2;
 99/5=1,9=1/99;
 -------
 na resp
 -------
 Symbolic Z-matrix:
 Charge =  0 Multiplicity = 1
 6                     6.30191  -0.96447   0.0001 
 6                     4.97649  -1.47955   0.00048 
 6                     4.01011  -0.50277   0.00004 
 16                    4.74838   1.08835  -0.00024 
 6                     6.33969   0.40435  -0.00061 
 6                     2.55348  -0.79613   0.00007 
 8                     2.13258  -1.93861   0.00017 
 7                     1.72694   0.32284   0.00013 
 7                     0.37977   0.19162   0.00018 
 6                    -0.30513   1.28119   0.00027 
 6                    -1.74429   1.29364   0.00019 
 6                    -2.63618   2.33905   0.00012 
 6                    -3.94292   1.76879   0.00029 
 6                    -3.74505   0.4186   -0.00001 
 8                    -2.42949   0.10349  -0.00002 
 35                   -4.95211  -1.00148  -0.00018 
 1                     7.19218  -1.58356   0.00023 
 1                     4.71452  -2.53072   0.00092 
 1                     7.20454   1.05448  -0.0011 
 1                     2.13235   1.25818   0.00026 
 1                     0.16507   2.27415   0.00028 
 1                    -2.38457   3.39089   0.00015 
 1                    -4.89483   2.27801   0.00044 
 
                          Input orientation:                          
 ---------------------------------------------------------------------
 Center     Atomic      Atomic             Coordinates (Angstroms)
 Number     Number       Type             X           Y           Z
 ---------------------------------------------------------------------
      1          6           0        6.301907   -0.964465    0.000100
      2          6           0        4.976490   -1.479545    0.000481
      3          6           0        4.010111   -0.502768    0.000042
      4         16           0        4.748379    1.088352   -0.000244
      5          6           0        6.339688    0.404354   -0.000612
      6          6           0        2.553479   -0.796125    0.000074
      7          8           0        2.132579   -1.938611    0.000165
      8          7           0        1.726943    0.322844    0.000134
      9          7           0        0.379770    0.191624    0.000180
     10          6           0       -0.305126    1.281190    0.000267
     11          6           0       -1.744294    1.293637    0.000187
     12          6           0       -2.636183    2.339046    0.000116
     13          6           0       -3.942919    1.768792    0.000290
     14          6           0       -3.745045    0.418603   -0.000007
     15          8           0       -2.429488    0.103490   -0.000018
     16         35           0       -4.952106   -1.001476   -0.000179
     17          1           0        7.192177   -1.583561    0.000226
     18          1           0        4.714524   -2.530721    0.000920
     19          1           0        7.204539    1.054483   -0.001100
     20          1           0        2.132354    1.258177    0.000262
     21          1           0        0.165071    2.274153    0.000280
     22          1           0       -2.384574    3.390887    0.000146
     23          1           0       -4.894826    2.278012    0.000436
 ---------------------------------------------------------------------
                    Distance matrix (angstroms):
                    1          2          3          4          5
     1  C    0.000000
     2  C    1.421984   0.000000
     3  C    2.337839   1.374039   0.000000
     4  S    2.574394   2.578009   1.754053   0.000000
     5  C    1.369340   2.325379   2.499960   1.732085   0.000000
     6  C    3.752206   2.517547   1.485879   2.892895   3.971968
     7  O    4.281618   2.880724   2.363635   4.000614   4.815522
     8  N    4.752627   3.715934   2.427857   3.116902   4.613465
     9  N    6.033925   4.891078   3.696154   4.459693   5.963713
    10  C    6.978241   5.959625   4.669451   5.057183   6.702417
    11  C    8.357055   7.270452   6.028287   6.495918   8.132748
    12  C    9.529042   8.516715   7.228356   7.489726   9.182009
    13  C   10.603167   9.492500   8.271074   8.717893  10.372738
    14  C   10.141702   8.925701   7.809697   8.519790  10.084743
    15  O    8.796464   7.573276   6.468074   7.245118   8.774336
    16  Br  11.254074   9.940099   8.976082   9.923043  11.378971
    17  H    1.084371   2.218127   3.360604   3.620948   2.162994
    18  H    2.230010   1.083327   2.146810   3.619232   3.354970
    19  H    2.211537   3.374241   3.553787   2.456394   1.081959
    20  H    4.724967   3.947687   2.574276   2.621532   4.293096
    21  H    6.938977   6.102459   4.742955   4.734220   6.451515
    22  H    9.717203   8.826459   7.486825   7.495378   9.221287
    23  H   11.656779  10.562297   9.329021   9.716311  11.389684
                    6          7          8          9         10
     6  C    0.000000
     7  O    1.217551   0.000000
     8  N    1.391134   2.297546   0.000000
     9  N    2.387605   2.758666   1.353549   0.000000
    10  C    3.533675   4.038505   2.246716   1.286949   0.000000
    11  C    4.778908   5.047531   3.604431   2.392923   1.439222
    12  C    6.063158   6.406203   4.806448   3.702350   2.559861
    13  C    6.984410   7.117339   5.851333   4.601424   3.670326
    14  C    6.414590   6.332687   5.472826   4.131055   3.546421
    15  O    5.063523   4.998263   4.162215   2.810640   2.428969
    16  Br   7.508394   7.146397   6.809076   5.463734   5.177353
    17  H    4.705058   5.072040   5.788192   7.039899   8.025980
    18  H    2.771090   2.648969   4.131401   5.118716   6.302980
    19  H    5.005708   5.889261   5.526242   6.879099   7.513086
    20  H    2.097022   3.196788   1.019414   2.051606   2.437589
    21  H    3.889871   4.649566   2.499410   2.093567   1.098663
    22  H    6.474213   6.986288   5.130055   4.228106   2.962250
    23  H    8.057764   8.195385   6.904383   5.672246   4.696701
                   11         12         13         14         15
    11  C    0.000000
    12  C    1.374171   0.000000
    13  C    2.249383   1.425745   0.000000
    14  C    2.183733   2.217583   1.364611   0.000000
    15  O    1.373296   2.245091   2.250268   1.352770   0.000000
    16  Br   3.944313   4.064798   2.948363   1.863765   2.754006
    17  H    9.388226  10.582226  11.628785  11.118970   9.768448
    18  H    7.506134   8.817456   9.666288   8.958952   7.614196
    19  H    8.952028   9.924208  11.170320  10.968032   9.680850
    20  H    3.876810   4.889501   6.096693   5.937062   4.705710
    21  H    2.146412   2.802006   4.138958   4.328056   3.382826
    22  H    2.192810   1.081516   2.249362   3.268846   3.287704
    23  H    3.300734   2.259468   1.079552   2.186184   3.287315
                   16         17         18         19         20
    16  Br   0.000000
    17  H   12.158225   0.000000
    18  H    9.786845   2.652523   0.000000
    19  H   12.329274   2.638073   4.365073   0.000000
    20  H    7.436101   5.803213   4.585123   5.076274   0.000000
    21  H    6.075792   8.016369   6.616973   7.144348   2.214139
    22  H    5.087738  10.791631   9.244600   9.869644   4.995107
    23  H    3.279988  12.688869  10.745395  12.161071   7.100797
                   21         22         23
    21  H    0.000000
    22  H    2.783484   0.000000
    23  H    5.059898   2.745880   0.000000
 Stoichiometry    C10H7BrN2O2S
 Framework group  C1[X(C10H7BrN2O2S)]
 Deg. of freedom    63
 Full point group                 C1      NOp   1
 Largest Abelian subgroup         C1      NOp   1
 Largest concise Abelian subgroup C1      NOp   1
                         Standard orientation:                         
 ---------------------------------------------------------------------
 Center     Atomic      Atomic             Coordinates (Angstroms)
 Number     Number       Type             X           Y           Z
 ---------------------------------------------------------------------
      1          6           0        6.301907   -0.964465    0.000100
      2          6           0        4.976490   -1.479545    0.000481
      3          6           0        4.010111   -0.502768    0.000042
      4         16           0        4.748379    1.088352   -0.000244
      5          6           0        6.339688    0.404354   -0.000612
      6          6           0        2.553479   -0.796125    0.000074
      7          8           0        2.132579   -1.938611    0.000165
      8          7           0        1.726943    0.322844    0.000134
      9          7           0        0.379770    0.191624    0.000180
     10          6           0       -0.305126    1.281190    0.000267
     11          6           0       -1.744294    1.293637    0.000187
     12          6           0       -2.636183    2.339046    0.000116
     13          6           0       -3.942919    1.768792    0.000290
     14          6           0       -3.745045    0.418603   -0.000007
     15          8           0       -2.429488    0.103490   -0.000018
     16         35           0       -4.952106   -1.001476   -0.000179
     17          1           0        7.192177   -1.583561    0.000226
     18          1           0        4.714524   -2.530721    0.000920
     19          1           0        7.204539    1.054483   -0.001100
     20          1           0        2.132354    1.258177    0.000262
     21          1           0        0.165071    2.274153    0.000280
     22          1           0       -2.384574    3.390887    0.000146
     23          1           0       -4.894826    2.278012    0.000436
 ---------------------------------------------------------------------
 Rotational constants (GHZ):      1.2441301      0.1006455      0.0931130
 General basis read from cards:  (5D, 7F)
 There are   273 symmetry adapted cartesian basis functions of A   symmetry.
 There are   256 symmetry adapted basis functions of A   symmetry.
   256 basis functions,   555 primitive gaussians,   273 cartesian basis functions
    74 alpha electrons       74 beta electrons
       nuclear repulsion energy      1349.6994448448 Hartrees.
 NAtoms=   23 NActive=   23 NUniq=   23 SFac= 1.00D+00 NAtFMM=   60 NAOKFM=F Big=F
 Integral buffers will be    131072 words long.
 Raffenetti 1 integral format.
 Two-electron integral symmetry is turned on.
 One-electron integrals computed using PRISM.
 NBasis=   256 RedAO= T EigKep=  7.17D-04  NBF=   256
 NBsUse=   256 1.00D-06 EigRej= -1.00D+00 NBFU=   256
 ExpMin= 1.17D-01 ExpMax= 5.74D+05 ExpMxC= 5.74D+03 IAcc=2 IRadAn=         4 AccDes= 0.00D+00
 Harris functional with IExCor=  205 and IRadAn=       4 diagonalized for initial guess.
 HarFok:  IExCor=  205 AccDes= 0.00D+00 IRadAn=         4 IDoV= 1 UseB2=F ITyADJ=14
 ICtDFT=  3500011 ScaDFX=  1.000000  1.000000  1.000000  1.000000
 FoFCou: FMM=F IPFlag=           0 FMFlag=      100000 FMFlg1=           0
         NFxFlg=           0 DoJE=T BraDBF=F KetDBF=T FulRan=T
         wScrn=  0.000000 ICntrl=     500 IOpCl=  0 I1Cent=   200000004 NGrid=           0
         NMat0=    1 NMatS0=      1 NMatT0=    0 NMatD0=    1 NMtDS0=    0 NMtDT0=    0
 Petite list used in FoFCou.
 Requested convergence on RMS density matrix=1.00D-08 within 128 cycles.
 Requested convergence on MAX density matrix=1.00D-06.
 Requested convergence on             energy=1.00D-06.
 No special actions if energy rises.
 Integral accuracy reduced to 1.0D-05 until final iterations.
 Initial convergence to 1.0D-05 achieved.  Increase integral accuracy.
 SCF Done:  E(RHF) =  -3608.38437376     A.U. after   16 cycles
            NFock= 16  Conv=0.52D-08     -V/T= 1.9993

 **********************************************************************

            Population analysis using the SCF density.

 **********************************************************************

 Orbital symmetries:
 BldTbl:  Degeneracy threshold= 1.00D-02
       Occupied  (A) (A) (A) (A) (A) (A) (A) (A) (A) (A) (A) (A)
                 (A) (A) (A) (A) (A) (A) (A) (A) (A) (A) (A) (A)
                 (A) (A) (A) (A) (A) (A) (A) (A) (A) (A) (A) (A)
                 (A) (A) (A) (A) (A) (A) (A) (A) (A) (A) (A) (A)
                 (A) (A) (A) (A) (A) (A) (A) (A) (A) (A) (A) (A)
                 (A) (A) (A) (A) (A) (A) (A) (A) (A) (A) (A) (A)
                 (A) (A)
       Virtual   (A) (A) (A) (A) (A) (A) (A) (A) (A) (A) (A) (A)
                 (A) (A) (A) (A) (A) (A) (A) (A) (A) (A) (A) (A)
                 (A) (A) (A) (A) (A) (A) (A) (A) (A) (A) (A) (A)
                 (A) (A) (A) (A) (A) (A) (A) (A) (A) (A) (A) (A)
                 (A) (A) (A) (A) (A) (A) (A) (A) (A) (A) (A) (A)
                 (A) (A) (A) (A) (A) (A) (A) (A) (A) (A) (A) (A)
                 (A) (A) (A) (A) (A) (A) (A) (A) (A) (A) (A) (A)
                 (A) (A) (A) (A) (A) (A) (A) (A) (A) (A) (A) (A)
                 (A) (A) (A) (A) (A) (A) (A) (A) (A) (A) (A) (A)
                 (A) (A) (A) (A) (A) (A) (A) (A) (A) (A) (A) (A)
                 (A) (A) (A) (A) (A) (A) (A) (A) (A) (A) (A) (A)
                 (A) (A) (A) (A) (A) (A) (A) (A) (A) (A) (A) (A)
                 (A) (A) (A) (A) (A) (A) (A) (A) (A) (A) (A) (A)
                 (A) (A) (A) (A) (A) (A) (A) (A) (A) (A) (A) (A)
                 (A) (A) (A) (A) (A) (A) (A) (A) (A) (A) (A) (A)
                 (A) (A)
 The electronic state is 1-A.
 Alpha  occ. eigenvalues -- -489.86199 -91.98810 -64.40596 -58.57285 -58.57089
 Alpha  occ. eigenvalues --  -58.57088 -20.64794 -20.53266 -15.63702 -15.63274
 Alpha  occ. eigenvalues --  -11.37501 -11.35606 -11.31470 -11.30064 -11.28955
 Alpha  occ. eigenvalues --  -11.28134 -11.26146 -11.25692 -11.25622 -11.25181
 Alpha  occ. eigenvalues --   -9.68401  -9.00297  -7.50017  -7.49049  -7.49048
 Alpha  occ. eigenvalues --   -6.68486  -6.68390  -6.68228  -3.24359  -3.23889
 Alpha  occ. eigenvalues --   -3.23878  -3.22767  -3.22767  -1.48220  -1.39905
 Alpha  occ. eigenvalues --   -1.33588  -1.19021  -1.15140  -1.11052  -1.07720
 Alpha  occ. eigenvalues --   -1.01967  -1.00348  -0.98288  -0.89012  -0.84087
 Alpha  occ. eigenvalues --   -0.82668  -0.79452  -0.78276  -0.76653  -0.73038
 Alpha  occ. eigenvalues --   -0.70433  -0.68375  -0.66096  -0.64275  -0.61854
 Alpha  occ. eigenvalues --   -0.61450  -0.60202  -0.59044  -0.57991  -0.57123
 Alpha  occ. eigenvalues --   -0.54696  -0.54230  -0.53911  -0.50357  -0.49472
 Alpha  occ. eigenvalues --   -0.46459  -0.45843  -0.43286  -0.42917  -0.42171
 Alpha  occ. eigenvalues --   -0.38514  -0.36285  -0.34264  -0.29416
 Alpha virt. eigenvalues --    0.06709   0.09974   0.15237   0.17293   0.18762
 Alpha virt. eigenvalues --    0.20384   0.21242   0.23491   0.24391   0.26541
 Alpha virt. eigenvalues --    0.27082   0.28368   0.28597   0.29877   0.31642
 Alpha virt. eigenvalues --    0.32204   0.34177   0.35898   0.36706   0.40607
 Alpha virt. eigenvalues --    0.42113   0.44239   0.47393   0.48770   0.50294
 Alpha virt. eigenvalues --    0.52080   0.53257   0.55595   0.56386   0.58253
 Alpha virt. eigenvalues --    0.59764   0.60939   0.62458   0.62814   0.64406
 Alpha virt. eigenvalues --    0.65215   0.65408   0.67573   0.68475   0.69162
 Alpha virt. eigenvalues --    0.70117   0.72177   0.73306   0.75016   0.75440
 Alpha virt. eigenvalues --    0.76482   0.76743   0.77084   0.79579   0.80609
 Alpha virt. eigenvalues --    0.80623   0.82574   0.82682   0.84081   0.85306
 Alpha virt. eigenvalues --    0.85967   0.87314   0.88131   0.89242   0.91701
 Alpha virt. eigenvalues --    0.94013   0.95816   0.96579   1.01229   1.02004
 Alpha virt. eigenvalues --    1.02094   1.02204   1.03471   1.04124   1.05469
 Alpha virt. eigenvalues --    1.06223   1.07161   1.07897   1.08359   1.09239
 Alpha virt. eigenvalues --    1.10028   1.10951   1.12146   1.12456   1.12711
 Alpha virt. eigenvalues --    1.15053   1.18771   1.19306   1.22759   1.23607
 Alpha virt. eigenvalues --    1.24410   1.25884   1.27580   1.28886   1.28947
 Alpha virt. eigenvalues --    1.30954   1.32518   1.35017   1.37944   1.39133
 Alpha virt. eigenvalues --    1.39665   1.43159   1.45399   1.49234   1.52407
 Alpha virt. eigenvalues --    1.52799   1.54282   1.55191   1.57386   1.58230
 Alpha virt. eigenvalues --    1.60527   1.60853   1.62424   1.63928   1.64428
 Alpha virt. eigenvalues --    1.68372   1.69547   1.71264   1.76491   1.78007
 Alpha virt. eigenvalues --    1.81377   1.84113   1.86902   1.87010   1.92118
 Alpha virt. eigenvalues --    1.92413   1.96473   2.01012   2.05276   2.08218
 Alpha virt. eigenvalues --    2.10915   2.12044   2.13333   2.17836   2.18539
 Alpha virt. eigenvalues --    2.19062   2.21257   2.22875   2.24790   2.24814
 Alpha virt. eigenvalues --    2.27249   2.29014   2.31732   2.32879   2.37141
 Alpha virt. eigenvalues --    2.41208   2.44746   2.47992   2.48713   2.49432
 Alpha virt. eigenvalues --    2.50605   2.53139   2.53958   2.55073   2.56022
 Alpha virt. eigenvalues --    2.57057   2.57110   2.62040   2.65539   2.68367
 Alpha virt. eigenvalues --    2.73651   2.73998   2.74985   2.77277   2.78098
 Alpha virt. eigenvalues --    2.87624   2.88940   2.92122   2.92536   2.96762
 Alpha virt. eigenvalues --    3.00158   3.02121   3.03595   3.10706   3.13110
 Alpha virt. eigenvalues --    3.15642   3.18034   3.23124   3.28472   3.30093
 Alpha virt. eigenvalues --    3.32942   3.34733   3.49175   3.51062   3.62256
 Alpha virt. eigenvalues --    3.65478   9.13039
          Condensed to atoms (all electrons):
               1          2          3          4          5          6
     1  C    4.915382   0.502503  -0.072455  -0.096045   0.585381   0.001681
     2  C    0.502503   4.838839   0.589009  -0.076881  -0.066886  -0.019035
     3  C   -0.072455   0.589009   5.542414   0.282722  -0.068865   0.344939
     4  S   -0.096045  -0.076881   0.282722  15.276106   0.338500  -0.033657
     5  C    0.585381  -0.066886  -0.068865   0.338500   5.279238   0.001995
     6  C    0.001681  -0.019035   0.344939  -0.033657   0.001995   3.995534
     7  O    0.000508   0.004288  -0.094327   0.001536  -0.000049   0.647477
     8  N   -0.000046   0.003595  -0.118421   0.002329   0.000004   0.233150
     9  N    0.000000  -0.000034   0.004547   0.000089  -0.000001  -0.043928
    10  C    0.000000   0.000001  -0.000147  -0.000053   0.000000   0.004741
    11  C    0.000000   0.000000   0.000000   0.000000   0.000000  -0.000032
    12  C    0.000000   0.000000   0.000000   0.000000   0.000000   0.000000
    13  C    0.000000   0.000000   0.000000   0.000000   0.000000   0.000000
    14  C    0.000000   0.000000   0.000000   0.000000   0.000000   0.000000
    15  O    0.000000   0.000000   0.000000   0.000000   0.000000  -0.000001
    16  Br   0.000000   0.000000   0.000000   0.000000   0.000000   0.000000
    17  H    0.380357  -0.025026   0.003128   0.003410  -0.029410  -0.000035
    18  H   -0.026045   0.376877  -0.028994   0.003328   0.003318  -0.001529
    19  H   -0.013778   0.001109   0.002451  -0.026486   0.375098  -0.000015
    20  H    0.000013  -0.000209   0.003234   0.004674  -0.000050  -0.024647
    21  H    0.000000   0.000000   0.000035  -0.000029   0.000000  -0.000455
    22  H    0.000000   0.000000   0.000000   0.000000   0.000000   0.000000
    23  H    0.000000   0.000000   0.000000   0.000000   0.000000   0.000000
               7          8          9         10         11         12
     1  C    0.000508  -0.000046   0.000000   0.000000   0.000000   0.000000
     2  C    0.004288   0.003595  -0.000034   0.000001   0.000000   0.000000
     3  C   -0.094327  -0.118421   0.004547  -0.000147   0.000000   0.000000
     4  S    0.001536   0.002329   0.000089  -0.000053   0.000000   0.000000
     5  C   -0.000049   0.000004  -0.000001   0.000000   0.000000   0.000000
     6  C    0.647477   0.233150  -0.043928   0.004741  -0.000032   0.000000
     7  O    8.114593  -0.093265   0.004592   0.000505  -0.000010   0.000000
     8  N   -0.093265   7.303844   0.184825  -0.102974   0.005612  -0.000041
     9  N    0.004592   0.184825   6.595856   0.555983  -0.064850   0.001863
    10  C    0.000505  -0.102974   0.555983   4.818030   0.416323  -0.052714
    11  C   -0.000010   0.005612  -0.064850   0.416323   4.591798   0.628117
    12  C    0.000000  -0.000041   0.001863  -0.052714   0.628117   5.036350
    13  C    0.000000   0.000001  -0.000091   0.003423  -0.074091   0.455463
    14  C    0.000000   0.000000   0.000170   0.002888  -0.098068  -0.080145
    15  O    0.000000  -0.000030  -0.002467  -0.031217   0.289929  -0.088373
    16  Br   0.000000   0.000000  -0.000009  -0.000106   0.003146   0.003613
    17  H    0.000000   0.000000   0.000000   0.000000   0.000000   0.000000
    18  H    0.005452   0.000220   0.000000   0.000000   0.000000   0.000000
    19  H    0.000000   0.000001   0.000000   0.000000   0.000000   0.000000
    20  H    0.001642   0.302231  -0.021222  -0.004444  -0.000980   0.000007
    21  H   -0.000006  -0.009009  -0.037384   0.378147  -0.051981   0.002613
    22  H    0.000000   0.000000  -0.000015   0.001349  -0.019710   0.367531
    23  H    0.000000   0.000000   0.000000  -0.000045   0.001811  -0.018003
              13         14         15         16         17         18
     1  C    0.000000   0.000000   0.000000   0.000000   0.380357  -0.026045
     2  C    0.000000   0.000000   0.000000   0.000000  -0.025026   0.376877
     3  C    0.000000   0.000000   0.000000   0.000000   0.003128  -0.028994
     4  S    0.000000   0.000000   0.000000   0.000000   0.003410   0.003328
     5  C    0.000000   0.000000   0.000000   0.000000  -0.029410   0.003318
     6  C    0.000000   0.000000  -0.000001   0.000000  -0.000035  -0.001529
     7  O    0.000000   0.000000   0.000000   0.000000   0.000000   0.005452
     8  N    0.000001   0.000000  -0.000030   0.000000   0.000000   0.000220
     9  N   -0.000091   0.000170  -0.002467  -0.000009   0.000000   0.000000
    10  C    0.003423   0.002888  -0.031217  -0.000106   0.000000   0.000000
    11  C   -0.074091  -0.098068   0.289929   0.003146   0.000000   0.000000
    12  C    0.455463  -0.080145  -0.088373   0.003613   0.000000   0.000000
    13  C    5.026288   0.626471  -0.070538  -0.064381   0.000000   0.000000
    14  C    0.626471   4.579559   0.286939   0.312378   0.000000   0.000000
    15  O   -0.070538   0.286939   8.263124  -0.045828   0.000000   0.000000
    16  Br  -0.064381   0.312378  -0.045828  34.873044   0.000000   0.000000
    17  H    0.000000   0.000000   0.000000   0.000000   0.440902  -0.000256
    18  H    0.000000   0.000000   0.000000   0.000000  -0.000256   0.403816
    19  H    0.000000   0.000000   0.000000   0.000000  -0.000626  -0.000050
    20  H    0.000000   0.000000   0.000002   0.000000   0.000000  -0.000010
    21  H    0.000007  -0.000071   0.001923   0.000003   0.000000   0.000000
    22  H   -0.016823   0.001932   0.002302  -0.000055   0.000000   0.000000
    23  H    0.372851  -0.020309   0.002265   0.000587   0.000000   0.000000
              19         20         21         22         23
     1  C   -0.013778   0.000013   0.000000   0.000000   0.000000
     2  C    0.001109  -0.000209   0.000000   0.000000   0.000000
     3  C    0.002451   0.003234   0.000035   0.000000   0.000000
     4  S   -0.026486   0.004674  -0.000029   0.000000   0.000000
     5  C    0.375098  -0.000050   0.000000   0.000000   0.000000
     6  C   -0.000015  -0.024647  -0.000455   0.000000   0.000000
     7  O    0.000000   0.001642  -0.000006   0.000000   0.000000
     8  N    0.000001   0.302231  -0.009009   0.000000   0.000000
     9  N    0.000000  -0.021222  -0.037384  -0.000015   0.000000
    10  C    0.000000  -0.004444   0.378147   0.001349  -0.000045
    11  C    0.000000  -0.000980  -0.051981  -0.019710   0.001811
    12  C    0.000000   0.000007   0.002613   0.367531  -0.018003
    13  C    0.000000   0.000000   0.000007  -0.016823   0.372851
    14  C    0.000000   0.000000  -0.000071   0.001932  -0.020309
    15  O    0.000000   0.000002   0.001923   0.002302   0.002265
    16  Br   0.000000   0.000000   0.000003  -0.000055   0.000587
    17  H   -0.000626   0.000000   0.000000   0.000000   0.000000
    18  H   -0.000050  -0.000010   0.000000   0.000000   0.000000
    19  H    0.412730   0.000001   0.000000   0.000000   0.000000
    20  H    0.000001   0.324421   0.012457  -0.000001   0.000000
    21  H    0.000000   0.012457   0.505497   0.001102  -0.000001
    22  H    0.000000  -0.000001   0.001102   0.429388   0.000138
    23  H    0.000000   0.000000  -0.000001   0.000138   0.419112
 Mulliken charges:
               1
     1  C   -0.177456
     2  C   -0.128150
     3  C   -0.389269
     4  S    0.320457
     5  C   -0.418275
     6  C    0.893820
     7  O   -0.592936
     8  N   -0.712025
     9  N   -0.177926
    10  C    0.010312
    11  C    0.372987
    12  C   -0.256282
    13  C   -0.258579
    14  C    0.388257
    15  O   -0.608029
    16  Br  -0.082391
    17  H    0.227556
    18  H    0.263872
    19  H    0.249565
    20  H    0.402881
    21  H    0.197154
    22  H    0.232863
    23  H    0.241594
 Sum of Mulliken charges =   0.00000
 Mulliken charges with hydrogens summed into heavy atoms:
               1
     1  C    0.050100
     2  C    0.135722
     3  C   -0.389269
     4  S    0.320457
     5  C   -0.168710
     6  C    0.893820
     7  O   -0.592936
     8  N   -0.309145
     9  N   -0.177926
    10  C    0.207466
    11  C    0.372987
    12  C   -0.023418
    13  C   -0.016985
    14  C    0.388257
    15  O   -0.608029
    16  Br  -0.082391
 DipInt: DoE/N= T F RetVal/Mat= T F Init=T NMatP=  1 IDeriv=0 Min/MaxMlt=  0  4
 Entering OneElI...
 OneElI was handed   235736581 working-precision words.
 Multipole integrals L=0 to 4 MinM= 0 MaxM= 0.
 Requested accuracy = 0.1000D-12
 PrtBox:  NBox=     1 Levels=  1 BoxLen=   42.88 SMaxX=       22.97
          Shift=            9.358124            4.782370            0.002079
 Box      1 Number                   0 centers from      1 to     87:
 ShPair: Thresh= 1.00D-13 NBox=     1 BxSize= 4.29D+01 RnKept= 2.33D+01
         NSMCal=                 3828 NSMKep=                2665
 PrsmSu:  NPrtUS=   1 ThrOK=F IAlg=1 NPAlg=1 LenDen=           0.
 Prism:   IPart=     0 DynPar=F LinDyn=F Incr=          26.
 PRISM was handed   235461650 working-precision words and  2665 shell-pairs
 IPart=  0 NShTot=        2665 NBatch=         137 AvBLen=        19.5
 PrSmSu:  NxtVal=             27.
 Electronic moments (au):
       -148.00000000          1.12761920          2.28655851          0.00023054
      -8935.19806504       -848.95775593        -86.15787615         -1.90678095
         -0.00067241         -0.00037985     -10900.06744568       -556.46835379
         -0.00729600        411.49843483       4304.42672662          1.71406402
        -86.45366621        -23.84720025         -0.16649631          0.90652094
    -837241.59222470     -11776.27912785       -324.93621687     -24424.75587683
          5.30168991       7877.86254477         -0.04125997          0.10867832
          0.00791233     -44882.98600673      -5219.56413740       -570.86615657
          2.12062246         -0.26122521        169.89823058
 Electronic spatial extent (au):  <R**2>=           9870.3137
 DipInt: DoE/N= F T RetVal/Mat= T F Init=T NMatP=  1 IDeriv=0 Min/MaxMlt=  0  4
 Nuclear    moments (au):
        148.00000000          0.00000000          0.00000000          0.00000000
       8878.43652865        772.11992607          0.00003598          0.00000000
         -0.00023182         -0.00006162      10954.75871972        545.67793217
         -0.00000001       -495.25315710      -4313.45387957         -1.73118574
          0.00020882          0.00000044          0.17277825         -0.93419245
     813587.01065993       9131.41504603          0.00000000      24616.89047449
         -5.71546567      -7567.65070884          0.04068895         -0.00000016
         -0.00000005      40249.18605611          0.00352235          0.00023326
         -2.34999064          0.32633252         -0.00004415
 Total      moments (au):
          0.00000000          1.12761920          2.28655851          0.00023054
        -56.76153639        -76.83782987        -86.15784018         -1.90678095
         -0.00090423         -0.00044147         54.69127404        -10.79042162
         -0.00729601        -83.75472227         -9.02715295         -0.01712172
        -86.45345739        -23.84719981          0.00628195         -0.02767151
     -23654.58156477      -2644.86408182       -324.93621687        192.13459766
         -0.41377576        310.21183593         -0.00057103          0.10867817
          0.00791227      -4633.79995062      -5219.56061505       -570.86592331
         -0.22936818          0.06510730        169.89818644
 Traceless Quadrup. (au):
         16.49086575         -3.58542772        -12.90543803         -1.90678095
         -0.00090423         -0.00044147
 Charge=              0.0000 electrons
 Dipole moment (field-independent basis, Debye):
    X=              2.8661    Y=              5.8119    Z=              0.0006  Tot=              6.4801
 Quadrupole moment (field-independent basis, Debye-Ang):
   XX=            -76.3462   YY=           -103.3495   ZZ=           -115.8852
   XY=             -2.5647   XZ=             -0.0012   YZ=             -0.0006
 Traceless Quadrupole moment (field-independent basis, Debye-Ang):
   XX=             22.1808   YY=             -4.8225   ZZ=            -17.3583
   XY=             -2.5647   XZ=             -0.0012   YZ=             -0.0006
 Octapole moment (field-independent basis, Debye-Ang**2):
  XXX=             38.9271  YYY=             -7.6802  ZZZ=             -0.0052  XYY=            -59.6134
  XXY=             -6.4252  XXZ=             -0.0122  XZZ=            -61.5342  YZZ=            -16.9735
  YYZ=              0.0045  XYZ=             -0.0197
 Hexadecapole moment (field-independent basis, Debye-Ang**3):
 XXXX=          -8909.4491 YYYY=           -996.1826 ZZZZ=           -122.3866 XXXY=             72.3671
 XXXZ=             -0.1558 YYYX=            116.8406 YYYZ=             -0.0002 ZZZX=              0.0409
 ZZZY=              0.0030 XXYY=          -1745.3111 XXZZ=          -1965.9367 YYZZ=           -215.0155
 XXYZ=             -0.0864 YYXZ=              0.0245 ZZXY=             63.9918
 N-N= 1.349699444845D+03 E-N=-1.129793202738D+04  KE= 3.611027314783D+03
 Entering OneElI...
 OneElI was handed   235782144 working-precision words.
 Calculate electrostatic properties
    NBasis =   256  MinDer = 0  MaxDer = 0
    NGrid  =    23  NMatD  =   1
 Requested accuracy = 0.1000D-12
 PrtBox:  NBox=     1 Levels=  1 BoxLen=   35.73 SMaxX=       22.97
          Shift=            9.358124            4.782370            0.002079
 Box      1 Number                   0 centers from      1 to     87:
 ShPair: Thresh= 1.00D-13 NBox=     1 BxSize= 3.57D+01 RnKept= 1.88D+01
         NSMCal=                 3828 NSMKep=                2290
 PrsmSu:  NPrtUS=   1 ThrOK=F IAlg=1 NPAlg=1 LenDen=           0.
 Prism:   IPart=     0 DynPar=F LinDyn=F Incr=         512.
 PRISM was handed   235535242 working-precision words and  2290 shell-pairs
 IPart=  0 NShTot=       52670 NBatch=        2299 AvBLen=        22.9
 PrSmSu:  NxtVal=            513.
 --------------------------------------------------------
       Center         ----      EFG at Nuclei      ----
                      3XX-RR        3YY-RR        3ZZ-RR
 --------------------------------------------------------
     1   Atom        0.131654      0.119264     -0.250918
     2   Atom        0.173258      0.203966     -0.377225
     3   Atom        0.130704     -0.090258     -0.040446
     4   Atom       -1.635555     -0.107078      1.742632
     5   Atom       -0.040624      0.235361     -0.194737
     6   Atom        0.230355      0.247586     -0.477940
     7   Atom        1.428725     -0.678083     -0.750641
     8   Atom       -0.771816     -0.410566      1.182382
     9   Atom       -0.560042      1.182397     -0.622355
    10   Atom        0.135950      0.084890     -0.220840
    11   Atom        0.162325     -0.123539     -0.038787
    12   Atom        0.111694      0.124659     -0.236353
    13   Atom        0.111686      0.062405     -0.174091
    14   Atom       -0.241466      0.188700      0.052766
    15   Atom       -1.268977      0.271174      0.997803
    16   Atom       -0.950418     -2.690584      3.641002
    17   Atom       -0.164710     -0.003413      0.168123
    18   Atom        0.125944     -0.285780      0.159836
    19   Atom       -0.148907     -0.022616      0.171523
    20   Atom        0.051986     -0.287322      0.235337
    21   Atom        0.043753     -0.203946      0.160194
    22   Atom        0.122083     -0.294170      0.172087
    23   Atom       -0.216644      0.043059      0.173585
 --------------------------------------------------------
                        XY            XZ            YZ
 --------------------------------------------------------
     1   Atom       -0.002391     -0.000042     -0.000104
     2   Atom        0.017302     -0.000065     -0.000228
     3   Atom       -0.151108     -0.000009     -0.000071
     4   Atom       -0.804308      0.001135     -0.000202
     5   Atom        0.141585     -0.000005     -0.000245
     6   Atom        0.131522     -0.000026     -0.000011
     7   Atom       -0.821701     -0.000146      0.000206
     8   Atom       -0.087652      0.000056     -0.000206
     9   Atom        0.413840      0.000064      0.000079
    10   Atom       -0.000815      0.000012      0.000020
    11   Atom       -0.283516     -0.000026      0.000007
    12   Atom       -0.008185     -0.000013      0.000030
    13   Atom       -0.018028     -0.000001      0.000008
    14   Atom       -0.114084      0.000035      0.000019
    15   Atom       -0.752673     -0.000280     -0.000229
    16   Atom       -5.595370     -0.000643     -0.000825
    17   Atom        0.214722     -0.000036      0.000043
    18   Atom       -0.101033      0.000043      0.000187
    19   Atom       -0.221986      0.000174      0.000131
    20   Atom       -0.183049     -0.000023     -0.000070
    21   Atom       -0.159563     -0.000003     -0.000007
    22   Atom       -0.107007     -0.000003     -0.000014
    23   Atom        0.196302      0.000057     -0.000032
 --------------------------------------------------------


 ---------------------------------------------------------------------------------
              Nuclear Quadrupole Coupling Constant in Principal Axis System
 ---------------------------------------------------------------------------------

       Atom             a.u.   MegaHertz   Gauss  10(-4) cm-1        Axes

              Baa    -0.7920     3.804     1.357     1.269  0.9746  0.2240  0.0000
     8 N(14)  Bbb    -0.3904     1.875     0.669     0.625 -0.2240  0.9746  0.0001
              Bcc     1.1824    -5.679    -2.026    -1.894  0.0000 -0.0001  1.0000
 
              Baa    -0.6533     3.138     1.120     1.047  0.9755 -0.2199 -0.0015
     9 N(14)  Bbb    -0.6224     2.989     1.067     0.997  0.0014 -0.0004  1.0000
              Bcc     1.2757    -6.127    -2.186    -2.044  0.2199  0.9755  0.0000
 
              Baa    -7.4831   550.338   196.374   183.573  0.6505  0.7595  0.0001
    16 Br(79) Bbb     3.6410  -267.774   -95.548   -89.320 -0.0002  0.0001  1.0000
              Bcc     3.8421  -282.564  -100.826   -94.253  0.7595 -0.6505  0.0002
 

 ---------------------------------------------------------------------------------

 No NMR shielding tensors so no spin-rotation constants.
 Leave Link  601 at Thu Jan 16 22:39:54 2014, MaxMem=   235929600 cpu:         0.3
 FitSet:  NAtFit=    23 NAtPot=    23 NAtFrz=     0 MDM=    27 TotChg=   0.00000
 Merz-Kollman atomic radii used.
 Atom Element Radius
    1     6    1.50
    2     6    1.50
    3     6    1.50
    4    16    1.75
    5     6    1.50
    6     6    1.50
    7     8    1.40
    8     7    1.50
    9     7    1.50
   10     6    1.50
   11     6    1.50
   12     6    1.50
   13     6    1.50
   14     6    1.50
   15     8    1.40
   16    35    2.30
   17     1    1.20
   18     1    1.20
   19     1    1.20
   20     1    1.20
   21     1    1.20
   22     1    1.20
   23     1    1.20
 Generate VDW surfaces: Layer= 5 Dens= 2 Start= 1.400 Inc= 0.179

 **********************************************************************

            Electrostatic Properties Using The SCF Density

 **********************************************************************

       Atomic Center    1 is at   6.301907 -0.964465  0.000100
       Atomic Center    2 is at   4.976490 -1.479545  0.000481
       Atomic Center    3 is at   4.010111 -0.502768  0.000042
       Atomic Center    4 is at   4.748379  1.088352 -0.000244
       Atomic Center    5 is at   6.339688  0.404354 -0.000612
       Atomic Center    6 is at   2.553479 -0.796125  0.000074
       Atomic Center    7 is at   2.132579 -1.938611  0.000165
       Atomic Center    8 is at   1.726943  0.322844  0.000134
       Atomic Center    9 is at   0.379770  0.191624  0.000180
       Atomic Center   10 is at  -0.305126  1.281190  0.000267
       Atomic Center   11 is at  -1.744294  1.293637  0.000187
       Atomic Center   12 is at  -2.636183  2.339046  0.000116
       Atomic Center   13 is at  -3.942919  1.768792  0.000290
       Atomic Center   14 is at  -3.745045  0.418603 -0.000007
       Atomic Center   15 is at  -2.429488  0.103490 -0.000018
       Atomic Center   16 is at  -4.952106 -1.001476 -0.000179
       Atomic Center   17 is at   7.192177 -1.583561  0.000226
       Atomic Center   18 is at   4.714524 -2.530721  0.000920
       Atomic Center   19 is at   7.204539  1.054483 -0.001100
       Atomic Center   20 is at   2.132354  1.258177  0.000262
       Atomic Center   21 is at   0.165071  2.274153  0.000280
       Atomic Center   22 is at  -2.384574  3.390887  0.000146
       Atomic Center   23 is at  -4.894826  2.278012  0.000436
      ESP Fit Center   24 is at   6.301907 -0.964465  2.100100
      ESP Fit Center   25 is at   7.020149 -0.964465  1.973454
      ESP Fit Center   26 is at   6.661028 -0.342449  1.973454
      ESP Fit Center   27 is at   5.942786 -0.342449  1.973454
      ESP Fit Center   28 is at   5.583665 -0.964465  1.973454
      ESP Fit Center   29 is at   5.942786 -1.586481  1.973454
      ESP Fit Center   30 is at   6.661028 -1.586481  1.973454
      ESP Fit Center   31 is at   7.651761 -0.964465  1.608793
      ESP Fit Center   32 is at   6.109803 -2.300579  1.608793
      ESP Fit Center   33 is at   6.862657 -2.192335  1.608793
      ESP Fit Center   34 is at   7.651761 -0.964465 -1.608593
      ESP Fit Center   35 is at   6.109803 -2.300579 -1.608593
      ESP Fit Center   36 is at   6.862657 -2.192335 -1.608593
      ESP Fit Center   37 is at   7.020149 -0.964465 -1.973255
      ESP Fit Center   38 is at   6.661028 -0.342449 -1.973255
      ESP Fit Center   39 is at   5.942786 -0.342449 -1.973255
      ESP Fit Center   40 is at   5.583665 -0.964465 -1.973255
      ESP Fit Center   41 is at   5.942786 -1.586481 -1.973255
      ESP Fit Center   42 is at   6.661028 -1.586481 -1.973255
      ESP Fit Center   43 is at   6.301907 -0.964465 -2.099900
      ESP Fit Center   44 is at   4.976490 -1.479545  2.100481
      ESP Fit Center   45 is at   5.694732 -1.479545  1.973835
      ESP Fit Center   46 is at   5.335611 -0.857529  1.973835
      ESP Fit Center   47 is at   4.258248 -1.479545  1.973835
      ESP Fit Center   48 is at   4.617369 -2.101561  1.973835
      ESP Fit Center   49 is at   5.335611 -2.101561  1.973835
      ESP Fit Center   50 is at   3.681315 -1.859843  1.609174
      ESP Fit Center   51 is at   4.092524 -2.499697  1.609174
      ESP Fit Center   52 is at   5.537240 -2.707415  1.609174
      ESP Fit Center   53 is at   6.193407 -2.831068  1.050481
      ESP Fit Center   54 is at   6.193407 -2.831068 -1.049519
      ESP Fit Center   55 is at   3.681315 -1.859843 -1.608212
      ESP Fit Center   56 is at   4.092524 -2.499697 -1.608212
      ESP Fit Center   57 is at   5.537240 -2.707415 -1.608212
      ESP Fit Center   58 is at   5.694732 -1.479545 -1.972874
      ESP Fit Center   59 is at   5.335611 -0.857529 -1.972874
      ESP Fit Center   60 is at   4.258248 -1.479545 -1.972874
      ESP Fit Center   61 is at   4.617369 -2.101561 -1.972874
      ESP Fit Center   62 is at   5.335611 -2.101561 -1.972874
      ESP Fit Center   63 is at   4.976490 -1.479545 -2.099519
      ESP Fit Center   64 is at   4.010111 -0.502768  2.100042
      ESP Fit Center   65 is at   4.728353 -0.502768  1.973396
      ESP Fit Center   66 is at   3.650990  0.119248  1.973396
      ESP Fit Center   67 is at   3.291869 -0.502768  1.973396
      ESP Fit Center   68 is at   3.650990 -1.124784  1.973396
      ESP Fit Center   69 is at   4.728353 -0.502768 -1.973313
      ESP Fit Center   70 is at   3.650990  0.119248 -1.973313
      ESP Fit Center   71 is at   3.291869 -0.502768 -1.973313
      ESP Fit Center   72 is at   3.650990 -1.124784 -1.973313
      ESP Fit Center   73 is at   4.010111 -0.502768 -2.099958
      ESP Fit Center   74 is at   4.748379  1.088352  2.449756
      ESP Fit Center   75 is at   5.505471  1.088352  2.329844
      ESP Fit Center   76 is at   5.126925  1.744013  2.329844
      ESP Fit Center   77 is at   4.369833  1.744013  2.329844
      ESP Fit Center   78 is at   3.991287  1.088352  2.329844
      ESP Fit Center   79 is at   4.369833  0.432691  2.329844
      ESP Fit Center   80 is at   5.126925  0.432691  2.329844
      ESP Fit Center   81 is at   6.188453  1.088352  1.981848
      ESP Fit Center   82 is at   5.995520  1.808389  1.981848
      ESP Fit Center   83 is at   5.468416  2.335493  1.981848
      ESP Fit Center   84 is at   4.748379  2.528426  1.981848
      ESP Fit Center   85 is at   4.028342  2.335493  1.981848
      ESP Fit Center   86 is at   3.501239  1.808389  1.981848
      ESP Fit Center   87 is at   3.308305  1.088352  1.981848
      ESP Fit Center   88 is at   3.501239  0.368315  1.981848
      ESP Fit Center   89 is at   4.748379 -0.351722  1.981848
      ESP Fit Center   90 is at   5.468416 -0.158789  1.981848
      ESP Fit Center   91 is at   6.149930  2.489902  1.439830
      ESP Fit Center   92 is at   5.506893  2.919566  1.439830
      ESP Fit Center   93 is at   4.748379  3.070444  1.439830
      ESP Fit Center   94 is at   3.989865  2.919566  1.439830
      ESP Fit Center   95 is at   3.346829  2.489902  1.439830
      ESP Fit Center   96 is at   2.917165  1.846866  1.439830
      ESP Fit Center   97 is at   6.587146  2.519522  0.756848
      ESP Fit Center   98 is at   6.022817  3.039024  0.756848
      ESP Fit Center   99 is at   5.320382  3.347140  0.756848
      ESP Fit Center  100 is at   4.555962  3.410482  0.756848
      ESP Fit Center  101 is at   3.812393  3.222185  0.756848
      ESP Fit Center  102 is at   3.170253  2.802654  0.756848
      ESP Fit Center  103 is at   6.275929  3.003839 -0.000244
      ESP Fit Center  104 is at   5.643465  3.368993 -0.000244
      ESP Fit Center  105 is at   4.931468  3.531501 -0.000244
      ESP Fit Center  106 is at   4.203203  3.476925 -0.000244
      ESP Fit Center  107 is at   3.523379  3.210114 -0.000244
      ESP Fit Center  108 is at   2.952402  2.754775 -0.000244
      ESP Fit Center  109 is at   6.587146  2.519522 -0.757336
      ESP Fit Center  110 is at   6.022817  3.039024 -0.757336
      ESP Fit Center  111 is at   5.320382  3.347140 -0.757336
      ESP Fit Center  112 is at   4.555962  3.410482 -0.757336
      ESP Fit Center  113 is at   3.812393  3.222185 -0.757336
      ESP Fit Center  114 is at   3.170253  2.802654 -0.757336
      ESP Fit Center  115 is at   6.149930  2.489902 -1.440318
      ESP Fit Center  116 is at   5.506893  2.919566 -1.440318
      ESP Fit Center  117 is at   4.748379  3.070444 -1.440318
      ESP Fit Center  118 is at   3.989865  2.919566 -1.440318
      ESP Fit Center  119 is at   3.346829  2.489902 -1.440318
      ESP Fit Center  120 is at   2.917165  1.846866 -1.440318
      ESP Fit Center  121 is at   6.188453  1.088352 -1.982336
      ESP Fit Center  122 is at   5.995520  1.808389 -1.982336
      ESP Fit Center  123 is at   5.468416  2.335493 -1.982336
      ESP Fit Center  124 is at   4.748379  2.528426 -1.982336
      ESP Fit Center  125 is at   4.028342  2.335493 -1.982336
      ESP Fit Center  126 is at   3.501239  1.808389 -1.982336
      ESP Fit Center  127 is at   3.308305  1.088352 -1.982336
      ESP Fit Center  128 is at   3.501239  0.368315 -1.982336
      ESP Fit Center  129 is at   4.748379 -0.351722 -1.982336
      ESP Fit Center  130 is at   5.468416 -0.158789 -1.982336
      ESP Fit Center  131 is at   5.505471  1.088352 -2.330332
      ESP Fit Center  132 is at   5.126925  1.744013 -2.330332
      ESP Fit Center  133 is at   4.369833  1.744013 -2.330332
      ESP Fit Center  134 is at   3.991287  1.088352 -2.330332
      ESP Fit Center  135 is at   4.369833  0.432691 -2.330332
      ESP Fit Center  136 is at   5.126925  0.432691 -2.330332
      ESP Fit Center  137 is at   4.748379  1.088352 -2.450244
      ESP Fit Center  138 is at   6.339688  0.404354  2.099388
      ESP Fit Center  139 is at   7.057930  0.404354  1.972742
      ESP Fit Center  140 is at   6.698809  1.026370  1.972742
      ESP Fit Center  141 is at   5.980567 -0.217662  1.972742
      ESP Fit Center  142 is at   6.698809 -0.217662  1.972742
      ESP Fit Center  143 is at   7.689542  0.404354  1.608081
      ESP Fit Center  144 is at   6.900438  1.632224  1.608081
      ESP Fit Center  145 is at   7.689542  0.404354 -1.609305
      ESP Fit Center  146 is at   6.900438  1.632224 -1.609305
      ESP Fit Center  147 is at   7.057930  0.404354 -1.973967
      ESP Fit Center  148 is at   6.698809  1.026370 -1.973967
      ESP Fit Center  149 is at   5.980567 -0.217662 -1.973967
      ESP Fit Center  150 is at   6.698809 -0.217662 -1.973967
      ESP Fit Center  151 is at   6.339688  0.404354 -2.100612
      ESP Fit Center  152 is at   2.553479 -0.796125  2.100074
      ESP Fit Center  153 is at   3.271721 -0.796125  1.973428
      ESP Fit Center  154 is at   2.912600 -0.174109  1.973428
      ESP Fit Center  155 is at   1.835237 -0.796125  1.973428
      ESP Fit Center  156 is at   2.194358 -1.418141  1.973428
      ESP Fit Center  157 is at   2.912600 -1.418141  1.973428
      ESP Fit Center  158 is at   1.258304 -1.176423  1.608767
      ESP Fit Center  159 is at   1.258304 -1.176423 -1.608619
      ESP Fit Center  160 is at   3.271721 -0.796125 -1.973281
      ESP Fit Center  161 is at   2.912600 -0.174109 -1.973281
      ESP Fit Center  162 is at   1.835237 -0.796125 -1.973281
      ESP Fit Center  163 is at   2.194358 -1.418141 -1.973281
      ESP Fit Center  164 is at   2.912600 -1.418141 -1.973281
      ESP Fit Center  165 is at   2.553479 -0.796125 -2.099926
      ESP Fit Center  166 is at   2.132579 -1.938611  1.960165
      ESP Fit Center  167 is at   2.882639 -1.938611  1.810969
      ESP Fit Center  168 is at   1.382520 -1.938611  1.810969
      ESP Fit Center  169 is at   1.757549 -2.588182  1.810969
      ESP Fit Center  170 is at   2.507609 -2.588182  1.810969
      ESP Fit Center  171 is at   0.746650 -1.938611  1.386094
      ESP Fit Center  172 is at   0.932329 -2.631576  1.386094
      ESP Fit Center  173 is at   1.439614 -3.138861  1.386094
      ESP Fit Center  174 is at   2.132579 -3.324540  1.386094
      ESP Fit Center  175 is at   2.825544 -3.138861  1.386094
      ESP Fit Center  176 is at   3.332829 -2.631576  1.386094
      ESP Fit Center  177 is at   0.361346 -2.315098  0.750225
      ESP Fit Center  178 is at   0.667608 -3.002975  0.750225
      ESP Fit Center  179 is at   1.227177 -3.506813  0.750225
      ESP Fit Center  180 is at   1.943299 -3.739495  0.750225
      ESP Fit Center  181 is at   2.692148 -3.660788  0.750225
      ESP Fit Center  182 is at   3.344243 -3.284301  0.750225
      ESP Fit Center  183 is at   0.205952 -2.298760  0.000165
      ESP Fit Center  184 is at   0.466154 -2.970418  0.000165
      ESP Fit Center  185 is at   0.951415 -3.502725  0.000165
      ESP Fit Center  186 is at   1.596200 -3.823789  0.000165
      ESP Fit Center  187 is at   2.313425 -3.890250  0.000165
      ESP Fit Center  188 is at   3.006226 -3.693131  0.000165
      ESP Fit Center  189 is at   0.361346 -2.315098 -0.749895
      ESP Fit Center  190 is at   0.667608 -3.002975 -0.749895
      ESP Fit Center  191 is at   1.227177 -3.506813 -0.749895
      ESP Fit Center  192 is at   1.943299 -3.739495 -0.749895
      ESP Fit Center  193 is at   2.692148 -3.660788 -0.749895
      ESP Fit Center  194 is at   3.344243 -3.284301 -0.749895
      ESP Fit Center  195 is at   0.746650 -1.938611 -1.385764
      ESP Fit Center  196 is at   0.932329 -2.631576 -1.385764
      ESP Fit Center  197 is at   1.439614 -3.138861 -1.385764
      ESP Fit Center  198 is at   2.132579 -3.324540 -1.385764
      ESP Fit Center  199 is at   2.825544 -3.138861 -1.385764
      ESP Fit Center  200 is at   3.332829 -2.631576 -1.385764
      ESP Fit Center  201 is at   2.882639 -1.938611 -1.810639
      ESP Fit Center  202 is at   1.382520 -1.938611 -1.810639
      ESP Fit Center  203 is at   1.757549 -2.588182 -1.810639
      ESP Fit Center  204 is at   2.507609 -2.588182 -1.810639
      ESP Fit Center  205 is at   2.132579 -1.938611 -1.959835
      ESP Fit Center  206 is at   1.726943  0.322844  2.100134
      ESP Fit Center  207 is at   2.445185  0.322844  1.973488
      ESP Fit Center  208 is at   2.086064  0.944860  1.973488
      ESP Fit Center  209 is at   1.367822  0.944860  1.973488
      ESP Fit Center  210 is at   1.367822 -0.299172  1.973488
      ESP Fit Center  211 is at   2.862513  1.052630  1.608827
      ESP Fit Center  212 is at   1.534839  1.658958  1.608827
      ESP Fit Center  213 is at   2.862513  1.052630 -1.608559
      ESP Fit Center  214 is at   1.534839  1.658958 -1.608559
      ESP Fit Center  215 is at   2.445185  0.322844 -1.973221
      ESP Fit Center  216 is at   2.086064  0.944860 -1.973221
      ESP Fit Center  217 is at   1.367822  0.944860 -1.973221
      ESP Fit Center  218 is at   1.367822 -0.299172 -1.973221
      ESP Fit Center  219 is at   1.726943  0.322844 -2.099866
      ESP Fit Center  220 is at   0.379770  0.191624  2.100180
      ESP Fit Center  221 is at   0.738891  0.813640  1.973534
      ESP Fit Center  222 is at  -0.338472  0.191624  1.973534
      ESP Fit Center  223 is at   0.020649 -0.430392  1.973534
      ESP Fit Center  224 is at   0.738891 -0.430392  1.973534
      ESP Fit Center  225 is at  -0.915405 -0.188674  1.608873
      ESP Fit Center  226 is at  -0.504196 -0.828528  1.608873
      ESP Fit Center  227 is at   0.187666 -1.144491  1.608873
      ESP Fit Center  228 is at   0.940520 -1.036247  1.608873
      ESP Fit Center  229 is at  -1.091551 -0.877354  1.050180
      ESP Fit Center  230 is at  -0.529557 -1.383376  1.050180
      ESP Fit Center  231 is at   0.189669 -1.617067  1.050180
      ESP Fit Center  232 is at  -0.866536 -1.458753  0.364841
      ESP Fit Center  233 is at  -0.186191 -1.797524  0.364841
      ESP Fit Center  234 is at  -0.866536 -1.458753 -0.364481
      ESP Fit Center  235 is at  -0.186191 -1.797524 -0.364481
      ESP Fit Center  236 is at  -1.091551 -0.877354 -1.049820
      ESP Fit Center  237 is at  -0.529557 -1.383376 -1.049820
      ESP Fit Center  238 is at   0.189669 -1.617067 -1.049820
      ESP Fit Center  239 is at  -0.915405 -0.188674 -1.608513
      ESP Fit Center  240 is at  -0.504196 -0.828528 -1.608513
      ESP Fit Center  241 is at   0.187666 -1.144491 -1.608513
      ESP Fit Center  242 is at   0.940520 -1.036247 -1.608513
      ESP Fit Center  243 is at   0.738891  0.813640 -1.973175
      ESP Fit Center  244 is at  -0.338472  0.191624 -1.973175
      ESP Fit Center  245 is at   0.020649 -0.430392 -1.973175
      ESP Fit Center  246 is at   0.738891 -0.430392 -1.973175
      ESP Fit Center  247 is at   0.379770  0.191624 -2.099820
      ESP Fit Center  248 is at  -0.305126  1.281190  2.100267
      ESP Fit Center  249 is at   0.413116  1.281190  1.973621
      ESP Fit Center  250 is at   0.053995  1.903206  1.973621
      ESP Fit Center  251 is at  -0.664247  1.903206  1.973621
      ESP Fit Center  252 is at  -1.023368  1.281190  1.973621
      ESP Fit Center  253 is at  -0.664247  0.659174  1.973621
      ESP Fit Center  254 is at   0.830443  2.010976  1.608960
      ESP Fit Center  255 is at  -0.497230  2.617304  1.608960
      ESP Fit Center  256 is at   0.830443  2.010976 -1.608426
      ESP Fit Center  257 is at  -0.497230  2.617304 -1.608426
      ESP Fit Center  258 is at   0.413116  1.281190 -1.973088
      ESP Fit Center  259 is at   0.053995  1.903206 -1.973088
      ESP Fit Center  260 is at  -0.664247  1.903206 -1.973088
      ESP Fit Center  261 is at  -1.023368  1.281190 -1.973088
      ESP Fit Center  262 is at  -0.664247  0.659174 -1.973088
      ESP Fit Center  263 is at  -0.305126  1.281190 -2.099733
      ESP Fit Center  264 is at  -1.744294  1.293637  2.100187
      ESP Fit Center  265 is at  -1.026052  1.293637  1.973541
      ESP Fit Center  266 is at  -1.385173  1.915653  1.973541
      ESP Fit Center  267 is at  -2.462536  1.293637  1.973541
      ESP Fit Center  268 is at  -2.103415  0.671621  1.973541
      ESP Fit Center  269 is at  -1.385173  0.671621  1.973541
      ESP Fit Center  270 is at  -1.183544  2.521507  1.608880
      ESP Fit Center  271 is at  -1.183544  0.065766  1.608880
      ESP Fit Center  272 is at  -1.183544  2.521507 -1.608506
      ESP Fit Center  273 is at  -1.183544  0.065766 -1.608506
      ESP Fit Center  274 is at  -1.026052  1.293637 -1.973168
      ESP Fit Center  275 is at  -1.385173  1.915653 -1.973168
      ESP Fit Center  276 is at  -2.462536  1.293637 -1.973168
      ESP Fit Center  277 is at  -2.103415  0.671621 -1.973168
      ESP Fit Center  278 is at  -1.385173  0.671621 -1.973168
      ESP Fit Center  279 is at  -1.744294  1.293637 -2.099813
      ESP Fit Center  280 is at  -2.636183  2.339046  2.100116
      ESP Fit Center  281 is at  -1.917941  2.339046  1.973470
      ESP Fit Center  282 is at  -2.277062  2.961062  1.973470
      ESP Fit Center  283 is at  -2.995304  2.961062  1.973470
      ESP Fit Center  284 is at  -3.354425  2.339046  1.973470
      ESP Fit Center  285 is at  -2.995304  1.717030  1.973470
      ESP Fit Center  286 is at  -1.500614  3.068832  1.608809
      ESP Fit Center  287 is at  -2.828287  3.675160  1.608809
      ESP Fit Center  288 is at  -3.520149  3.359197  1.608809
      ESP Fit Center  289 is at  -0.974760  3.078759  1.050116
      ESP Fit Center  290 is at  -0.974760  3.078759 -1.049884
      ESP Fit Center  291 is at  -1.500614  3.068832 -1.608577
      ESP Fit Center  292 is at  -2.828287  3.675160 -1.608577
      ESP Fit Center  293 is at  -3.520149  3.359197 -1.608577
      ESP Fit Center  294 is at  -1.917941  2.339046 -1.973239
      ESP Fit Center  295 is at  -2.277062  2.961062 -1.973239
      ESP Fit Center  296 is at  -2.995304  2.961062 -1.973239
      ESP Fit Center  297 is at  -3.354425  2.339046 -1.973239
      ESP Fit Center  298 is at  -2.995304  1.717030 -1.973239
      ESP Fit Center  299 is at  -2.636183  2.339046 -2.099884
      ESP Fit Center  300 is at  -3.942919  1.768792  2.100290
      ESP Fit Center  301 is at  -3.224677  1.768792  1.973644
      ESP Fit Center  302 is at  -3.583798  2.390808  1.973644
      ESP Fit Center  303 is at  -4.302040  2.390808  1.973644
      ESP Fit Center  304 is at  -4.661161  1.768792  1.973644
      ESP Fit Center  305 is at  -3.583798  1.146776  1.973644
      ESP Fit Center  306 is at  -4.135023  3.104906  1.608983
      ESP Fit Center  307 is at  -4.826885  2.788943  1.608983
      ESP Fit Center  308 is at  -4.133020  3.577482  1.050290
      ESP Fit Center  309 is at  -4.133020  3.577482 -1.049710
      ESP Fit Center  310 is at  -4.135023  3.104906 -1.608403
      ESP Fit Center  311 is at  -4.826885  2.788943 -1.608403
      ESP Fit Center  312 is at  -3.224677  1.768792 -1.973065
      ESP Fit Center  313 is at  -3.583798  2.390808 -1.973065
      ESP Fit Center  314 is at  -4.302040  2.390808 -1.973065
      ESP Fit Center  315 is at  -4.661161  1.768792 -1.973065
      ESP Fit Center  316 is at  -3.583798  1.146776 -1.973065
      ESP Fit Center  317 is at  -3.942919  1.768792 -2.099710
      ESP Fit Center  318 is at  -3.385924  1.040619  1.973347
      ESP Fit Center  319 is at  -3.385924  1.040619 -1.973362
      ESP Fit Center  320 is at  -2.429488  0.103490  1.959982
      ESP Fit Center  321 is at  -1.679428  0.103490  1.810786
      ESP Fit Center  322 is at  -2.054458 -0.546081  1.810786
      ESP Fit Center  323 is at  -1.736523 -1.096760  1.385911
      ESP Fit Center  324 is at  -1.229238 -0.589475  1.385911
      ESP Fit Center  325 is at  -1.869919 -1.618687  0.750042
      ESP Fit Center  326 is at  -1.217824 -1.242200  0.750042
      ESP Fit Center  327 is at  -1.555841 -1.651030 -0.000018
      ESP Fit Center  328 is at  -1.869919 -1.618687 -0.750078
      ESP Fit Center  329 is at  -1.217824 -1.242200 -0.750078
      ESP Fit Center  330 is at  -1.736523 -1.096760 -1.385947
      ESP Fit Center  331 is at  -1.229238 -0.589475 -1.385947
      ESP Fit Center  332 is at  -1.679428  0.103490 -1.810822
      ESP Fit Center  333 is at  -2.054458 -0.546081 -1.810822
      ESP Fit Center  334 is at  -2.429488  0.103490 -1.960018
      ESP Fit Center  335 is at  -4.952106 -1.001476  3.219821
      ESP Fit Center  336 is at  -4.235588 -1.001476  3.139089
      ESP Fit Center  337 is at  -4.593847 -0.380954  3.139089
      ESP Fit Center  338 is at  -5.310365 -0.380954  3.139089
      ESP Fit Center  339 is at  -5.668623 -1.001476  3.139089
      ESP Fit Center  340 is at  -5.310365 -1.621999  3.139089
      ESP Fit Center  341 is at  -4.593847 -1.621999  3.139089
      ESP Fit Center  342 is at  -3.555000 -1.001476  2.900941
      ESP Fit Center  343 is at  -3.742177 -0.302923  2.900941
      ESP Fit Center  344 is at  -4.253553  0.208453  2.900941
      ESP Fit Center  345 is at  -4.952106  0.395629  2.900941
      ESP Fit Center  346 is at  -5.650659  0.208453  2.900941
      ESP Fit Center  347 is at  -6.162035 -0.302923  2.900941
      ESP Fit Center  348 is at  -6.349212 -1.001476  2.900941
      ESP Fit Center  349 is at  -6.162035 -1.700029  2.900941
      ESP Fit Center  350 is at  -5.650659 -2.211405  2.900941
      ESP Fit Center  351 is at  -4.952106 -2.398582  2.900941
      ESP Fit Center  352 is at  -4.253553 -2.211405  2.900941
      ESP Fit Center  353 is at  -3.742177 -1.700029  2.900941
      ESP Fit Center  354 is at  -2.944469 -1.001476  2.517318
      ESP Fit Center  355 is at  -3.080040 -0.276234  2.517318
      ESP Fit Center  356 is at  -3.468444  0.351060  2.517318
      ESP Fit Center  357 is at  -4.057225  0.795687  2.517318
      ESP Fit Center  358 is at  -4.766864  0.997597  2.517318
      ESP Fit Center  359 is at  -5.501522  0.929521  2.517318
      ESP Fit Center  360 is at  -6.161978  0.600653  2.517318
      ESP Fit Center  361 is at  -6.659033  0.055408  2.517318
      ESP Fit Center  362 is at  -6.925559 -0.632574  2.517318
      ESP Fit Center  363 is at  -6.925559 -1.370379  2.517318
      ESP Fit Center  364 is at  -6.659033 -2.058361  2.517318
      ESP Fit Center  365 is at  -6.161978 -2.603605  2.517318
      ESP Fit Center  366 is at  -5.501522 -2.932473  2.517318
      ESP Fit Center  367 is at  -4.766864 -3.000549  2.517318
      ESP Fit Center  368 is at  -4.057225 -2.798639  2.517318
      ESP Fit Center  369 is at  -3.468444 -2.354013  2.517318
      ESP Fit Center  370 is at  -3.080040 -1.726718  2.517318
      ESP Fit Center  371 is at  -2.434609 -1.001476  2.007458
      ESP Fit Center  372 is at  -2.546454 -0.259431  2.007458
      ESP Fit Center  373 is at  -2.872052  0.416680  2.007458
      ESP Fit Center  374 is at  -3.382472  0.966782  2.007458
      ESP Fit Center  375 is at  -4.763973  1.508982  2.007458
      ESP Fit Center  376 is at  -5.512302  1.452902  2.007458
      ESP Fit Center  377 is at  -6.210855  1.178740  2.007458
      ESP Fit Center  378 is at  -6.797562  0.710857  2.007458
      ESP Fit Center  379 is at  -7.220293  0.090825  2.007458
      ESP Fit Center  380 is at  -7.441485 -0.626263  2.007458
      ESP Fit Center  381 is at  -7.441485 -1.376690  2.007458
      ESP Fit Center  382 is at  -7.220293 -2.093777  2.007458
      ESP Fit Center  383 is at  -6.797562 -2.713809  2.007458
      ESP Fit Center  384 is at  -6.210855 -3.181693  2.007458
      ESP Fit Center  385 is at  -5.512302 -3.455855  2.007458
      ESP Fit Center  386 is at  -4.763973 -3.511934  2.007458
      ESP Fit Center  387 is at  -4.032361 -3.344949  2.007458
      ESP Fit Center  388 is at  -3.382472 -2.969735  2.007458
      ESP Fit Center  389 is at  -2.872052 -2.419633  2.007458
      ESP Fit Center  390 is at  -2.546454 -1.743522  2.007458
      ESP Fit Center  391 is at  -6.187343  1.623535  1.396927
      ESP Fit Center  392 is at  -6.801349  1.233875  1.396927
      ESP Fit Center  393 is at  -7.299161  0.703759  1.396927
      ESP Fit Center  394 is at  -7.649499  0.066497  1.396927
      ESP Fit Center  395 is at  -7.830349 -0.637870  1.396927
      ESP Fit Center  396 is at  -7.830349 -1.365083  1.396927
      ESP Fit Center  397 is at  -7.649499 -2.069450  1.396927
      ESP Fit Center  398 is at  -7.299161 -2.706712  1.396927
      ESP Fit Center  399 is at  -6.801349 -3.236827  1.396927
      ESP Fit Center  400 is at  -6.187343 -3.626488  1.396927
      ESP Fit Center  401 is at  -5.495722 -3.851209  1.396927
      ESP Fit Center  402 is at  -4.769943 -3.896871  1.396927
      ESP Fit Center  403 is at  -4.055611 -3.760605  1.396927
      ESP Fit Center  404 is at  -3.397608 -3.450973  1.396927
      ESP Fit Center  405 is at  -2.837281 -2.987429  1.396927
      ESP Fit Center  406 is at  -2.409835 -2.399101  1.396927
      ESP Fit Center  407 is at  -2.142130 -1.722955  1.396927
      ESP Fit Center  408 is at  -6.521740  1.717209  0.716338
      ESP Fit Center  409 is at  -7.106402  1.281944  0.716338
      ESP Fit Center  410 is at  -7.574926  0.723580  0.716338
      ESP Fit Center  411 is at  -7.902053  0.072217  0.716338
      ESP Fit Center  412 is at  -8.070147 -0.637030  0.716338
      ESP Fit Center  413 is at  -8.070147 -1.365923  0.716338
      ESP Fit Center  414 is at  -7.902053 -2.075169  0.716338
      ESP Fit Center  415 is at  -7.574926 -2.726532  0.716338
      ESP Fit Center  416 is at  -7.106402 -3.284897  0.716338
      ESP Fit Center  417 is at  -6.521740 -3.720162  0.716338
      ESP Fit Center  418 is at  -5.852458 -4.008862  0.716338
      ESP Fit Center  419 is at  -5.134638 -4.135433  0.716338
      ESP Fit Center  420 is at  -4.406978 -4.093052  0.716338
      ESP Fit Center  421 is at  -3.708705 -3.884003  0.716338
      ESP Fit Center  422 is at  -3.077465 -3.519556  0.716338
      ESP Fit Center  423 is at  -2.547287 -3.019359  0.716338
      ESP Fit Center  424 is at  -2.146754 -2.410377  0.716338
      ESP Fit Center  425 is at  -1.897457 -1.725441  0.716338
      ESP Fit Center  426 is at  -6.959743  1.516021 -0.000179
      ESP Fit Center  427 is at  -7.469603  1.006161 -0.000179
      ESP Fit Center  428 is at  -7.853226  0.395629 -0.000179
      ESP Fit Center  429 is at  -8.091374 -0.284959 -0.000179
      ESP Fit Center  430 is at  -8.172106 -1.001476 -0.000179
      ESP Fit Center  431 is at  -8.091374 -1.717994 -0.000179
      ESP Fit Center  432 is at  -7.853226 -2.398582 -0.000179
      ESP Fit Center  433 is at  -7.469603 -3.009113 -0.000179
      ESP Fit Center  434 is at  -6.959743 -3.518974 -0.000179
      ESP Fit Center  435 is at  -6.349212 -3.902596 -0.000179
      ESP Fit Center  436 is at  -5.668623 -4.140744 -0.000179
      ESP Fit Center  437 is at  -4.952106 -4.221476 -0.000179
      ESP Fit Center  438 is at  -4.235588 -4.140744 -0.000179
      ESP Fit Center  439 is at  -3.555000 -3.902596 -0.000179
      ESP Fit Center  440 is at  -2.944469 -3.518974 -0.000179
      ESP Fit Center  441 is at  -2.434609 -3.009113 -0.000179
      ESP Fit Center  442 is at  -2.050986 -2.398582 -0.000179
      ESP Fit Center  443 is at  -6.521740  1.717209 -0.716696
      ESP Fit Center  444 is at  -7.106402  1.281944 -0.716696
      ESP Fit Center  445 is at  -7.574926  0.723580 -0.716696
      ESP Fit Center  446 is at  -7.902053  0.072217 -0.716696
      ESP Fit Center  447 is at  -8.070147 -0.637030 -0.716696
      ESP Fit Center  448 is at  -8.070147 -1.365923 -0.716696
      ESP Fit Center  449 is at  -7.902053 -2.075169 -0.716696
      ESP Fit Center  450 is at  -7.574926 -2.726532 -0.716696
      ESP Fit Center  451 is at  -7.106402 -3.284897 -0.716696
      ESP Fit Center  452 is at  -6.521740 -3.720162 -0.716696
      ESP Fit Center  453 is at  -5.852458 -4.008862 -0.716696
      ESP Fit Center  454 is at  -5.134638 -4.135433 -0.716696
      ESP Fit Center  455 is at  -4.406978 -4.093052 -0.716696
      ESP Fit Center  456 is at  -3.708705 -3.884003 -0.716696
      ESP Fit Center  457 is at  -3.077465 -3.519556 -0.716696
      ESP Fit Center  458 is at  -2.547287 -3.019359 -0.716696
      ESP Fit Center  459 is at  -2.146754 -2.410377 -0.716696
      ESP Fit Center  460 is at  -1.897457 -1.725441 -0.716696
      ESP Fit Center  461 is at  -6.187343  1.623535 -1.397285
      ESP Fit Center  462 is at  -6.801349  1.233875 -1.397285
      ESP Fit Center  463 is at  -7.299161  0.703759 -1.397285
      ESP Fit Center  464 is at  -7.649499  0.066497 -1.397285
      ESP Fit Center  465 is at  -7.830349 -0.637870 -1.397285
      ESP Fit Center  466 is at  -7.830349 -1.365083 -1.397285
      ESP Fit Center  467 is at  -7.649499 -2.069450 -1.397285
      ESP Fit Center  468 is at  -7.299161 -2.706712 -1.397285
      ESP Fit Center  469 is at  -6.801349 -3.236827 -1.397285
      ESP Fit Center  470 is at  -6.187343 -3.626488 -1.397285
      ESP Fit Center  471 is at  -5.495722 -3.851209 -1.397285
      ESP Fit Center  472 is at  -4.769943 -3.896871 -1.397285
      ESP Fit Center  473 is at  -4.055611 -3.760605 -1.397285
      ESP Fit Center  474 is at  -3.397608 -3.450973 -1.397285
      ESP Fit Center  475 is at  -2.837281 -2.987429 -1.397285
      ESP Fit Center  476 is at  -2.409835 -2.399101 -1.397285
      ESP Fit Center  477 is at  -2.142130 -1.722955 -1.397285
      ESP Fit Center  478 is at  -2.434609 -1.001476 -2.007816
      ESP Fit Center  479 is at  -2.546454 -0.259431 -2.007816
      ESP Fit Center  480 is at  -2.872052  0.416680 -2.007816
      ESP Fit Center  481 is at  -3.382472  0.966782 -2.007816
      ESP Fit Center  482 is at  -4.763973  1.508982 -2.007816
      ESP Fit Center  483 is at  -5.512302  1.452902 -2.007816
      ESP Fit Center  484 is at  -6.210855  1.178740 -2.007816
      ESP Fit Center  485 is at  -6.797562  0.710857 -2.007816
      ESP Fit Center  486 is at  -7.220293  0.090825 -2.007816
      ESP Fit Center  487 is at  -7.441485 -0.626263 -2.007816
      ESP Fit Center  488 is at  -7.441485 -1.376690 -2.007816
      ESP Fit Center  489 is at  -7.220293 -2.093777 -2.007816
      ESP Fit Center  490 is at  -6.797562 -2.713809 -2.007816
      ESP Fit Center  491 is at  -6.210855 -3.181693 -2.007816
      ESP Fit Center  492 is at  -5.512302 -3.455855 -2.007816
      ESP Fit Center  493 is at  -4.763973 -3.511934 -2.007816
      ESP Fit Center  494 is at  -4.032361 -3.344949 -2.007816
      ESP Fit Center  495 is at  -3.382472 -2.969735 -2.007816
      ESP Fit Center  496 is at  -2.872052 -2.419633 -2.007816
      ESP Fit Center  497 is at  -2.546454 -1.743522 -2.007816
      ESP Fit Center  498 is at  -2.944469 -1.001476 -2.517676
      ESP Fit Center  499 is at  -3.080040 -0.276234 -2.517676
      ESP Fit Center  500 is at  -3.468444  0.351060 -2.517676
      ESP Fit Center  501 is at  -4.057225  0.795687 -2.517676
      ESP Fit Center  502 is at  -4.766864  0.997597 -2.517676
      ESP Fit Center  503 is at  -5.501522  0.929521 -2.517676
      ESP Fit Center  504 is at  -6.161978  0.600653 -2.517676
      ESP Fit Center  505 is at  -6.659033  0.055408 -2.517676
      ESP Fit Center  506 is at  -6.925559 -0.632574 -2.517676
      ESP Fit Center  507 is at  -6.925559 -1.370379 -2.517676
      ESP Fit Center  508 is at  -6.659033 -2.058361 -2.517676
      ESP Fit Center  509 is at  -6.161978 -2.603605 -2.517676
      ESP Fit Center  510 is at  -5.501522 -2.932473 -2.517676
      ESP Fit Center  511 is at  -4.766864 -3.000549 -2.517676
      ESP Fit Center  512 is at  -4.057225 -2.798639 -2.517676
      ESP Fit Center  513 is at  -3.468444 -2.354013 -2.517676
      ESP Fit Center  514 is at  -3.080040 -1.726718 -2.517676
      ESP Fit Center  515 is at  -3.555000 -1.001476 -2.901299
      ESP Fit Center  516 is at  -3.742177 -0.302923 -2.901299
      ESP Fit Center  517 is at  -4.253553  0.208453 -2.901299
      ESP Fit Center  518 is at  -4.952106  0.395629 -2.901299
      ESP Fit Center  519 is at  -5.650659  0.208453 -2.901299
      ESP Fit Center  520 is at  -6.162035 -0.302923 -2.901299
      ESP Fit Center  521 is at  -6.349212 -1.001476 -2.901299
      ESP Fit Center  522 is at  -6.162035 -1.700029 -2.901299
      ESP Fit Center  523 is at  -5.650659 -2.211405 -2.901299
      ESP Fit Center  524 is at  -4.952106 -2.398582 -2.901299
      ESP Fit Center  525 is at  -4.253553 -2.211405 -2.901299
      ESP Fit Center  526 is at  -3.742177 -1.700029 -2.901299
      ESP Fit Center  527 is at  -4.235588 -1.001476 -3.139447
      ESP Fit Center  528 is at  -4.593847 -0.380954 -3.139447
      ESP Fit Center  529 is at  -5.310365 -0.380954 -3.139447
      ESP Fit Center  530 is at  -5.668623 -1.001476 -3.139447
      ESP Fit Center  531 is at  -5.310365 -1.621999 -3.139447
      ESP Fit Center  532 is at  -4.593847 -1.621999 -3.139447
      ESP Fit Center  533 is at  -4.952106 -1.001476 -3.220179
      ESP Fit Center  534 is at   7.921102 -1.583561  1.513854
      ESP Fit Center  535 is at   7.556639 -2.214828  1.513854
      ESP Fit Center  536 is at   8.505654 -1.583561  1.047689
      ESP Fit Center  537 is at   8.254802 -0.811519  1.047689
      ESP Fit Center  538 is at   6.786290 -2.832752  1.047689
      ESP Fit Center  539 is at   7.598064 -2.832752  1.047689
      ESP Fit Center  540 is at   8.254802 -2.355603  1.047689
      ESP Fit Center  541 is at   8.830056 -1.583561  0.374061
      ESP Fit Center  542 is at   8.642447 -0.822401  0.374061
      ESP Fit Center  543 is at   6.611377 -3.115004  0.374061
      ESP Fit Center  544 is at   7.389602 -3.209498  0.374061
      ESP Fit Center  545 is at   8.122598 -2.931509  0.374061
      ESP Fit Center  546 is at   8.642447 -2.344721  0.374061
      ESP Fit Center  547 is at   8.830056 -1.583561 -0.373609
      ESP Fit Center  548 is at   8.642447 -0.822401 -0.373609
      ESP Fit Center  549 is at   6.611377 -3.115004 -0.373609
      ESP Fit Center  550 is at   7.389602 -3.209498 -0.373609
      ESP Fit Center  551 is at   8.122598 -2.931509 -0.373609
      ESP Fit Center  552 is at   8.642447 -2.344721 -0.373609
      ESP Fit Center  553 is at   8.505654 -1.583561 -1.047237
      ESP Fit Center  554 is at   8.254802 -0.811519 -1.047237
      ESP Fit Center  555 is at   6.786290 -2.832752 -1.047237
      ESP Fit Center  556 is at   7.598064 -2.832752 -1.047237
      ESP Fit Center  557 is at   8.254802 -2.355603 -1.047237
      ESP Fit Center  558 is at   7.921102 -1.583561 -1.513402
      ESP Fit Center  559 is at   7.556639 -2.214828 -1.513402
      ESP Fit Center  560 is at   4.350062 -3.161988  1.514548
      ESP Fit Center  561 is at   5.078987 -3.161988  1.514548
      ESP Fit Center  562 is at   3.651899 -3.302763  1.048383
      ESP Fit Center  563 is at   4.308637 -3.779912  1.048383
      ESP Fit Center  564 is at   5.120411 -3.779912  1.048383
      ESP Fit Center  565 is at   5.777149 -3.302763  1.048383
      ESP Fit Center  566 is at   3.488554 -3.616836  0.374755
      ESP Fit Center  567 is at   4.133724 -4.062164  0.374755
      ESP Fit Center  568 is at   4.911949 -4.156658  0.374755
      ESP Fit Center  569 is at   5.644945 -3.878669  0.374755
      ESP Fit Center  570 is at   6.164794 -3.291881  0.374755
      ESP Fit Center  571 is at   3.488554 -3.616836 -0.372915
      ESP Fit Center  572 is at   4.133724 -4.062164 -0.372915
      ESP Fit Center  573 is at   4.911949 -4.156658 -0.372915
      ESP Fit Center  574 is at   5.644945 -3.878669 -0.372915
      ESP Fit Center  575 is at   6.164794 -3.291881 -0.372915
      ESP Fit Center  576 is at   3.651899 -3.302763 -1.046543
      ESP Fit Center  577 is at   4.308637 -3.779912 -1.046543
      ESP Fit Center  578 is at   5.120411 -3.779912 -1.046543
      ESP Fit Center  579 is at   5.777149 -3.302763 -1.046543
      ESP Fit Center  580 is at   4.350062 -3.161988 -1.512708
      ESP Fit Center  581 is at   5.078987 -3.161988 -1.512708
      ESP Fit Center  582 is at   7.933464  1.054483  1.512528
      ESP Fit Center  583 is at   7.569001  1.685750  1.512528
      ESP Fit Center  584 is at   8.518016  1.054483  1.046363
      ESP Fit Center  585 is at   8.267164  1.826525  1.046363
      ESP Fit Center  586 is at   7.610426  2.303674  1.046363
      ESP Fit Center  587 is at   6.798652  2.303674  1.046363
      ESP Fit Center  588 is at   8.267164  0.282441  1.046363
      ESP Fit Center  589 is at   8.842418  1.054483  0.372735
      ESP Fit Center  590 is at   8.654809  1.815643  0.372735
      ESP Fit Center  591 is at   8.134960  2.402431  0.372735
      ESP Fit Center  592 is at   7.401964  2.680420  0.372735
      ESP Fit Center  593 is at   8.654809  0.293323  0.372735
      ESP Fit Center  594 is at   8.842418  1.054483 -0.374935
      ESP Fit Center  595 is at   8.654809  1.815643 -0.374935
      ESP Fit Center  596 is at   8.134960  2.402431 -0.374935
      ESP Fit Center  597 is at   7.401964  2.680420 -0.374935
      ESP Fit Center  598 is at   8.654809  0.293323 -0.374935
      ESP Fit Center  599 is at   8.518016  1.054483 -1.048563
      ESP Fit Center  600 is at   8.267164  1.826525 -1.048563
      ESP Fit Center  601 is at   7.610426  2.303674 -1.048563
      ESP Fit Center  602 is at   6.798652  2.303674 -1.048563
      ESP Fit Center  603 is at   8.267164  0.282441 -1.048563
      ESP Fit Center  604 is at   7.933464  1.054483 -1.514728
      ESP Fit Center  605 is at   7.569001  1.685750 -1.514728
      ESP Fit Center  606 is at   2.496816  1.889444  1.513890
      ESP Fit Center  607 is at   1.767892  1.889444  1.513890
      ESP Fit Center  608 is at   2.538241  2.507368  1.047725
      ESP Fit Center  609 is at   1.726467  2.507368  1.047725
      ESP Fit Center  610 is at   2.329779  2.884114  0.374097
      ESP Fit Center  611 is at   2.329779  2.884114 -0.373573
      ESP Fit Center  612 is at   2.538241  2.507368 -1.047201
      ESP Fit Center  613 is at   1.726467  2.507368 -1.047201
      ESP Fit Center  614 is at   2.496816  1.889444 -1.513366
      ESP Fit Center  615 is at   1.767892  1.889444 -1.513366
      ESP Fit Center  616 is at   0.893996  2.274153  1.513908
      ESP Fit Center  617 is at   0.529533  2.905420  1.513908
      ESP Fit Center  618 is at  -0.199391  2.905420  1.513908
      ESP Fit Center  619 is at   1.227696  3.046195  1.047743
[...]
 3559 Fit      -0.004753
 3560 Fit      -0.013008
 3561 Fit      -0.017845
 3562 Fit      -0.016100
 3563 Fit      -0.011335
 3564 Fit      -0.002982
 3565 Fit      -0.001124
 3566 Fit       0.003035
 3567 Fit       0.000917
 3568 Fit      -0.004556
 3569 Fit      -0.009007
 3570 Fit       0.007192
 3571 Fit       0.009199
 3572 Fit       0.008110
 3573 Fit       0.004175
 3574 Fit      -0.015395
 3575 Fit       0.015185
 3576 Fit       0.015481
 3577 Fit       0.014223
 3578 Fit       0.011117
 3579 Fit       0.015179
 3580 Fit       0.015477
 3581 Fit       0.014220
 3582 Fit       0.011114
 3583 Fit       0.007186
 3584 Fit       0.009194
 3585 Fit       0.008106
 3586 Fit       0.004171
 3587 Fit      -0.015402
 3588 Fit      -0.001130
 3589 Fit       0.003030
 3590 Fit       0.000913
 3591 Fit      -0.004562
 3592 Fit      -0.009013
 3593 Fit      -0.002988
 3594 Fit      -0.005912
 3595 Fit      -0.004525
 3596 Fit      -0.001517
 3597 Fit      -0.009498
 3598 Fit       0.003954
 3599 Fit      -0.015238
 3600 Fit       0.003950
 3601 Fit      -0.015244
 3602 Fit      -0.004531
 3603 Fit      -0.001522
 3604 Fit      -0.009503
 3605 Fit      -0.005916
 3606 Fit      -0.002344
 3607 Fit      -0.000865
 3608 Fit       0.001686
 3609 Fit       0.000569
 3610 Fit       0.005371
 3611 Fit       0.006328
 3612 Fit       0.005690
 3613 Fit       0.003905
 3614 Fit       0.011676
 3615 Fit       0.011349
 3616 Fit       0.010355
 3617 Fit       0.008805
 3618 Fit       0.006891
 3619 Fit       0.011280
 3620 Fit       0.011276
 3621 Fit       0.011672
 3622 Fit       0.011346
 3623 Fit       0.010352
 3624 Fit       0.008802
 3625 Fit       0.006887
 3626 Fit       0.005367
 3627 Fit       0.006324
 3628 Fit       0.005687
 3629 Fit       0.003902
 3630 Fit      -0.000868
 3631 Fit       0.001683
 3632 Fit       0.000566
 3633 Fit      -0.002347
 3634 Fit       0.001859
 3635 Fit       0.001857
 3636 Fit       0.006014
 3637 Fit       0.005472
 3638 Fit       0.010123
 3639 Fit       0.009575
 3640 Fit       0.013939
 3641 Fit       0.015949
 3642 Fit       0.017277
 3643 Fit       0.015948
 3644 Fit       0.013937
 3645 Fit       0.010120
 3646 Fit       0.009570
 3647 Fit       0.006010
 3648 Fit       0.005467
 3649 Fit       0.001855
 3650 Fit       0.001852
 3651 Fit      -0.007056
 3652 Fit      -0.008046
 3653 Fit      -0.006719
 3654 Fit      -0.005919
 3655 Fit      -0.006214
 3656 Fit      -0.007206
 3657 Fit      -0.008227
 3658 Fit      -0.009275
 3659 Fit      -0.007766
 3660 Fit      -0.006205
 3661 Fit      -0.005153
 3662 Fit      -0.004775
 3663 Fit      -0.004960
 3664 Fit      -0.005465
 3665 Fit      -0.006190
 3666 Fit      -0.007171
 3667 Fit      -0.008359
 3668 Fit      -0.009455
 3669 Fit      -0.009915
 3670 Fit      -0.010894
 3671 Fit      -0.009107
 3672 Fit      -0.007153
 3673 Fit      -0.005542
 3674 Fit      -0.004380
 3675 Fit      -0.003710
 3676 Fit      -0.003569
 3677 Fit      -0.003829
 3678 Fit      -0.004277
 3679 Fit      -0.004780
 3680 Fit      -0.005341
 3681 Fit      -0.006043
 3682 Fit      -0.006968
 3683 Fit      -0.008133
 3684 Fit      -0.009459
 3685 Fit      -0.010752
 3686 Fit      -0.011685
 3687 Fit      -0.011829
 3688 Fit      -0.013147
 3689 Fit      -0.010917
 3690 Fit      -0.008423
 3691 Fit      -0.006341
 3692 Fit      -0.004774
 3693 Fit      -0.003532
 3694 Fit      -0.002613
 3695 Fit      -0.002168
 3696 Fit      -0.002228
 3697 Fit      -0.002634
 3698 Fit      -0.003169
 3699 Fit      -0.003687
 3700 Fit      -0.004148
 3701 Fit      -0.004591
 3702 Fit      -0.005098
 3703 Fit      -0.005756
 3704 Fit      -0.006629
 3705 Fit      -0.007742
 3706 Fit      -0.009076
 3707 Fit      -0.010572
 3708 Fit      -0.012115
 3709 Fit      -0.013504
 3710 Fit      -0.014403
 3711 Fit      -0.014380
 3712 Fit      -0.016437
 3713 Fit      -0.013404
 3714 Fit      -0.009908
 3715 Fit      -0.007079
 3716 Fit      -0.005199
 3717 Fit      -0.003749
 3718 Fit      -0.002361
 3719 Fit      -0.001159
 3720 Fit      -0.000460
 3721 Fit      -0.000406
 3722 Fit      -0.000864
 3723 Fit      -0.001565
 3724 Fit      -0.002281
 3725 Fit      -0.002892
 3726 Fit      -0.003370
 3727 Fit      -0.003753
 3728 Fit      -0.004116
 3729 Fit      -0.004543
 3730 Fit      -0.005113
 3731 Fit      -0.005887
 3732 Fit      -0.006899
 3733 Fit      -0.008155
 3734 Fit      -0.009646
 3735 Fit      -0.011345
 3736 Fit      -0.013204
 3737 Fit      -0.015121
 3738 Fit      -0.016874
 3739 Fit      -0.018041
 3740 Fit      -0.018041
 3741 Fit      -0.021464
 3742 Fit      -0.017059
 3743 Fit      -0.011678
 3744 Fit      -0.000554
 3745 Fit       0.001083
 3746 Fit       0.001963
 3747 Fit       0.001919
 3748 Fit       0.001181
 3749 Fit       0.000144
 3750 Fit      -0.000888
 3751 Fit      -0.001754
 3752 Fit      -0.002410
 3753 Fit      -0.002875
 3754 Fit      -0.003211
 3755 Fit      -0.003498
 3756 Fit      -0.003821
 3757 Fit      -0.004260
 3758 Fit      -0.004880
 3759 Fit      -0.005722
 3760 Fit      -0.006813
 3761 Fit      -0.008161
 3762 Fit      -0.009766
 3763 Fit      -0.011632
 3764 Fit      -0.013765
 3765 Fit      -0.016163
 3766 Fit      -0.018757
 3767 Fit      -0.021295
 3768 Fit      -0.023184
 3769 Fit      -0.023510
 3770 Fit       0.005512
 3771 Fit       0.005145
 3772 Fit       0.003873
 3773 Fit       0.002293
 3774 Fit       0.000801
 3775 Fit      -0.000432
 3776 Fit      -0.001364
 3777 Fit      -0.002021
 3778 Fit      -0.002457
 3779 Fit      -0.002747
 3780 Fit      -0.002970
 3781 Fit      -0.003207
 3782 Fit      -0.003533
 3783 Fit      -0.004009
 3784 Fit      -0.004683
 3785 Fit      -0.005587
 3786 Fit      -0.006736
 3787 Fit      -0.008140
 3788 Fit      -0.009810
 3789 Fit      -0.011768
 3790 Fit      -0.014058
 3791 Fit      -0.016751
 3792 Fit      -0.019923
 3793 Fit      -0.023578
 3794 Fit      -0.027451
 3795 Fit      -0.030717
 3796 Fit      -0.031928
 3797 Fit       0.006576
 3798 Fit       0.004155
 3799 Fit       0.002120
 3800 Fit       0.000542
 3801 Fit      -0.000616
 3802 Fit      -0.001420
 3803 Fit      -0.001944
 3804 Fit      -0.002269
 3805 Fit      -0.002476
 3806 Fit      -0.002644
 3807 Fit      -0.002849
 3808 Fit      -0.003157
 3809 Fit      -0.003623
 3810 Fit      -0.004289
 3811 Fit      -0.005181
 3812 Fit      -0.006316
 3813 Fit      -0.007704
 3814 Fit      -0.009359
 3815 Fit      -0.011310
 3816 Fit      -0.013617
 3817 Fit      -0.016384
 3818 Fit      -0.019778
 3819 Fit      -0.024018
 3820 Fit      -0.029289
 3821 Fit      -0.035463
 3822 Fit      -0.041516
 3823 Fit       0.006806
 3824 Fit       0.003913
 3825 Fit       0.001778
 3826 Fit       0.000252
 3827 Fit      -0.000796
 3828 Fit      -0.001479
 3829 Fit      -0.001894
 3830 Fit      -0.002132
 3831 Fit      -0.002283
 3832 Fit      -0.002427
 3833 Fit      -0.002640
 3834 Fit      -0.002985
 3835 Fit      -0.003513
 3836 Fit      -0.004261
 3837 Fit      -0.005251
 3838 Fit      -0.006497
 3839 Fit      -0.008013
 3840 Fit      -0.009820
 3841 Fit      -0.011964
 3842 Fit      -0.014537
 3843 Fit      -0.017706
 3844 Fit      -0.021749
 3845 Fit      -0.027096
 3846 Fit      -0.034308
 3847 Fit      -0.043796
 3848 Fit       0.009360
 3849 Fit       0.005626
 3850 Fit       0.002959
 3851 Fit       0.001081
 3852 Fit      -0.000214
 3853 Fit      -0.001070
 3854 Fit      -0.001601
 3855 Fit      -0.001906
 3856 Fit      -0.002077
 3857 Fit      -0.002197
 3858 Fit      -0.002345
 3859 Fit      -0.002589
 3860 Fit      -0.002988
 3861 Fit      -0.003584
 3862 Fit      -0.004407
 3863 Fit      -0.005477
 3864 Fit      -0.006807
 3865 Fit      -0.008412
 3866 Fit      -0.010319
 3867 Fit      -0.012589
 3868 Fit      -0.015339
 3869 Fit      -0.018780
 3870 Fit      -0.023277
 3871 Fit      -0.029423
 3872 Fit      -0.038118
 3873 Fit      -0.050413
 3874 Fit       0.009358
 3875 Fit       0.005625
 3876 Fit       0.002959
 3877 Fit       0.001080
 3878 Fit      -0.000214
 3879 Fit      -0.001070
 3880 Fit      -0.001601
 3881 Fit      -0.001907
 3882 Fit      -0.002077
 3883 Fit      -0.002197
 3884 Fit      -0.002345
 3885 Fit      -0.002589
 3886 Fit      -0.002988
 3887 Fit      -0.003583
 3888 Fit      -0.004407
 3889 Fit      -0.005477
 3890 Fit      -0.006807
 3891 Fit      -0.008411
 3892 Fit      -0.010319
 3893 Fit      -0.012589
 3894 Fit      -0.015339
 3895 Fit      -0.018780
 3896 Fit      -0.023276
 3897 Fit      -0.029423
 3898 Fit      -0.038117
 3899 Fit      -0.050411
 3900 Fit       0.006801
 3901 Fit       0.003910
 3902 Fit       0.001776
 3903 Fit       0.000251
 3904 Fit      -0.000797
 3905 Fit      -0.001479
 3906 Fit      -0.001894
 3907 Fit      -0.002132
 3908 Fit      -0.002283
 3909 Fit      -0.002427
 3910 Fit      -0.002640
 3911 Fit      -0.002985
 3912 Fit      -0.003513
 3913 Fit      -0.004261
 3914 Fit      -0.005250
 3915 Fit      -0.006497
 3916 Fit      -0.008013
 3917 Fit      -0.009820
 3918 Fit      -0.011964
 3919 Fit      -0.014537
 3920 Fit      -0.017705
 3921 Fit      -0.021748
 3922 Fit      -0.027095
 3923 Fit      -0.034305
 3924 Fit      -0.043792
 3925 Fit       0.006569
 3926 Fit       0.004150
 3927 Fit       0.002117
 3928 Fit       0.000540
 3929 Fit      -0.000618
 3930 Fit      -0.001421
 3931 Fit      -0.001945
 3932 Fit      -0.002270
 3933 Fit      -0.002476
 3934 Fit      -0.002644
 3935 Fit      -0.002848
 3936 Fit      -0.003157
 3937 Fit      -0.003623
 3938 Fit      -0.004289
 3939 Fit      -0.005181
 3940 Fit      -0.006315
 3941 Fit      -0.007703
 3942 Fit      -0.009358
 3943 Fit      -0.011310
 3944 Fit      -0.013616
 3945 Fit      -0.016383
 3946 Fit      -0.019777
 3947 Fit      -0.024016
 3948 Fit      -0.029287
 3949 Fit      -0.035458
 3950 Fit      -0.041508
 3951 Fit       0.005502
 3952 Fit       0.005136
 3953 Fit       0.003866
 3954 Fit       0.002288
 3955 Fit       0.000798
 3956 Fit      -0.000434
 3957 Fit      -0.001366
 3958 Fit      -0.002022
 3959 Fit      -0.002458
 3960 Fit      -0.002747
 3961 Fit      -0.002970
 3962 Fit      -0.003207
 3963 Fit      -0.003532
 3964 Fit      -0.004009
 3965 Fit      -0.004683
 3966 Fit      -0.005586
 3967 Fit      -0.006735
 3968 Fit      -0.008140
 3969 Fit      -0.009810
 3970 Fit      -0.011767
 3971 Fit      -0.014057
 3972 Fit      -0.016750
 3973 Fit      -0.019922
 3974 Fit      -0.023576
 3975 Fit      -0.027448
 3976 Fit      -0.030713
 3977 Fit      -0.031922
 3978 Fit      -0.021462
 3979 Fit      -0.017060
 3980 Fit      -0.011681
 3981 Fit      -0.000557
 3982 Fit       0.001078
 3983 Fit       0.001957
 3984 Fit       0.001913
 3985 Fit       0.001177
 3986 Fit       0.000140
 3987 Fit      -0.000890
 3988 Fit      -0.001756
 3989 Fit      -0.002411
 3990 Fit      -0.002876
 3991 Fit      -0.003211
 3992 Fit      -0.003498
 3993 Fit      -0.003821
 3994 Fit      -0.004260
 3995 Fit      -0.004879
 3996 Fit      -0.005722
 3997 Fit      -0.006813
 3998 Fit      -0.008160
 3999 Fit      -0.009766
 4000 Fit      -0.011631
 4001 Fit      -0.013764
 4002 Fit      -0.016162
 4003 Fit      -0.018756
 4004 Fit      -0.021293
 4005 Fit      -0.023181
 4006 Fit      -0.023508
 4007 Fit      -0.016436
 4008 Fit      -0.013405
 4009 Fit      -0.009910
 4010 Fit      -0.007081
 4011 Fit      -0.005200
 4012 Fit      -0.003751
 4013 Fit      -0.002363
 4014 Fit      -0.001163
 4015 Fit      -0.000464
 4016 Fit      -0.000410
 4017 Fit      -0.000867
 4018 Fit      -0.001567
 4019 Fit      -0.002283
 4020 Fit      -0.002893
 4021 Fit      -0.003371
 4022 Fit      -0.003754
 4023 Fit      -0.004116
 4024 Fit      -0.004543
 4025 Fit      -0.005113
 4026 Fit      -0.005887
 4027 Fit      -0.006898
 4028 Fit      -0.008155
 4029 Fit      -0.009646
 4030 Fit      -0.011345
 4031 Fit      -0.013203
 4032 Fit      -0.015120
 4033 Fit      -0.016873
 4034 Fit      -0.018040
 4035 Fit      -0.018040
 4036 Fit      -0.013148
 4037 Fit      -0.010918
 4038 Fit      -0.008424
 4039 Fit      -0.006342
 4040 Fit      -0.004775
 4041 Fit      -0.003534
 4042 Fit      -0.002616
 4043 Fit      -0.002171
 4044 Fit      -0.002231
 4045 Fit      -0.002636
 4046 Fit      -0.003171
 4047 Fit      -0.003688
 4048 Fit      -0.004148
 4049 Fit      -0.004591
 4050 Fit      -0.005098
 4051 Fit      -0.005756
 4052 Fit      -0.006629
 4053 Fit      -0.007742
 4054 Fit      -0.009076
 4055 Fit      -0.010572
 4056 Fit      -0.012115
 4057 Fit      -0.013504
 4058 Fit      -0.014402
 4059 Fit      -0.014379
 4060 Fit      -0.010895
 4061 Fit      -0.009108
 4062 Fit      -0.007154
 4063 Fit      -0.005544
 4064 Fit      -0.004382
 4065 Fit      -0.003712
 4066 Fit      -0.003571
 4067 Fit      -0.003831
 4068 Fit      -0.004278
 4069 Fit      -0.004781
 4070 Fit      -0.005342
 4071 Fit      -0.006043
 4072 Fit      -0.006968
 4073 Fit      -0.008133
 4074 Fit      -0.009459
 4075 Fit      -0.010752
 4076 Fit      -0.011685
 4077 Fit      -0.011830
 4078 Fit      -0.009276
 4079 Fit      -0.007767
 4080 Fit      -0.006207
 4081 Fit      -0.005154
 4082 Fit      -0.004777
 4083 Fit      -0.004961
 4084 Fit      -0.005466
 4085 Fit      -0.006191
 4086 Fit      -0.007171
 4087 Fit      -0.008359
 4088 Fit      -0.009455
 4089 Fit      -0.009915
 4090 Fit      -0.008047
 4091 Fit      -0.006720
 4092 Fit      -0.005920
 4093 Fit      -0.006215
 4094 Fit      -0.007207
 4095 Fit      -0.008227
 4096 Fit      -0.007057
 4097 Fit       0.007282
 4098 Fit       0.008459
 4099 Fit       0.011488
 4100 Fit       0.009119
 4101 Fit       0.010170
 4102 Fit       0.010943
 4103 Fit       0.013332
 4104 Fit       0.014442
 4105 Fit       0.009505
 4106 Fit       0.010206
 4107 Fit       0.011090
 4108 Fit       0.011901
 4109 Fit       0.012602
 4110 Fit       0.014264
 4111 Fit       0.015741
 4112 Fit       0.010436
 4113 Fit       0.011033
 4114 Fit       0.011867
 4115 Fit       0.012662
 4116 Fit       0.013399
 4117 Fit       0.014265
 4118 Fit       0.015744
 4119 Fit       0.010434
 4120 Fit       0.011032
 4121 Fit       0.011866
 4122 Fit       0.012662
 4123 Fit       0.013399
 4124 Fit       0.013334
 4125 Fit       0.014448
 4126 Fit       0.009498
 4127 Fit       0.010202
 4128 Fit       0.011088
 4129 Fit       0.011900
 4130 Fit       0.012602
 4131 Fit       0.011491
 4132 Fit       0.009113
 4133 Fit       0.010167
 4134 Fit       0.010942
 4135 Fit       0.007275
 4136 Fit       0.008456
 4137 Fit      -0.015813
 4138 Fit      -0.007443
 4139 Fit      -0.012381
 4140 Fit      -0.004766
 4141 Fit       0.000420
 4142 Fit      -0.011297
 4143 Fit      -0.004048
 4144 Fit       0.001038
 4145 Fit       0.005058
 4146 Fit      -0.019486
 4147 Fit      -0.009017
 4148 Fit      -0.002198
 4149 Fit       0.002697
 4150 Fit       0.006873
 4151 Fit      -0.019490
 4152 Fit      -0.009019
 4153 Fit      -0.002200
 4154 Fit       0.002695
 4155 Fit       0.006872
 4156 Fit      -0.011307
 4157 Fit      -0.004054
 4158 Fit       0.001033
 4159 Fit       0.005054
 4160 Fit      -0.012396
 4161 Fit      -0.004776
 4162 Fit       0.000411
 4163 Fit      -0.015835
 4164 Fit      -0.007458
 4165 Fit       0.013318
 4166 Fit       0.013334
 4167 Fit       0.014749
 4168 Fit       0.015548
 4169 Fit       0.015998
 4170 Fit       0.016055
 4171 Fit       0.016495
 4172 Fit       0.017017
 4173 Fit       0.017463
 4174 Fit       0.017757
 4175 Fit       0.017935
 4176 Fit       0.016137
 4177 Fit       0.017377
 4178 Fit       0.017784
 4179 Fit       0.018209
 4180 Fit       0.018544
 4181 Fit       0.018835
 4182 Fit       0.017332
 4183 Fit       0.017377
 4184 Fit       0.017785
 4185 Fit       0.018210
 4186 Fit       0.018545
 4187 Fit       0.018836
 4188 Fit       0.017331
 4189 Fit       0.016497
 4190 Fit       0.017019
 4191 Fit       0.017466
 4192 Fit       0.017759
 4193 Fit       0.017936
 4194 Fit       0.016136
 4195 Fit       0.014752
 4196 Fit       0.015552
 4197 Fit       0.016002
 4198 Fit       0.016058
 4199 Fit       0.013323
 4200 Fit       0.013339
 4201 Fit       0.025164
 4202 Fit       0.029550
 4203 Fit       0.029546
 4204 Fit       0.025158
 4205 Fit       0.020506
 4206 Fit       0.019734
 4207 Fit       0.018494
 4208 Fit       0.024398
 4209 Fit       0.022891
 4210 Fit       0.022284
 4211 Fit       0.029388
 4212 Fit       0.026189
 4213 Fit       0.024857
 4214 Fit       0.024872
 4215 Fit       0.027906
 4216 Fit       0.026092
 4217 Fit       0.026030
 4218 Fit       0.027905
 4219 Fit       0.026091
 4220 Fit       0.026030
 4221 Fit       0.029385
 4222 Fit       0.026187
 4223 Fit       0.024856
 4224 Fit       0.024872
 4225 Fit       0.024394
 4226 Fit       0.022889
 4227 Fit       0.022283
 4228 Fit       0.020501
 4229 Fit       0.019731
 4230 Fit       0.018492
 4231 Fit       0.014724
 4232 Fit       0.013278
 4233 Fit       0.019460
 4234 Fit       0.017686
 4235 Fit       0.016255
 4236 Fit       0.014969
 4237 Fit       0.024226
 4238 Fit       0.021186
 4239 Fit       0.019273
 4240 Fit       0.017902
 4241 Fit       0.016842
 4242 Fit       0.016139
 4243 Fit       0.027037
 4244 Fit       0.022904
 4245 Fit       0.020561
 4246 Fit       0.019020
 4247 Fit       0.017907
 4248 Fit       0.017216
 4249 Fit       0.017333
 4250 Fit       0.027036
 4251 Fit       0.022903
 4252 Fit       0.020561
 4253 Fit       0.019020
 4254 Fit       0.017907
 4255 Fit       0.017216
 4256 Fit       0.017332
 4257 Fit       0.024224
 4258 Fit       0.021185
 4259 Fit       0.019272
 4260 Fit       0.017901
 4261 Fit       0.016841
 4262 Fit       0.016137
 4263 Fit       0.019457
 4264 Fit       0.017685
 4265 Fit       0.016253
 4266 Fit       0.014967
 4267 Fit       0.014721
 4268 Fit       0.013276
 4269 Fit       0.007630
 4270 Fit       0.011078
 4271 Fit       0.010016
 4272 Fit       0.013358
 4273 Fit       0.012245
 4274 Fit       0.011024
 4275 Fit       0.014880
 4276 Fit       0.013523
 4277 Fit       0.012329
 4278 Fit       0.010886
 4279 Fit       0.014880
 4280 Fit       0.013523
 4281 Fit       0.012329
 4282 Fit       0.010886
 4283 Fit       0.013357
 4284 Fit       0.012244
 4285 Fit       0.011022
 4286 Fit       0.011076
 4287 Fit       0.010013
 4288 Fit       0.007627
 -----------------------------------------------------------------
 Leave Link  602 at Thu Jan 16 22:39:56 2014, MaxMem=   235929600 cpu:         1.7

 Test job not archived.
 1\1\GINC-G33\SP\RHF\Gen\C10H7Br1N2O2S1\KOLAR\16-Jan-2014\0\\# hf/gen p
 op=mk iop(6/33=2,6/41=5,6/42=2)\\na resp\\0,1\C,0,6.301907,-0.964465,0
 .0001\C,0,4.97649,-1.479545,0.000481\C,0,4.010111,-0.502768,0.000042\S
 ,0,4.748379,1.088352,-0.000244\C,0,6.339688,0.404354,-0.000612\C,0,2.5
 53479,-0.796125,0.000074\O,0,2.132579,-1.938611,0.000165\N,0,1.726943,
 0.322844,0.000134\N,0,0.37977,0.191624,0.00018\C,0,-0.305126,1.28119,0
 .000267\C,0,-1.744294,1.293637,0.000187\C,0,-2.636183,2.339046,0.00011
 6\C,0,-3.942919,1.768792,0.00029\C,0,-3.745045,0.418603,-0.000007\O,0,
 -2.429488,0.10349,-0.000018\Br,0,-4.952106,-1.001476,-0.000179\H,0,7.1
 92177,-1.583561,0.000226\H,0,4.714524,-2.530721,0.00092\H,0,7.204539,1
 .054483,-0.0011\H,0,2.132354,1.258177,0.000262\H,0,0.165071,2.274153,0
 .00028\H,0,-2.384574,3.390887,0.000146\H,0,-4.894826,2.278012,0.000436
 \\Version=AM64L-G09RevD.01\State=1-A\HF=-3608.3843738\RMSD=5.227e-09\D
 ipole=1.1276193,2.2865585,0.0002305\Quadrupole=16.4908657,-3.5854276,-
 12.905438,-1.9067815,-0.0009042,-0.0004415\PG=C01 [X(C10H7Br1N2O2S1)]\
 \@


 AND ALL THIS SCIENCE I DON'T UNDERSTAND
 IT'S JUST MY JOB FIVE DAYS A WEEK

                           -- ELTON JOHN, "ROCKET MAN"
 Job cpu time:       0 days  0 hours  3 minutes  9.3 seconds.
 File lengths (MBytes):  RWF=     37 Int=      0 D2E=      0 Chk=      3 Scr=      1
 Normal termination of Gaussian 09 at Thu Jan 16 22:39:56 2014.
188.88user 0.49system 3:09.71elapsed 99%CPU (0avgtext+0avgdata 603408maxresident)k
8inputs+170760outputs (0major+172629minor)pagefaults 0swaps
