Linux g42 2.6.38.6-client #1 SMP Tue Jun 12 11:27:21 CEST 2012 x86_64 GNU/Linux
Fri Jan 17 11:54:31 CET 2014

 Entering Gaussian System, Link 0=/usr/local/programs/common/gaussian/gaussian09_d01/arch/amd64-pgi_10.4.0-acml/g09/g09
 Initial command:
 /usr/local/programs/common/gaussian/gaussian09_d01/arch/amd64-pgi_10.4.0-acml/g09/l1.exe "/scratch/kolar/g09_20052/Gau-20624.inp" -scrdir="/scratch/kolar/g09_20052/"
 Entering Link 1 = /usr/local/programs/common/gaussian/gaussian09_d01/arch/amd64-pgi_10.4.0-acml/g09/l1.exe PID=     20631.
  
 Copyright (c) 1988,1990,1992,1993,1995,1998,2003,2009,2013,
            Gaussian, Inc.  All Rights Reserved.
  
 This is part of the Gaussian(R) 09 program.  It is based on
 the Gaussian(R) 03 system (copyright 2003, Gaussian, Inc.),
 the Gaussian(R) 98 system (copyright 1998, Gaussian, Inc.),
 the Gaussian(R) 94 system (copyright 1995, Gaussian, Inc.),
 the Gaussian 92(TM) system (copyright 1992, Gaussian, Inc.),
 the Gaussian 90(TM) system (copyright 1990, Gaussian, Inc.),
 the Gaussian 88(TM) system (copyright 1988, Gaussian, Inc.),
 the Gaussian 86(TM) system (copyright 1986, Carnegie Mellon
 University), and the Gaussian 82(TM) system (copyright 1983,
 Carnegie Mellon University). Gaussian is a federally registered
 trademark of Gaussian, Inc.
  
 This software contains proprietary and confidential information,
 including trade secrets, belonging to Gaussian, Inc.
  
 This software is provided under written license and may be
 used, copied, transmitted, or stored only in accord with that
 written license.
  
 The following legend is applicable only to US Government
 contracts under FAR:
  
                    RESTRICTED RIGHTS LEGEND
  
 Use, reproduction and disclosure by the US Government is
 subject to restrictions as set forth in subparagraphs (a)
 and (c) of the Commercial Computer Software - Restricted
 Rights clause in FAR 52.227-19.
  
 Gaussian, Inc.
 340 Quinnipiac St., Bldg. 40, Wallingford CT 06492
  
  
 ---------------------------------------------------------------
 Warning -- This program may not be used in any manner that
 competes with the business of Gaussian, Inc. or will provide
 assistance to any competitor of Gaussian, Inc.  The licensee
 of this program is prohibited from giving any competitor of
 Gaussian, Inc. access to this program.  By using this program,
 the user acknowledges that Gaussian, Inc. is engaged in the
 business of creating and licensing software in the field of
 computational chemistry and represents and warrants to the
 licensee that it is not a competitor of Gaussian, Inc. and that
 it will not use this program in any manner prohibited above.
 ---------------------------------------------------------------
  

 Cite this work as:
 Gaussian 09, Revision D.01,
 M. J. Frisch, G. W. Trucks, H. B. Schlegel, G. E. Scuseria, 
 M. A. Robb, J. R. Cheeseman, G. Scalmani, V. Barone, B. Mennucci, 
 G. A. Petersson, H. Nakatsuji, M. Caricato, X. Li, H. P. Hratchian, 
 A. F. Izmaylov, J. Bloino, G. Zheng, J. L. Sonnenberg, M. Hada, 
 M. Ehara, K. Toyota, R. Fukuda, J. Hasegawa, M. Ishida, T. Nakajima, 
 Y. Honda, O. Kitao, H. Nakai, T. Vreven, J. A. Montgomery, Jr., 
 J. E. Peralta, F. Ogliaro, M. Bearpark, J. J. Heyd, E. Brothers, 
 K. N. Kudin, V. N. Staroverov, T. Keith, R. Kobayashi, J. Normand, 
 K. Raghavachari, A. Rendell, J. C. Burant, S. S. Iyengar, J. Tomasi, 
 M. Cossi, N. Rega, J. M. Millam, M. Klene, J. E. Knox, J. B. Cross, 
 V. Bakken, C. Adamo, J. Jaramillo, R. Gomperts, R. E. Stratmann, 
 O. Yazyev, A. J. Austin, R. Cammi, C. Pomelli, J. W. Ochterski, 
 R. L. Martin, K. Morokuma, V. G. Zakrzewski, G. A. Voth, 
 P. Salvador, J. J. Dannenberg, S. Dapprich, A. D. Daniels, 
 O. Farkas, J. B. Foresman, J. V. Ortiz, J. Cioslowski, 
 and D. J. Fox, Gaussian, Inc., Wallingford CT, 2013.
 
 ******************************************
 Gaussian 09:  AM64L-G09RevD.01 24-Apr-2013
                17-Jan-2014 
 ******************************************
 %mem=1800mb
 ------------------------------------------------------------------
 # hf/gen pseudo=read pop=(mk, readradii) iop(6/33=2,6/41=5,6/42=2)
 ------------------------------------------------------------------
 1/38=1/1;
 2/12=2,17=6,18=5,40=1/2;
 3/5=7,11=9,16=1,17=8,25=1,30=1/1,2,3;
 4//1;
 5/5=2,38=5/2;
 6/7=2,8=2,9=2,10=2,15=8,20=101,28=1,33=2,41=5,42=2/1,2;
 99/5=1,9=1/99;
 -------
 na resp
 -------
 Symbolic Z-matrix:
 Charge =  0 Multiplicity = 1
 6                    -6.11981  -0.27225  -0.5731 
 6                    -5.5041   -1.47925  -0.23939 
 7                    -4.21169  -1.56483   0.07448 
 6                    -3.52632  -0.40493   0.05216 
 7                    -4.00194   0.80781  -0.23944 
 6                    -5.30061   0.85453  -0.55092 
 7                    -2.18928  -0.56206   0.40122 
 6                    -1.15735   0.35376   0.40331 
 7                    -1.14065   1.50585  -0.13226 
 6                     0.08804   2.2154    0.16979 
 6                     1.23731   1.21813   0.54205 
 1                     1.88718   1.64928   1.30626 
 16                    0.33429  -0.20167   1.28706 
 6                     2.0481    0.84129  -0.69055 
 53                    3.76644  -0.47449  -0.26156 
 1                    -7.17138  -0.21514  -0.83029 
 1                    -6.06349  -2.4134   -0.22218 
 1                    -5.6948    1.84128  -0.78967 
 1                    -1.96124  -1.51747   0.64357 
 1                    -0.08635   2.89674   1.01472 
 1                     0.38144   2.83365  -0.68717 
 1                     1.45352   0.30577  -1.43022 
 1                     2.49861   1.72631  -1.14347 
 
                          Input orientation:                          
 ---------------------------------------------------------------------
 Center     Atomic      Atomic             Coordinates (Angstroms)
 Number     Number       Type             X           Y           Z
 ---------------------------------------------------------------------
      1          6           0       -6.119814   -0.272250   -0.573096
      2          6           0       -5.504098   -1.479245   -0.239387
      3          7           0       -4.211690   -1.564834    0.074482
      4          6           0       -3.526321   -0.404931    0.052164
      5          7           0       -4.001939    0.807812   -0.239440
      6          6           0       -5.300610    0.854532   -0.550917
      7          7           0       -2.189275   -0.562063    0.401219
      8          6           0       -1.157352    0.353762    0.403311
      9          7           0       -1.140651    1.505851   -0.132261
     10          6           0        0.088039    2.215399    0.169788
     11          6           0        1.237314    1.218129    0.542048
     12          1           0        1.887179    1.649275    1.306264
     13         16           0        0.334293   -0.201671    1.287060
     14          6           0        2.048100    0.841287   -0.690550
     15         53           0        3.766437   -0.474485   -0.261560
     16          1           0       -7.171378   -0.215138   -0.830294
     17          1           0       -6.063494   -2.413403   -0.222182
     18          1           0       -5.694802    1.841275   -0.789667
     19          1           0       -1.961240   -1.517468    0.643566
     20          1           0       -0.086352    2.896738    1.014718
     21          1           0        0.381438    2.833654   -0.687171
     22          1           0        1.453515    0.305769   -1.430223
     23          1           0        2.498605    1.726306   -1.143469
 ---------------------------------------------------------------------
                    Distance matrix (angstroms):
                    1          2          3          4          5
     1  C    0.000000
     2  C    1.395459   0.000000
     3  N    2.393965   1.332726   0.000000
     4  C    2.671097   2.269527   1.347443   0.000000
     5  N    2.400678   2.736259   2.402497   1.334912   0.000000
     6  C    1.393278   2.363255   2.725840   2.257887   1.336318
     7  N    4.059854   3.498521   2.280892   1.390763   2.360668
     8  C    5.096204   4.761006   3.621894   2.512157   2.951434
     9  N    5.305473   5.287905   4.347773   3.062111   2.947154
    10  C    6.728872   6.714895   5.725986   4.465822   4.344731
    11  C    7.588946   7.302952   6.136379   5.056335   5.313083
    12  H    8.446075   8.173595   7.003141   5.924400   6.146460
    13  S    6.717191   6.168391   4.898420   4.058402   4.706609
    14  C    8.244306   7.913540   6.749790   5.760109   6.066926
    15  I    9.893226   9.324851   8.059299   7.299834   7.873528
    16  H    1.084066   2.174157   3.376396   3.755156   3.382437
    17  H    2.170449   1.088977   2.058460   3.247533   3.824465
    18  H    2.166686   3.371206   3.814178   3.233640   2.058296
    19  H    4.508278   3.651426   2.321772   2.009222   3.217309
    20  H    6.997593   7.076297   6.148828   4.864249   4.611762
    21  H    7.205965   7.310345   6.404970   5.128901   4.849587
    22  H    7.643565   7.280985   6.152873   5.244171   5.606424
    23  H    8.865478   8.668113   7.572520   6.501649   6.627064
                    6          7          8          9         10
     6  C    0.000000
     7  N    3.548762   0.000000
     8  C    4.281111   1.379712   0.000000
     9  N    4.231400   2.379177   1.270600   0.000000
    10  C    5.604366   3.599169   2.251938   1.450645   0.000000
    11  C    6.638616   3.863991   2.549667   2.488412   1.566511
    12  H    7.466261   4.725103   3.429701   3.355247   2.202040
    13  S    6.020453   2.698702   1.820583   2.665626   2.674166
    14  C    7.350048   4.595291   3.421861   3.304764   2.543660
    15  I    9.168498   5.993117   5.037037   5.293200   4.577352
    16  H    2.173021   5.143766   6.165544   6.310208   7.720545
    17  H    3.371863   4.338855   5.667334   6.293093   7.708489
    18  H    1.089060   4.413951   4.921823   4.613565   5.873821
    19  H    4.266681   1.011697   2.050722   3.227341   4.284659
    20  H    5.814663   4.094139   2.826232   2.088462   1.099337
    21  H    6.018402   4.395913   3.115588   2.094693   1.096677
    22  H    6.833193   4.168601   3.190733   3.139204   2.840994
    23  H    7.870125   5.440488   4.200289   3.783560   2.788312
                   11         12         13         14         15
    11  C    0.000000
    12  H    1.091896   0.000000
    13  S    1.840196   2.416159   0.000000
    14  C    1.522722   2.160094   2.817062   0.000000
    15  I    3.147569   3.240376   3.775217   2.206348   0.000000
    16  H    8.639657   9.492016   7.798620   9.280859  10.955661
    17  H    8.189864   9.058405   6.935506   8.752733  10.019406
    18  H    7.086325   7.868686   6.696000   7.807838   9.754829
    19  H    4.210053   5.027699   2.723027   4.839256   5.891804
    20  H    2.189346   2.352868   3.138670   3.418875   5.276174
    21  H    2.203049   2.764741   3.621189   2.597557   4.752173
    22  H    2.183803   3.079194   2.982244   1.089691   2.706322
    23  H    2.165656   2.526058   3.782699   1.091489   2.688613
                   16         17         18         19         20
    16  H    0.000000
    17  H    2.535661   0.000000
    18  H    2.531948   4.308162   0.000000
    19  H    5.569009   4.287273   5.222528   0.000000
    20  H    7.955214   8.090349   5.985359   4.810216   0.000000
    21  H    8.146204   8.323759   6.157598   5.117740   1.766135
    22  H    8.661411   8.084472   7.339382   4.391508   3.880985
    23  H    9.867920   9.554868   8.201848   5.797049   3.565064
                   21         22         23
    21  H    0.000000
    22  H    2.844587   0.000000
    23  H    2.432452   1.786719   0.000000
 Stoichiometry    C8H9IN4S
 Framework group  C1[X(C8H9IN4S)]
 Deg. of freedom    63
 Full point group                 C1      NOp   1
 Largest Abelian subgroup         C1      NOp   1
 Largest concise Abelian subgroup C1      NOp   1
                         Standard orientation:                         
 ---------------------------------------------------------------------
 Center     Atomic      Atomic             Coordinates (Angstroms)
 Number     Number       Type             X           Y           Z
 ---------------------------------------------------------------------
      1          6           0       -6.119814   -0.272250   -0.573096
      2          6           0       -5.504098   -1.479245   -0.239387
      3          7           0       -4.211690   -1.564834    0.074482
      4          6           0       -3.526321   -0.404931    0.052164
      5          7           0       -4.001939    0.807812   -0.239440
      6          6           0       -5.300610    0.854532   -0.550917
      7          7           0       -2.189275   -0.562063    0.401219
      8          6           0       -1.157352    0.353762    0.403311
      9          7           0       -1.140651    1.505851   -0.132261
     10          6           0        0.088039    2.215399    0.169788
     11          6           0        1.237314    1.218129    0.542048
     12          1           0        1.887179    1.649275    1.306264
     13         16           0        0.334293   -0.201671    1.287060
     14          6           0        2.048100    0.841287   -0.690550
     15         53           0        3.766437   -0.474485   -0.261560
     16          1           0       -7.171378   -0.215138   -0.830294
     17          1           0       -6.063494   -2.413403   -0.222182
     18          1           0       -5.694802    1.841275   -0.789667
     19          1           0       -1.961240   -1.517468    0.643566
     20          1           0       -0.086352    2.896738    1.014718
     21          1           0        0.381438    2.833654   -0.687171
     22          1           0        1.453515    0.305769   -1.430223
     23          1           0        2.498605    1.726306   -1.143469
 ---------------------------------------------------------------------
 Rotational constants (GHZ):      1.4055918      0.1279354      0.1225507
 General basis read from cards:  (5D, 7F)
 ======================================================================================================
                                       Pseudopotential Parameters
 ======================================================================================================
  Center     Atomic      Valence      Angular      Power
  Number     Number     Electrons     Momentum     of R      Exponent        Coefficient   SO-Coeffient
 ======================================================================================================
    1          6
                                   No pseudopotential on this center.
    2          6
                                   No pseudopotential on this center.
    3          7
                                   No pseudopotential on this center.
    4          6
                                   No pseudopotential on this center.
    5          7
                                   No pseudopotential on this center.
    6          6
                                   No pseudopotential on this center.
    7          7
                                   No pseudopotential on this center.
    8          6
                                   No pseudopotential on this center.
    9          7
                                   No pseudopotential on this center.
   10          6
                                   No pseudopotential on this center.
   11          6
                                   No pseudopotential on this center.
   12          1
                                   No pseudopotential on this center.
   13         16
                                   No pseudopotential on this center.
   14          6
                                   No pseudopotential on this center.
   15         53            7
                                      F and up 
                                                     0        1.0715702       -0.07476210    0.00000000
                                                     1       44.1936028      -30.08112240    0.00000000
                                                     2       12.9367609      -75.37227210    0.00000000
                                                     2        3.1956412      -22.05637580    0.00000000
                                                     2        0.8589806       -1.69795850    0.00000000
                                      S - F
                                                     0      127.9202670        2.93800360    0.00000000
                                                     1       78.6211465       41.24712670    0.00000000
                                                     2       36.5146237      287.86800950    0.00000000
                                                     2        9.9065681      114.37585060    0.00000000
                                                     2        1.9420086       37.65477140    0.00000000
                                      P - F
                                                     0       13.0035304        2.22226300    0.00000000
                                                     1       76.0331404       39.40908310    0.00000000
                                                     2       24.1961684      177.40750020    0.00000000
                                                     2        6.4053433       77.98894620    0.00000000
                                                     2        1.5851786       25.75476410    0.00000000
                                      D - F
                                                     0       40.4278108        7.05243600    0.00000000
                                                     1       28.9084375       33.30416350    0.00000000
                                                     2       15.6268936      186.94538750    0.00000000
                                                     2        4.1442856       71.96883610    0.00000000
                                                     2        0.9377235        9.36306570    0.00000000
   16          1
                                   No pseudopotential on this center.
   17          1
                                   No pseudopotential on this center.
   18          1
                                   No pseudopotential on this center.
   19          1
                                   No pseudopotential on this center.
   20          1
                                   No pseudopotential on this center.
   21          1
                                   No pseudopotential on this center.
   22          1
                                   No pseudopotential on this center.
   23          1
                                   No pseudopotential on this center.
 ======================================================================================================
 There are   225 symmetry adapted cartesian basis functions of A   symmetry.
 There are   212 symmetry adapted basis functions of A   symmetry.
   212 basis functions,   436 primitive gaussians,   225 cartesian basis functions
    54 alpha electrons       54 beta electrons
       nuclear repulsion energy       911.1892940759 Hartrees.
 NAtoms=   23 NActive=   23 NUniq=   23 SFac= 1.00D+00 NAtFMM=   60 NAOKFM=F Big=F
 Integral buffers will be    131072 words long.
 Raffenetti 1 integral format.
 Two-electron integral symmetry is turned on.
 One-electron integrals computed using PRISM.
   1 Symmetry operations used in ECPInt.
 ECPInt:  NShTT=    2850 NPrTT=   18614 LenC2=    2564 LenP2D=   10457.
 LDataN:  DoStor=T MaxTD1= 5 Len=  102
 NBasis=   212 RedAO= T EigKep=  1.70D-03  NBF=   212
 NBsUse=   212 1.00D-06 EigRej= -1.00D+00 NBFU=   212
 ExpMin= 1.05D-01 ExpMax= 2.19D+04 ExpMxC= 3.30D+03 IAcc=1 IRadAn=         1 AccDes= 0.00D+00
 Harris functional with IExCor=  205 and IRadAn=       1 diagonalized for initial guess.
 HarFok:  IExCor=  205 AccDes= 0.00D+00 IRadAn=         1 IDoV= 1 UseB2=F ITyADJ=14
 ICtDFT=  3500011 ScaDFX=  1.000000  1.000000  1.000000  1.000000
 Defaulting to unpruned grid for atomic number  53.
 FoFCou: FMM=F IPFlag=           0 FMFlag=      100000 FMFlg1=           0
         NFxFlg=           0 DoJE=T BraDBF=F KetDBF=T FulRan=T
         wScrn=  0.000000 ICntrl=     500 IOpCl=  0 I1Cent=   200000004 NGrid=           0
         NMat0=    1 NMatS0=      1 NMatT0=    0 NMatD0=    1 NMtDS0=    0 NMtDT0=    0
 Petite list used in FoFCou.
 Requested convergence on RMS density matrix=1.00D-08 within 128 cycles.
 Requested convergence on MAX density matrix=1.00D-06.
 Requested convergence on             energy=1.00D-06.
 No special actions if energy rises.
 Integral accuracy reduced to 1.0D-05 until final iterations.
 Initial convergence to 1.0D-05 achieved.  Increase integral accuracy.
 SCF Done:  E(RHF) =  -934.639336121     A.U. after   16 cycles
            NFock= 16  Conv=0.40D-08     -V/T= 2.0094

 **********************************************************************

            Population analysis using the SCF density.

 **********************************************************************

 Orbital symmetries:
 BldTbl:  Degeneracy threshold= 1.00D-02
       Occupied  (A) (A) (A) (A) (A) (A) (A) (A) (A) (A) (A) (A)
                 (A) (A) (A) (A) (A) (A) (A) (A) (A) (A) (A) (A)
                 (A) (A) (A) (A) (A) (A) (A) (A) (A) (A) (A) (A)
                 (A) (A) (A) (A) (A) (A) (A) (A) (A) (A) (A) (A)
                 (A) (A) (A) (A) (A) (A)
       Virtual   (A) (A) (A) (A) (A) (A) (A) (A) (A) (A) (A) (A)
                 (A) (A) (A) (A) (A) (A) (A) (A) (A) (A) (A) (A)
                 (A) (A) (A) (A) (A) (A) (A) (A) (A) (A) (A) (A)
                 (A) (A) (A) (A) (A) (A) (A) (A) (A) (A) (A) (A)
                 (A) (A) (A) (A) (A) (A) (A) (A) (A) (A) (A) (A)
                 (A) (A) (A) (A) (A) (A) (A) (A) (A) (A) (A) (A)
                 (A) (A) (A) (A) (A) (A) (A) (A) (A) (A) (A) (A)
                 (A) (A) (A) (A) (A) (A) (A) (A) (A) (A) (A) (A)
                 (A) (A) (A) (A) (A) (A) (A) (A) (A) (A) (A) (A)
                 (A) (A) (A) (A) (A) (A) (A) (A) (A) (A) (A) (A)
                 (A) (A) (A) (A) (A) (A) (A) (A) (A) (A) (A) (A)
                 (A) (A) (A) (A) (A) (A) (A) (A) (A) (A) (A) (A)
                 (A) (A) (A) (A) (A) (A) (A) (A) (A) (A) (A) (A)
                 (A) (A)
 The electronic state is 1-A.
 Alpha  occ. eigenvalues --  -91.95708 -15.61434 -15.57815 -15.57202 -15.55297
 Alpha  occ. eigenvalues --  -11.36847 -11.35705 -11.30584 -11.30354 -11.30063
 Alpha  occ. eigenvalues --  -11.29308 -11.27383 -11.24301  -8.97276  -6.65450
 Alpha  occ. eigenvalues --   -6.65340  -6.65127  -1.34812  -1.28538  -1.21867
 Alpha  occ. eigenvalues --   -1.20058  -1.09703  -1.06730  -0.99426  -0.96385
 Alpha  occ. eigenvalues --   -0.90396  -0.89113  -0.84751  -0.80251  -0.79225
 Alpha  occ. eigenvalues --   -0.74367  -0.69417  -0.67220  -0.66103  -0.65587
 Alpha  occ. eigenvalues --   -0.62787  -0.61684  -0.60663  -0.59448  -0.58696
 Alpha  occ. eigenvalues --   -0.56315  -0.53121  -0.52398  -0.49415  -0.47656
 Alpha  occ. eigenvalues --   -0.43729  -0.42876  -0.42412  -0.41837  -0.39734
 Alpha  occ. eigenvalues --   -0.36327  -0.35884  -0.35227  -0.33081
 Alpha virt. eigenvalues --    0.09914   0.10449   0.12075   0.15092   0.20402
 Alpha virt. eigenvalues --    0.22909   0.24037   0.24504   0.25522   0.26703
 Alpha virt. eigenvalues --    0.28763   0.29054   0.29672   0.30979   0.33314
 Alpha virt. eigenvalues --    0.34384   0.35192   0.38563   0.39182   0.39901
 Alpha virt. eigenvalues --    0.41378   0.45070   0.48035   0.51322   0.51929
 Alpha virt. eigenvalues --    0.52926   0.54500   0.54901   0.55564   0.56690
 Alpha virt. eigenvalues --    0.57372   0.59761   0.62866   0.64155   0.65901
 Alpha virt. eigenvalues --    0.69350   0.72031   0.73388   0.75858   0.77785
 Alpha virt. eigenvalues --    0.78238   0.79657   0.80007   0.80619   0.81223
 Alpha virt. eigenvalues --    0.83189   0.84224   0.84600   0.89815   0.90627
 Alpha virt. eigenvalues --    0.91192   0.91330   0.92572   0.93159   0.94663
 Alpha virt. eigenvalues --    0.96028   1.00206   1.02098   1.03421   1.05689
 Alpha virt. eigenvalues --    1.06506   1.06856   1.07846   1.09669   1.09955
 Alpha virt. eigenvalues --    1.12272   1.12795   1.13128   1.14161   1.14919
 Alpha virt. eigenvalues --    1.15967   1.17103   1.17471   1.18056   1.19002
 Alpha virt. eigenvalues --    1.20859   1.22070   1.23591   1.25316   1.26727
 Alpha virt. eigenvalues --    1.27350   1.29341   1.31952   1.35601   1.37537
 Alpha virt. eigenvalues --    1.39530   1.41670   1.46993   1.50237   1.52789
 Alpha virt. eigenvalues --    1.55535   1.64190   1.65527   1.67012   1.69338
 Alpha virt. eigenvalues --    1.70650   1.73408   1.74623   1.76227   1.77394
 Alpha virt. eigenvalues --    1.78224   1.82093   1.86901   1.88130   1.92339
 Alpha virt. eigenvalues --    1.93111   1.98494   2.03322   2.04690   2.08877
 Alpha virt. eigenvalues --    2.10265   2.11897   2.14755   2.16807   2.20375
 Alpha virt. eigenvalues --    2.22615   2.24247   2.24656   2.26622   2.31174
 Alpha virt. eigenvalues --    2.32707   2.40048   2.42102   2.45452   2.48402
 Alpha virt. eigenvalues --    2.49351   2.50605   2.50698   2.52530   2.53521
 Alpha virt. eigenvalues --    2.57794   2.61771   2.62641   2.65610   2.66555
 Alpha virt. eigenvalues --    2.68950   2.72063   2.74695   2.78668   2.82644
 Alpha virt. eigenvalues --    2.82903   2.90351   2.91085   2.93934   2.96269
 Alpha virt. eigenvalues --    2.98237   3.00825   3.02630   3.07410   3.09593
 Alpha virt. eigenvalues --    3.17137   3.22258   3.23728   3.34070   3.41389
 Alpha virt. eigenvalues --    3.69743   3.78684  10.21609
          Condensed to atoms (all electrons):
               1          2          3          4          5          6
     1  C    5.167044   0.516133  -0.049774  -0.023368  -0.052495   0.503881
     2  C    0.516133   4.638220   0.480834  -0.073429  -0.017080  -0.049654
     3  N   -0.049774   0.480834   6.915900   0.513465  -0.093798  -0.025679
     4  C   -0.023368  -0.073429   0.513465   4.056181   0.509273  -0.067772
     5  N   -0.052495  -0.017080  -0.093798   0.509273   6.854375   0.476402
     6  C    0.503881  -0.049654  -0.025679  -0.067772   0.476402   4.657229
     7  N    0.000070   0.001966  -0.102678   0.252726  -0.081054   0.002702
     8  C    0.000024  -0.000076   0.002170  -0.014776   0.002623  -0.000168
     9  N   -0.000013   0.000001  -0.000007   0.005272  -0.012765  -0.000229
    10  C    0.000000   0.000000   0.000001  -0.000159   0.000051   0.000006
    11  C    0.000000   0.000000   0.000000  -0.000035  -0.000005   0.000000
    12  H    0.000000   0.000000   0.000000   0.000001   0.000000   0.000000
    13  S   -0.000001   0.000004  -0.000151   0.001953  -0.000378   0.000003
    14  C    0.000000   0.000000   0.000000  -0.000001   0.000000   0.000000
    15  I    0.000000   0.000000   0.000000   0.000000   0.000000   0.000000
    16  H    0.375554  -0.024520   0.002609   0.000527   0.002236  -0.023105
    17  H   -0.046131   0.400605  -0.039343   0.002741  -0.000470   0.002374
    18  H   -0.050895   0.002623  -0.000562   0.003513  -0.042385   0.404005
    19  H    0.000047   0.000317   0.007454  -0.017905   0.003084  -0.000140
    20  H    0.000000   0.000000   0.000000   0.000005  -0.000002   0.000000
    21  H    0.000000   0.000000   0.000000  -0.000002  -0.000004   0.000000
    22  H    0.000000   0.000000   0.000000   0.000002   0.000000   0.000000
    23  H    0.000000   0.000000   0.000000   0.000000   0.000000   0.000000
               7          8          9         10         11         12
     1  C    0.000070   0.000024  -0.000013   0.000000   0.000000   0.000000
     2  C    0.001966  -0.000076   0.000001   0.000000   0.000000   0.000000
     3  N   -0.102678   0.002170  -0.000007   0.000001   0.000000   0.000000
     4  C    0.252726  -0.014776   0.005272  -0.000159  -0.000035   0.000001
     5  N   -0.081054   0.002623  -0.012765   0.000051  -0.000005   0.000000
     6  C    0.002702  -0.000168  -0.000229   0.000006   0.000000   0.000000
     7  N    7.437792   0.216389  -0.063940   0.005541   0.001122  -0.000025
     8  C    0.216389   4.668478   0.573778  -0.085842  -0.036720   0.002359
     9  N   -0.063940   0.573778   6.892220   0.305831  -0.060141   0.002938
    10  C    0.005541  -0.085842   0.305831   4.979822   0.265137  -0.024782
    11  C    0.001122  -0.036720  -0.060141   0.265137   5.480441   0.395306
    12  H   -0.000025   0.002359   0.002938  -0.024782   0.395306   0.475797
    13  S   -0.070194   0.267569  -0.073331  -0.063926   0.284115  -0.038127
    14  C   -0.000014   0.000088   0.001875  -0.048201   0.223841  -0.046953
    15  I    0.000005   0.000370  -0.000265   0.005089  -0.061854  -0.001903
    16  H    0.000013   0.000000   0.000000   0.000000   0.000000   0.000000
    17  H   -0.000059   0.000002   0.000000   0.000000   0.000000   0.000000
    18  H   -0.000047  -0.000006   0.000026   0.000000   0.000000   0.000000
    19  H    0.320327  -0.027179   0.001309  -0.000090   0.000011  -0.000001
    20  H   -0.000116  -0.006524  -0.040177   0.391664  -0.041075  -0.001919
    21  H    0.000011   0.004816  -0.044422   0.407114  -0.044105   0.000252
    22  H   -0.000110   0.002558   0.002462  -0.002777  -0.031740   0.003245
    23  H    0.000001  -0.000043   0.000115  -0.005309  -0.029243  -0.000630
              13         14         15         16         17         18
     1  C   -0.000001   0.000000   0.000000   0.375554  -0.046131  -0.050895
     2  C    0.000004   0.000000   0.000000  -0.024520   0.400605   0.002623
     3  N   -0.000151   0.000000   0.000000   0.002609  -0.039343  -0.000562
     4  C    0.001953  -0.000001   0.000000   0.000527   0.002741   0.003513
     5  N   -0.000378   0.000000   0.000000   0.002236  -0.000470  -0.042385
     6  C    0.000003   0.000000   0.000000  -0.023105   0.002374   0.404005
     7  N   -0.070194  -0.000014   0.000005   0.000013  -0.000059  -0.000047
     8  C    0.267569   0.000088   0.000370   0.000000   0.000002  -0.000006
     9  N   -0.073331   0.001875  -0.000265   0.000000   0.000000   0.000026
    10  C   -0.063926  -0.048201   0.005089   0.000000   0.000000   0.000000
    11  C    0.284115   0.223841  -0.061854   0.000000   0.000000   0.000000
    12  H   -0.038127  -0.046953  -0.001903   0.000000   0.000000   0.000000
    13  S   15.585105  -0.075636  -0.008854   0.000000   0.000000   0.000000
    14  C   -0.075636   5.544012   0.281782   0.000000   0.000000   0.000000
    15  I   -0.008854   0.281782   6.814120   0.000000   0.000000   0.000000
    16  H    0.000000   0.000000   0.000000   0.444182  -0.000037   0.000015
    17  H    0.000000   0.000000   0.000000  -0.000037   0.454784  -0.000078
    18  H    0.000000   0.000000   0.000000   0.000015  -0.000078   0.457665
    19  H    0.000369  -0.000004   0.000001  -0.000001  -0.000038   0.000004
    20  H    0.004411   0.004189  -0.000130   0.000000   0.000000   0.000000
    21  H    0.004072  -0.003891   0.000000   0.000000   0.000000   0.000000
    22  H   -0.004135   0.373321  -0.041996   0.000000   0.000000   0.000000
    23  H    0.005040   0.363624  -0.044801   0.000000   0.000000   0.000000
              19         20         21         22         23
     1  C    0.000047   0.000000   0.000000   0.000000   0.000000
     2  C    0.000317   0.000000   0.000000   0.000000   0.000000
     3  N    0.007454   0.000000   0.000000   0.000000   0.000000
     4  C   -0.017905   0.000005  -0.000002   0.000002   0.000000
     5  N    0.003084  -0.000002  -0.000004   0.000000   0.000000
     6  C   -0.000140   0.000000   0.000000   0.000000   0.000000
     7  N    0.320327  -0.000116   0.000011  -0.000110   0.000001
     8  C   -0.027179  -0.006524   0.004816   0.002558  -0.000043
     9  N    0.001309  -0.040177  -0.044422   0.002462   0.000115
    10  C   -0.000090   0.391664   0.407114  -0.002777  -0.005309
    11  C    0.000011  -0.041075  -0.044105  -0.031740  -0.029243
    12  H   -0.000001  -0.001919   0.000252   0.003245  -0.000630
    13  S    0.000369   0.004411   0.004072  -0.004135   0.005040
    14  C   -0.000004   0.004189  -0.003891   0.373321   0.363624
    15  I    0.000001  -0.000130   0.000000  -0.041996  -0.044801
    16  H   -0.000001   0.000000   0.000000   0.000000   0.000000
    17  H   -0.000038   0.000000   0.000000   0.000000   0.000000
    18  H    0.000004   0.000000   0.000000   0.000000   0.000000
    19  H    0.280760  -0.000006   0.000004  -0.000006   0.000000
    20  H   -0.000006   0.525936  -0.034552   0.000091  -0.000120
    21  H    0.000004  -0.034552   0.520261  -0.000370   0.002229
    22  H   -0.000006   0.000091  -0.000370   0.460699  -0.020607
    23  H    0.000000  -0.000120   0.002229  -0.020607   0.481725
 Mulliken charges:
               1
     1  C   -0.340078
     2  C    0.124057
     3  N   -0.610440
     4  C    0.851786
     5  N   -0.547609
     6  C    0.120145
     7  N   -0.920428
     8  C    0.430110
     9  N   -0.490538
    10  C   -0.129168
    11  C   -0.345056
    12  H    0.234442
    13  S    0.182092
    14  C   -0.618030
    15  I    0.058438
    16  H    0.222527
    17  H    0.225651
    18  H    0.226124
    19  H    0.431682
    20  H    0.198325
    21  H    0.188586
    22  H    0.259364
    23  H    0.248018
 Sum of Mulliken charges =   0.00000
 Mulliken charges with hydrogens summed into heavy atoms:
               1
     1  C   -0.117550
     2  C    0.349708
     3  N   -0.610440
     4  C    0.851786
     5  N   -0.547609
     6  C    0.346269
     7  N   -0.488747
     8  C    0.430110
     9  N   -0.490538
    10  C    0.257743
    11  C   -0.110614
    13  S    0.182092
    14  C   -0.110647
    15  I    0.058438
 DipInt: DoE/N= T F RetVal/Mat= T F Init=T NMatP=  1 IDeriv=0 Min/MaxMlt=  0  4
 Entering OneElI...
 OneElI was handed   235797407 working-precision words.
 Multipole integrals L=0 to 4 MinM= 0 MaxM= 0.
 Requested accuracy = 0.1000D-12
 ShPair: Thresh= 1.00D-13 NBox=     0 BxSize= 0.00D+00 RnKept= 2.07D+01
         NSMCal=                 2850 NSMKep=                2392
 PrsmSu:  NPrtUS=   1 ThrOK=F IAlg=1 NPAlg=1 LenDen=           0.
 Prism:   IPart=     0 DynPar=F LinDyn=F Incr=          23.
 PRISM was handed   235573386 working-precision words and  2392 shell-pairs
 IPart=  0 NShTot=        2392 NBatch=         103 AvBLen=        23.2
 PrSmSu:  NxtVal=             24.
 Electronic moments (au):
       -108.00000000        326.27205214        -40.85701143        -22.92861751
      -4379.68619645       -567.98455570       -246.17595374       -287.23015030
       -159.24767695         20.46153706      33215.96763842       -761.06729742
       -226.87601215       1690.06540259       2437.54826145       2516.71924879
        199.50539390        -80.28475070        -14.40497686        -95.68504988
    -403572.11558826      -8132.90998699      -1741.18228400     -24217.23553891
     -23764.79885241      -3718.80218785       -179.12835940       -482.27090137
        101.84719098     -20901.57245835      -6709.16241988       -937.03944613
        600.00956636       -612.10746550       -246.01979940
 Electronic spatial extent (au):  <R**2>=           5193.8467
 DipInt: DoE/N= F T RetVal/Mat= T F Init=T NMatP=  1 IDeriv=0 Min/MaxMlt=  0  4
 Nuclear    moments (au):
        108.00000000       -327.40659129         41.24577902         22.73672452
       4316.26150428        493.11265363        167.60897269        293.56825900
        161.82934697        -20.38691126     -33188.99372450        727.29677606
        197.30928419      -1565.11569546      -2466.21930128      -2557.90893781
        -70.87889365         69.50229648          8.86022166         93.90751191
     387883.69419218       6081.50844243        746.49382109      24013.89167875
      24224.27755783       3452.31208043        199.38286578        282.49609147
        -86.16909844      17577.45637555       3210.48876105        440.81887524
       -643.04678677        578.01205591        142.36173965
 Total      moments (au):
          0.00000000         -1.13453915          0.38876759         -0.19189299
        -63.42469216        -74.87190206        -78.56698104          6.33810871
          2.58167002          0.07462580         26.97391392        -33.77052137
        -29.56672795        124.94970713        -28.67103983        -41.18968902
        128.62650025        -10.78245422         -5.54475519         -1.77753797
     -15688.42139608      -2051.40154456       -994.68846291       -203.34386015
        459.47870541       -266.49010742         20.25450638       -199.77480990
         15.67809254      -3324.11608280      -3498.67365883       -496.22057089
        -43.03722042        -34.09540960       -103.65805976
 Traceless Quadrup. (au):
          8.86316626         -2.58404364         -6.27912262          6.33810871
          2.58167002          0.07462580
 Charge=              0.0000 electrons
 Dipole moment (field-independent basis, Debye):
    X=             -2.8837    Y=              0.9881    Z=             -0.4877  Tot=              3.0871
 Quadrupole moment (field-independent basis, Debye-Ang):
   XX=            -85.3084   YY=           -100.7053   ZZ=           -105.6753
   XY=              8.5250   XZ=              3.4724   YZ=              0.1004
 Traceless Quadrupole moment (field-independent basis, Debye-Ang):
   XX=             11.9213   YY=             -3.4756   ZZ=             -8.4456
   XY=              8.5250   XZ=              3.4724   YZ=              0.1004
 Octapole moment (field-independent basis, Debye-Ang**2):
  XXX=             19.1990  YYY=            -24.0366  ZZZ=            -21.0445  XYY=             88.9344
  XXY=            -20.4069  XXZ=            -29.3172  XZZ=             91.5514  YZZ=             -7.6745
  YYZ=             -3.9465  XYZ=             -1.2652
 Hexadecapole moment (field-independent basis, Debye-Ang**3):
 XXXX=          -5909.0114 YYYY=           -772.6561 ZZZZ=           -374.6473 XXXY=            -76.5890
 XXXZ=            173.0617 YYYX=           -100.3729 YYYZ=              7.6288 ZZZX=            -75.2448
 ZZZY=              5.9051 XXYY=          -1252.0214 XXZZ=          -1317.7682 YYZZ=           -186.9004
 XXYZ=            -16.2099 YYXZ=            -12.8420 ZZXY=            -39.0426
 N-N= 9.111892940759D+02 E-N=-4.018316415332D+03  KE= 9.259078512166D+02
 Entering OneElI...
 OneElI was handed   235827726 working-precision words.
 Calculate electrostatic properties
    NBasis =   212  MinDer = 0  MaxDer = 0
    NGrid  =    23  NMatD  =   1
 Requested accuracy = 0.1000D-12
 PrtBox:  NBox=     1 Levels=  1 BoxLen=   37.65 SMaxX=       20.67
          Shift=           13.551940            4.560671            2.702730
 Box      1 Number                   0 centers from      1 to     75:
 ShPair: Thresh= 1.00D-13 NBox=     1 BxSize= 3.77D+01 RnKept= 1.89D+01
         NSMCal=                 2850 NSMKep=                2147
 PrsmSu:  NPrtUS=   1 ThrOK=F IAlg=1 NPAlg=1 LenDen=           0.
 Prism:   IPart=     0 DynPar=F LinDyn=F Incr=         493.
 PRISM was handed   235624233 working-precision words and  2147 shell-pairs
 IPart=  0 NShTot=       49381 NBatch=        2148 AvBLen=        23.0
 PrSmSu:  NxtVal=            494.
 --------------------------------------------------------
       Center         ----      EFG at Nuclei      ----
                      3XX-RR        3YY-RR        3ZZ-RR
 --------------------------------------------------------
     1   Atom        0.061962      0.096782     -0.158744
     2   Atom        0.149653      0.303394     -0.453047
     3   Atom       -0.156477      0.523966     -0.367489
     4   Atom        0.064920      0.277263     -0.342183
     5   Atom        0.044464      0.459746     -0.504211
     6   Atom        0.158809      0.304050     -0.462859
     7   Atom       -0.530906     -0.378936      0.909843
     8   Atom       -0.028335      0.219999     -0.191664
     9   Atom        0.229162     -0.214549     -0.014614
    10   Atom       -0.157606      0.026728      0.130878
    11   Atom        0.084706     -0.126753      0.042047
    12   Atom       -0.008205      0.077330     -0.069125
    13   Atom       -1.951968      0.528429      1.423539
    14   Atom       -0.170846      0.000358      0.170488
    15   Atom       -0.035125     -0.000879      0.036004
    16   Atom       -0.286119      0.140749      0.145370
    17   Atom        0.024529     -0.177285      0.152757
    18   Atom        0.083277     -0.214291      0.131014
    19   Atom        0.121468     -0.318067      0.196599
    20   Atom        0.126695     -0.018476     -0.108220
    21   Atom        0.104193      0.010712     -0.114905
    22   Atom        0.013198      0.041632     -0.054830
    23   Atom        0.068754     -0.145786      0.077032
 --------------------------------------------------------
                        XY            XZ            YZ
 --------------------------------------------------------
     1   Atom        0.014193      0.054925     -0.037616
     2   Atom        0.013026      0.152053     -0.125263
     3   Atom       -0.557102      0.150524     -0.286331
     4   Atom        0.023705      0.098205     -0.097628
     5   Atom        0.724442      0.020963      0.010899
     6   Atom        0.052582      0.151415     -0.109303
     7   Atom       -0.116643     -0.312299      0.280700
     8   Atom        0.053446      0.049518     -0.179520
     9   Atom       -0.457444      0.422947     -0.210318
    10   Atom       -0.010431     -0.093400      0.005903
    11   Atom       -0.102448      0.118257      0.126102
    12   Atom       -0.104605     -0.179081     -0.121776
    13   Atom       -0.981343     -0.813856      1.313565
    14   Atom        0.332728     -0.088863      0.099643
    15   Atom        0.059472     -0.019041      0.014138
    16   Atom        0.022204     -0.111889      0.010310
    17   Atom       -0.195564      0.000760      0.006712
    18   Atom        0.146498     -0.038191      0.088688
    19   Atom        0.116883     -0.050801      0.138904
    20   Atom        0.040753      0.047936     -0.204259
    21   Atom       -0.065836      0.092919      0.191176
    22   Atom       -0.116046     -0.161800     -0.153249
    23   Atom       -0.144774      0.080001      0.146994
 --------------------------------------------------------


 ---------------------------------------------------------------------------------
              Nuclear Quadrupole Coupling Constant in Principal Axis System
 ---------------------------------------------------------------------------------

       Atom             a.u.   MegaHertz   Gauss  10(-4) cm-1        Axes

              Baa    -0.4722     2.268     0.809     0.756  0.7784  0.5314  0.3342
     3 N(14)  Bbb    -0.4457     2.141     0.764     0.714 -0.4126  0.0318  0.9104
              Bcc     0.9179    -4.408    -1.573    -1.470 -0.4731  0.8465 -0.2440
 
              Baa    -0.5133     2.465     0.880     0.822 -0.5282  0.3848  0.7569
     5 N(14)  Bbb    -0.4927     2.366     0.844     0.789  0.5989 -0.4630  0.6534
              Bcc     1.0060    -4.832    -1.724    -1.612  0.6019  0.7985  0.0141
 
              Baa    -0.6140     2.949     1.052     0.984  0.9427  0.3040  0.1372
     7 N(14)  Bbb    -0.4237     2.035     0.726     0.679 -0.2625  0.9300 -0.2572
              Bcc     1.0376    -4.983    -1.778    -1.662 -0.2058  0.2065  0.9566
 
              Baa    -0.5088     2.444     0.872     0.815  0.5858  0.7938 -0.1635
     9 N(14)  Bbb    -0.2819     1.354     0.483     0.452 -0.3283  0.4169  0.8476
              Bcc     0.7907    -3.797    -1.355    -1.267  0.7410 -0.4428  0.5048
 
              Baa    -0.0846   -14.106    -5.033    -4.705  0.7841 -0.5899  0.1930
    15 I(127) Bbb     0.0407     6.783     2.420     2.263 -0.1257  0.1536  0.9801
              Bcc     0.0439     7.323     2.613     2.443  0.6078  0.7927 -0.0463
 

 ---------------------------------------------------------------------------------

 No NMR shielding tensors so no spin-rotation constants.
 Leave Link  601 at Fri Jan 17 11:56:45 2014, MaxMem=   235929600 cpu:         0.3
 FitSet:  NAtFit=    23 NAtPot=    23 NAtFrz=     0 MDM=    27 TotChg=   0.00000
 Merz-Kollman atomic radii used.
 Read replacement radii for each type of atom:
 Rad(53) =   2.700000000000D+00
 Atom Element Radius
    1     6    1.50
    2     6    1.50
    3     7    1.50
    4     6    1.50
    5     7    1.50
    6     6    1.50
    7     7    1.50
    8     6    1.50
    9     7    1.50
   10     6    1.50
   11     6    1.50
   12     1    1.20
   13    16    1.75
   14     6    1.50
   15    53    2.70
   16     1    1.20
   17     1    1.20
   18     1    1.20
   19     1    1.20
   20     1    1.20
   21     1    1.20
   22     1    1.20
   23     1    1.20
 Generate VDW surfaces: Layer= 5 Dens= 2 Start= 1.400 Inc= 0.179

 **********************************************************************

            Electrostatic Properties Using The SCF Density

 **********************************************************************

       Atomic Center    1 is at  -6.119814 -0.272250 -0.573096
       Atomic Center    2 is at  -5.504098 -1.479245 -0.239387
       Atomic Center    3 is at  -4.211690 -1.564834  0.074482
       Atomic Center    4 is at  -3.526321 -0.404931  0.052164
       Atomic Center    5 is at  -4.001939  0.807812 -0.239440
       Atomic Center    6 is at  -5.300610  0.854532 -0.550917
       Atomic Center    7 is at  -2.189275 -0.562063  0.401219
       Atomic Center    8 is at  -1.157352  0.353762  0.403311
       Atomic Center    9 is at  -1.140651  1.505851 -0.132261
       Atomic Center   10 is at   0.088039  2.215399  0.169788
       Atomic Center   11 is at   1.237314  1.218129  0.542048
       Atomic Center   12 is at   1.887179  1.649275  1.306264
       Atomic Center   13 is at   0.334293 -0.201671  1.287060
       Atomic Center   14 is at   2.048100  0.841287 -0.690550
       Atomic Center   15 is at   3.766437 -0.474485 -0.261560
       Atomic Center   16 is at  -7.171378 -0.215138 -0.830294
       Atomic Center   17 is at  -6.063494 -2.413403 -0.222182
       Atomic Center   18 is at  -5.694802  1.841275 -0.789667
       Atomic Center   19 is at  -1.961240 -1.517468  0.643566
       Atomic Center   20 is at  -0.086352  2.896738  1.014718
       Atomic Center   21 is at   0.381438  2.833654 -0.687171
       Atomic Center   22 is at   1.453515  0.305769 -1.430223
       Atomic Center   23 is at   2.498605  1.726306 -1.143469
      ESP Fit Center   24 is at  -6.119814 -0.272250  1.526904
      ESP Fit Center   25 is at  -6.478935  0.349766  1.400259
      ESP Fit Center   26 is at  -6.838056 -0.272250  1.400259
      ESP Fit Center   27 is at  -7.003780  0.747902  1.035597
      ESP Fit Center   28 is at  -7.414989  0.108048  1.035597
      ESP Fit Center   29 is at  -7.414989 -0.652548  1.035597
      ESP Fit Center   30 is at  -7.591135  0.796728  0.476904
      ESP Fit Center   31 is at  -7.591135 -1.341228  0.476904
      ESP Fit Center   32 is at  -7.366120  1.378127 -0.208435
      ESP Fit Center   33 is at  -7.003780 -1.292401 -2.181789
      ESP Fit Center   34 is at  -6.311918 -1.608364 -2.181789
      ESP Fit Center   35 is at  -5.401572 -0.272250 -2.546450
      ESP Fit Center   36 is at  -5.760693  0.349766 -2.546450
      ESP Fit Center   37 is at  -6.478935  0.349766 -2.546450
      ESP Fit Center   38 is at  -6.838056 -0.272250 -2.546450
      ESP Fit Center   39 is at  -6.478935 -0.894266 -2.546450
      ESP Fit Center   40 is at  -5.760693 -0.894266 -2.546450
      ESP Fit Center   41 is at  -6.119814 -0.272250 -2.673096
      ESP Fit Center   42 is at  -5.504098 -1.479245  1.860613
      ESP Fit Center   43 is at  -5.863219 -0.857229  1.733968
      ESP Fit Center   44 is at  -6.222340 -1.479245  1.733968
      ESP Fit Center   45 is at  -5.863219 -2.101261  1.733968
      ESP Fit Center   46 is at  -6.799273 -1.098947  1.369306
      ESP Fit Center   47 is at  -6.799273 -1.859543  1.369306
      ESP Fit Center   48 is at  -5.696202 -2.815359  1.369306
      ESP Fit Center   49 is at  -7.283009 -1.857364  0.810613
      ESP Fit Center   50 is at  -4.942103 -3.208887 -1.289387
      ESP Fit Center   51 is at  -6.799273 -1.859543 -1.848080
      ESP Fit Center   52 is at  -5.696202 -2.815359 -1.848080
      ESP Fit Center   53 is at  -4.943348 -2.707115 -1.848080
      ESP Fit Center   54 is at  -4.785856 -1.479245 -2.212741
      ESP Fit Center   55 is at  -5.863219 -2.101261 -2.212741
      ESP Fit Center   56 is at  -5.144977 -2.101261 -2.212741
      ESP Fit Center   57 is at  -5.504098 -1.479245 -2.339387
      ESP Fit Center   58 is at  -4.211690 -1.564834  2.174482
      ESP Fit Center   59 is at  -3.493448 -1.564834  2.047837
      ESP Fit Center   60 is at  -4.570811 -0.942818  2.047837
      ESP Fit Center   61 is at  -4.929932 -1.564834  2.047837
      ESP Fit Center   62 is at  -4.570811 -2.186850  2.047837
      ESP Fit Center   63 is at  -3.852569 -2.186850  2.047837
      ESP Fit Center   64 is at  -5.095656 -0.544682  1.683175
      ESP Fit Center   65 is at  -5.095656 -2.584986  1.683175
      ESP Fit Center   66 is at  -4.403794 -2.900948  1.683175
      ESP Fit Center   67 is at  -3.650940 -2.792704  1.683175
      ESP Fit Center   68 is at  -3.076121 -2.294620  1.683175
      ESP Fit Center   69 is at  -5.121017 -3.139834  1.124482
      ESP Fit Center   70 is at  -4.401791 -3.373525  1.124482
      ESP Fit Center   71 is at  -3.649695 -3.294476  1.124482
      ESP Fit Center   72 is at  -2.994773 -2.916357  1.124482
      ESP Fit Center   73 is at  -4.777651 -3.553982  0.439143
      ESP Fit Center   74 is at  -4.020870 -3.624108  0.439143
      ESP Fit Center   75 is at  -3.289860 -3.416118  0.439143
      ESP Fit Center   76 is at  -4.777651 -3.553982 -0.290179
      ESP Fit Center   77 is at  -4.020870 -3.624108 -0.290179
      ESP Fit Center   78 is at  -3.289860 -3.416118 -0.290179
      ESP Fit Center   79 is at  -2.683348 -2.958101 -0.290179
      ESP Fit Center   80 is at  -4.401791 -3.373525 -0.975518
      ESP Fit Center   81 is at  -3.649695 -3.294476 -0.975518
      ESP Fit Center   82 is at  -2.994773 -2.916357 -0.975518
      ESP Fit Center   83 is at  -2.550267 -2.304547 -0.975518
      ESP Fit Center   84 is at  -4.403794 -2.900948 -1.534211
      ESP Fit Center   85 is at  -3.650940 -2.792704 -1.534211
      ESP Fit Center   86 is at  -3.076121 -2.294620 -1.534211
      ESP Fit Center   87 is at  -3.493448 -1.564834 -1.898872
      ESP Fit Center   88 is at  -3.852569 -2.186850 -1.898872
      ESP Fit Center   89 is at  -4.211690 -1.564834 -2.025518
      ESP Fit Center   90 is at  -3.526321 -0.404931  2.152164
      ESP Fit Center   91 is at  -3.885442  0.217085  2.025519
      ESP Fit Center   92 is at  -4.244563 -0.404931  2.025519
      ESP Fit Center   93 is at  -4.821496 -0.024633  1.660857
      ESP Fit Center   94 is at  -2.390751  0.324855 -1.556529
      ESP Fit Center   95 is at  -2.808079 -0.404931 -1.921190
      ESP Fit Center   96 is at  -3.167200 -1.026947 -1.921190
      ESP Fit Center   97 is at  -3.526321 -0.404931 -2.047836
      ESP Fit Center   98 is at  -4.001939  0.807812  1.860560
      ESP Fit Center   99 is at  -3.642818  1.429828  1.733915
      ESP Fit Center  100 is at  -4.361060  1.429828  1.733915
      ESP Fit Center  101 is at  -4.720181  0.807812  1.733915
      ESP Fit Center  102 is at  -2.866369  1.537598  1.369253
      ESP Fit Center  103 is at  -3.441189  2.035682  1.369253
      ESP Fit Center  104 is at  -4.194043  2.143926  1.369253
      ESP Fit Center  105 is at  -4.885905  1.827964  1.369253
      ESP Fit Center  106 is at  -3.439944  2.537454  0.810560
      ESP Fit Center  107 is at  -4.192040  2.616503  0.810560
      ESP Fit Center  108 is at  -3.080109  2.659096  0.125221
      ESP Fit Center  109 is at  -3.811119  2.867086  0.125221
      ESP Fit Center  110 is at  -4.567900  2.796960  0.125221
      ESP Fit Center  111 is at  -3.080109  2.659096 -0.604101
      ESP Fit Center  112 is at  -3.811119  2.867086 -0.604101
      ESP Fit Center  113 is at  -2.785022  2.159335 -1.289440
      ESP Fit Center  114 is at  -3.439944  2.537454 -1.289440
      ESP Fit Center  115 is at  -4.192040  2.616503 -1.289440
      ESP Fit Center  116 is at  -2.652085  0.807812 -1.848133
      ESP Fit Center  117 is at  -2.866369  1.537598 -1.848133
      ESP Fit Center  118 is at  -3.441189  2.035682 -1.848133
      ESP Fit Center  119 is at  -4.194043  2.143926 -1.848133
      ESP Fit Center  120 is at  -3.283697  0.807812 -2.212794
      ESP Fit Center  121 is at  -3.642818  1.429828 -2.212794
      ESP Fit Center  122 is at  -3.642818  0.185796 -2.212794
      ESP Fit Center  123 is at  -4.001939  0.807812 -2.339440
      ESP Fit Center  124 is at  -5.300610  0.854532  1.549083
      ESP Fit Center  125 is at  -5.659731  1.476548  1.422438
      ESP Fit Center  126 is at  -6.018852  0.854532  1.422438
      ESP Fit Center  127 is at  -5.659731  0.232516  1.422438
      ESP Fit Center  128 is at  -5.492714  2.190646  1.057776
      ESP Fit Center  129 is at  -6.184576  1.874684  1.057776
      ESP Fit Center  130 is at  -6.595785  1.234830  1.057776
      ESP Fit Center  131 is at  -6.771931  1.923510  0.499083
      ESP Fit Center  132 is at  -4.739860  2.082402 -2.159610
      ESP Fit Center  133 is at  -6.595785  1.234830 -2.159610
      ESP Fit Center  134 is at  -4.739860 -0.373338 -2.159610
      ESP Fit Center  135 is at  -4.582368  0.854532 -2.524271
      ESP Fit Center  136 is at  -4.941489  1.476548 -2.524271
      ESP Fit Center  137 is at  -5.659731  1.476548 -2.524271
      ESP Fit Center  138 is at  -6.018852  0.854532 -2.524271
      ESP Fit Center  139 is at  -4.941489  0.232516 -2.524271
      ESP Fit Center  140 is at  -5.300610  0.854532 -2.650917
      ESP Fit Center  141 is at  -2.189275 -0.562063  2.501219
      ESP Fit Center  142 is at  -2.548396  0.059953  2.374574
      ESP Fit Center  143 is at  -2.907517 -0.562063  2.374574
      ESP Fit Center  144 is at  -2.548396 -1.184079  2.374574
      ESP Fit Center  145 is at  -1.830154 -1.184079  2.374574
      ESP Fit Center  146 is at  -3.073241  0.458088  2.009912
      ESP Fit Center  147 is at  -3.073241 -1.582215  2.009912
      ESP Fit Center  148 is at  -2.381379 -1.898177 -1.207474
      ESP Fit Center  149 is at  -1.628525 -1.789933 -1.207474
      ESP Fit Center  150 is at  -1.053705 -1.291849 -1.207474
      ESP Fit Center  151 is at  -1.471033 -0.562063 -1.572135
      ESP Fit Center  152 is at  -1.830154  0.059953 -1.572135
      ESP Fit Center  153 is at  -1.830154 -1.184079 -1.572135
      ESP Fit Center  154 is at  -2.189275 -0.562063 -1.698781
      ESP Fit Center  155 is at  -1.875594  0.353762  2.376666
      ESP Fit Center  156 is at  -1.349456  1.689876  2.012004
      ESP Fit Center  157 is at  -2.041318  1.373913  2.012004
      ESP Fit Center  158 is at  -2.628673  1.422739  1.453311
      ESP Fit Center  159 is at  -0.596602 -0.874108 -1.205382
      ESP Fit Center  160 is at  -1.516473 -0.268254 -1.570043
      ESP Fit Center  161 is at  -0.798231 -0.268254 -1.570043
      ESP Fit Center  162 is at  -1.499772  2.127867  1.841094
      ESP Fit Center  163 is at  -2.024617  2.526002  1.476432
      ESP Fit Center  164 is at  -2.435826  1.886149  1.476432
      ESP Fit Center  165 is at  -2.049977  3.080851  0.917739
      ESP Fit Center  166 is at  -2.611972  2.574828  0.917739
      ESP Fit Center  167 is at  -1.706612  3.494999  0.232400
      ESP Fit Center  168 is at  -2.386957  3.156227  0.232400
      ESP Fit Center  169 is at  -2.898982  2.594563  0.232400
      ESP Fit Center  170 is at  -1.706612  3.494999 -0.496922
      ESP Fit Center  171 is at  -2.386957  3.156227 -0.496922
      ESP Fit Center  172 is at  -2.898982  2.594563 -0.496922
      ESP Fit Center  173 is at  -1.330752  3.314541 -1.182261
      ESP Fit Center  174 is at  -2.049977  3.080851 -1.182261
      ESP Fit Center  175 is at  -2.611972  2.574828 -1.182261
      ESP Fit Center  176 is at  -1.332755  2.841965 -1.740954
      ESP Fit Center  177 is at  -2.024617  2.526002 -1.740954
      ESP Fit Center  178 is at  -2.435826  1.886149 -1.740954
      ESP Fit Center  179 is at  -2.435826  1.125553 -1.740954
      ESP Fit Center  180 is at  -2.024617  0.485699 -1.740954
      ESP Fit Center  181 is at  -1.332755  0.169736 -1.740954
      ESP Fit Center  182 is at  -0.579901  0.277981 -1.740954
      ESP Fit Center  183 is at  -0.422409  1.505851 -2.105615
      ESP Fit Center  184 is at  -0.781530  2.127867 -2.105615
      ESP Fit Center  185 is at  -1.499772  2.127867 -2.105615
      ESP Fit Center  186 is at  -1.858893  1.505851 -2.105615
      ESP Fit Center  187 is at  -1.499772  0.883835 -2.105615
      ESP Fit Center  188 is at  -0.781530  0.883835 -2.105615
      ESP Fit Center  189 is at  -1.140651  1.505851 -2.232261
      ESP Fit Center  190 is at   1.616381  3.608666  0.534449
      ESP Fit Center  191 is at  -0.477922  4.204547 -0.194873
      ESP Fit Center  192 is at  -1.158267  3.865775 -0.194873
      ESP Fit Center  193 is at   2.159144  3.069413  0.177387
      ESP Fit Center  194 is at   1.887179  1.649275  2.986264
      ESP Fit Center  195 is at   2.616104  1.649275  2.819892
      ESP Fit Center  196 is at   2.251642  2.280542  2.819892
      ESP Fit Center  197 is at   1.522717  2.280542  2.819892
      ESP Fit Center  198 is at   1.158255  1.649275  2.819892
      ESP Fit Center  199 is at   2.949804  2.421317  2.353727
      ESP Fit Center  200 is at   2.293066  2.898465  2.353727
      ESP Fit Center  201 is at   1.481293  2.898465  2.353727
      ESP Fit Center  202 is at   0.824554  2.421317  2.353727
      ESP Fit Center  203 is at   2.817600  2.997223  1.680099
      ESP Fit Center  204 is at   2.084604  3.275212  1.680099
      ESP Fit Center  205 is at   2.817600  2.997223  0.932429
      ESP Fit Center  206 is at   2.084604  3.275212  0.932429
      ESP Fit Center  207 is at   0.334293 -0.201671  3.737060
      ESP Fit Center  208 is at   1.091385 -0.201671  3.617149
      ESP Fit Center  209 is at   0.712839  0.453989  3.617149
      ESP Fit Center  210 is at  -0.044253  0.453989  3.617149
      ESP Fit Center  211 is at  -0.422799 -0.201671  3.617149
      ESP Fit Center  212 is at  -0.044253 -0.857332  3.617149
      ESP Fit Center  213 is at   0.712839 -0.857332  3.617149
      ESP Fit Center  214 is at   1.774367 -0.201671  3.269152
      ESP Fit Center  215 is at   1.581434  0.518366  3.269152
      ESP Fit Center  216 is at   1.054330  1.045469  3.269152
      ESP Fit Center  217 is at   0.334293  1.238403  3.269152
      ESP Fit Center  218 is at  -0.385744  1.045469  3.269152
      ESP Fit Center  219 is at  -0.912847  0.518366  3.269152
      ESP Fit Center  220 is at  -1.105781 -0.201671  3.269152
      ESP Fit Center  221 is at  -0.912847 -0.921708  3.269152
      ESP Fit Center  222 is at  -0.385744 -1.448812  3.269152
      ESP Fit Center  223 is at   0.334293 -1.641745  3.269152
      ESP Fit Center  224 is at   1.054330 -1.448812  3.269152
      ESP Fit Center  225 is at   1.581434 -0.921708  3.269152
      ESP Fit Center  226 is at   0.334293  1.780420  2.727134
      ESP Fit Center  227 is at  -0.424221  1.629543  2.727134
      ESP Fit Center  228 is at  -1.067257  1.199879  2.727134
      ESP Fit Center  229 is at  -1.496921  0.556842  2.727134
      ESP Fit Center  230 is at  -1.647799 -0.201671  2.727134
      ESP Fit Center  231 is at  -1.496921 -0.960185  2.727134
      ESP Fit Center  232 is at  -1.067257 -1.603222  2.727134
      ESP Fit Center  233 is at  -0.424221 -2.032885  2.727134
      ESP Fit Center  234 is at   0.334293 -2.183763  2.727134
      ESP Fit Center  235 is at   1.092807 -2.032885  2.727134
      ESP Fit Center  236 is at   1.735844 -1.603222  2.727134
      ESP Fit Center  237 is at  -0.601693 -2.335504  2.044152
      ESP Fit Center  238 is at   0.141876 -2.523801  2.044152
      ESP Fit Center  239 is at   0.906296 -2.460460  2.044152
      ESP Fit Center  240 is at  -0.210883 -2.590245  1.287060
      ESP Fit Center  241 is at   0.517382 -2.644820  1.287060
      ESP Fit Center  242 is at   0.141876 -2.523801  0.529968
      ESP Fit Center  243 is at  -0.424221 -2.032885 -0.153014
      ESP Fit Center  244 is at   0.334293 -2.183763 -0.153014
      ESP Fit Center  245 is at  -0.385744 -1.448812 -0.695032
      ESP Fit Center  246 is at  -0.044253 -0.857332 -1.043028
      ESP Fit Center  247 is at   1.164134  1.861438 -2.299243
      ESP Fit Center  248 is at   3.766437 -0.474485  3.518440
      ESP Fit Center  249 is at   4.503879 -0.474485  3.445808
      ESP Fit Center  250 is at   4.135158  0.164158  3.445808
      ESP Fit Center  251 is at   3.397716  0.164158  3.445808
      ESP Fit Center  252 is at   3.028996 -0.474485  3.445808
      ESP Fit Center  253 is at   3.397716 -1.113128  3.445808
      ESP Fit Center  254 is at   4.135158 -1.113128  3.445808
      ESP Fit Center  255 is at   5.212980 -0.474485  3.230705
      ESP Fit Center  256 is at   5.019180  0.248786  3.230705
      ESP Fit Center  257 is at   4.489709  0.778258  3.230705
      ESP Fit Center  258 is at   3.766437  0.972058  3.230705
      ESP Fit Center  259 is at   3.043165  0.778258  3.230705
      ESP Fit Center  260 is at   2.513694  0.248786  3.230705
      ESP Fit Center  261 is at   2.319894 -0.474485  3.230705
      ESP Fit Center  262 is at   2.513694 -1.197757  3.230705
      ESP Fit Center  263 is at   3.043165 -1.727229  3.230705
      ESP Fit Center  264 is at   3.766437 -1.921029  3.230705
      ESP Fit Center  265 is at   4.489709 -1.727229  3.230705
      ESP Fit Center  266 is at   5.019180 -1.197757  3.230705
      ESP Fit Center  267 is at   5.866493 -0.474485  2.881395
      ESP Fit Center  268 is at   5.739844  0.243776  2.881395
      ESP Fit Center  269 is at   5.375173  0.875404  2.881395
      ESP Fit Center  270 is at   4.816465  1.344216  2.881395
      ESP Fit Center  271 is at   4.131108  1.593666  2.881395
      ESP Fit Center  272 is at   3.401766  1.593666  2.881395
      ESP Fit Center  273 is at   2.716409  1.344216  2.881395
      ESP Fit Center  274 is at   2.157701  0.875404  2.881395
      ESP Fit Center  275 is at   2.157701 -1.824375  2.881395
      ESP Fit Center  276 is at   2.716409 -2.293187  2.881395
      ESP Fit Center  277 is at   3.401766 -2.542636  2.881395
      ESP Fit Center  278 is at   4.131108 -2.542636  2.881395
      ESP Fit Center  279 is at   4.816465 -2.293187  2.881395
      ESP Fit Center  280 is at   5.375173 -1.824375  2.881395
      ESP Fit Center  281 is at   5.739844 -1.192747  2.881395
      ESP Fit Center  282 is at   6.439301 -0.474485  2.411304
      ESP Fit Center  283 is at   6.340184  0.246645  2.411304
      ESP Fit Center  284 is at   6.050184  0.914292  2.411304
      ESP Fit Center  285 is at   5.590809  1.478940  2.411304
      ESP Fit Center  286 is at   4.996128  1.898711  2.411304
      ESP Fit Center  287 is at   4.310247  2.142473  2.411304
      ESP Fit Center  288 is at   3.584034  2.192147  2.411304
      ESP Fit Center  289 is at   1.693067 -2.161297  2.411304
      ESP Fit Center  290 is at   2.225049 -2.658134  2.411304
      ESP Fit Center  291 is at   2.871350 -2.993020  2.411304
      ESP Fit Center  292 is at   3.584034 -3.141118  2.411304
      ESP Fit Center  293 is at   4.310247 -3.091444  2.411304
      ESP Fit Center  294 is at   4.996128 -2.847681  2.411304
      ESP Fit Center  295 is at   5.590809 -2.427910  2.411304
      ESP Fit Center  296 is at   6.050184 -1.863262  2.411304
      ESP Fit Center  297 is at   6.340184 -1.195615  2.411304
      ESP Fit Center  298 is at   6.909392 -0.474485  1.838496
      ESP Fit Center  299 is at   6.824673  0.250330  1.838496
      ESP Fit Center  300 is at   6.575084  0.936070  1.838496
      ESP Fit Center  301 is at   6.174080  1.545767  1.838496
      ESP Fit Center  302 is at   5.643280  2.046552  1.838496
      ESP Fit Center  303 is at   5.011298  2.411427  1.838496
      ESP Fit Center  304 is at   4.312206  2.620721  1.838496
      ESP Fit Center  305 is at   3.583690  2.663152  1.838496
      ESP Fit Center  306 is at   1.609610 -2.760588  1.838496
      ESP Fit Center  307 is at   2.194960 -3.196364  1.838496
      ESP Fit Center  308 is at   2.865027 -3.485403  1.838496
      ESP Fit Center  309 is at   3.583690 -3.612123  1.838496
      ESP Fit Center  310 is at   4.312206 -3.569692  1.838496
      ESP Fit Center  311 is at   5.011298 -3.360397  1.838496
      ESP Fit Center  312 is at   5.643280 -2.995523  1.838496
      ESP Fit Center  313 is at   6.174080 -2.494738  1.838496
      ESP Fit Center  314 is at   6.575084 -1.885041  1.838496
      ESP Fit Center  315 is at   6.824673 -1.199301  1.838496
      ESP Fit Center  316 is at   7.258702 -0.474485  1.184983
      ESP Fit Center  317 is at   7.182387  0.251597  1.184983
      ESP Fit Center  318 is at   6.956780  0.945947  1.184983
      ESP Fit Center  319 is at   6.591739  1.578216  1.184983
      ESP Fit Center  320 is at   6.103218  2.120773  1.184983
      ESP Fit Center  321 is at   5.512569  2.549905  1.184983
      ESP Fit Center  322 is at   4.845606  2.846856  1.184983
      ESP Fit Center  323 is at   4.131478  2.998648  1.184983
      ESP Fit Center  324 is at   3.401396  2.998648  1.184983
      ESP Fit Center  325 is at   1.429656 -3.069744  1.184983
      ESP Fit Center  326 is at   2.020305 -3.498875  1.184983
      ESP Fit Center  327 is at   2.687268 -3.795826  1.184983
      ESP Fit Center  328 is at   3.401396 -3.947619  1.184983
      ESP Fit Center  329 is at   4.131478 -3.947619  1.184983
      ESP Fit Center  330 is at   4.845606 -3.795826  1.184983
      ESP Fit Center  331 is at   5.512569 -3.498875  1.184983
      ESP Fit Center  332 is at   6.103218 -3.069744  1.184983
      ESP Fit Center  333 is at   6.591739 -2.527187  1.184983
      ESP Fit Center  334 is at   6.956780 -1.894917  1.184983
      ESP Fit Center  335 is at   7.182387 -1.200568  1.184983
      ESP Fit Center  336 is at   7.473805 -0.474485  0.475881
      ESP Fit Center  337 is at   7.402569  0.248786  0.475881
      ESP Fit Center  338 is at   7.191599  0.944263  0.475881
      ESP Fit Center  339 is at   6.849001  1.585218  0.475881
      ESP Fit Center  340 is at   6.387942  2.147020  0.475881
      ESP Fit Center  341 is at   5.826141  2.608079  0.475881
      ESP Fit Center  342 is at   5.185186  2.950676  0.475881
      ESP Fit Center  343 is at   4.489709  3.161647  0.475881
      ESP Fit Center  344 is at   3.766437  3.232883  0.475881
      ESP Fit Center  345 is at   3.043165  3.161647  0.475881
      ESP Fit Center  346 is at   0.683873 -2.534189  0.475881
      ESP Fit Center  347 is at   1.144932 -3.095991  0.475881
      ESP Fit Center  348 is at   1.706734 -3.557049  0.475881
      ESP Fit Center  349 is at   2.347689 -3.899647  0.475881
      ESP Fit Center  350 is at   3.043165 -4.110618  0.475881
      ESP Fit Center  351 is at   3.766437 -4.181854  0.475881
      ESP Fit Center  352 is at   4.489709 -4.110618  0.475881
      ESP Fit Center  353 is at   5.185186 -3.899647  0.475881
      ESP Fit Center  354 is at   5.826141 -3.557049  0.475881
      ESP Fit Center  355 is at   6.387942 -3.095991  0.475881
      ESP Fit Center  356 is at   6.849001 -2.534189  0.475881
      ESP Fit Center  357 is at   7.191599 -1.893234  0.475881
      ESP Fit Center  358 is at   7.402569 -1.197757  0.475881
      ESP Fit Center  359 is at   7.546437 -0.474485 -0.261560
      ESP Fit Center  360 is at   7.478128  0.240884 -0.261560
      ESP Fit Center  361 is at   7.275668  0.930399 -0.261560
      ESP Fit Center  362 is at   6.946375  1.569137 -0.261560
      ESP Fit Center  363 is at   6.502152  2.134013 -0.261560
      ESP Fit Center  364 is at   5.959052  2.604612 -0.261560
      ESP Fit Center  365 is at   5.336706  2.963924 -0.261560
      ESP Fit Center  366 is at   4.657606  3.198962 -0.261560
      ESP Fit Center  367 is at   3.946297  3.301233 -0.261560
      ESP Fit Center  368 is at   3.228487  3.267040 -0.261560
      ESP Fit Center  369 is at   0.406639 -2.206582 -0.261560
      ESP Fit Center  370 is at   0.795156 -2.811126 -0.261560
      ESP Fit Center  371 is at   1.291064 -3.331219 -0.261560
      ESP Fit Center  372 is at   1.876437 -3.748061 -0.261560
      ESP Fit Center  373 is at   2.530120 -4.046588 -0.261560
      ESP Fit Center  374 is at   3.228487 -4.216010 -0.261560
      ESP Fit Center  375 is at   3.946297 -4.250204 -0.261560
      ESP Fit Center  376 is at   4.657606 -4.147933 -0.261560
      ESP Fit Center  377 is at   5.336706 -3.912894 -0.261560
      ESP Fit Center  378 is at   5.959052 -3.553582 -0.261560
      ESP Fit Center  379 is at   6.502152 -3.082984 -0.261560
      ESP Fit Center  380 is at   6.946375 -2.518108 -0.261560
      ESP Fit Center  381 is at   7.275668 -1.879369 -0.261560
      ESP Fit Center  382 is at   7.478128 -1.189855 -0.261560
      ESP Fit Center  383 is at   7.473805 -0.474485 -0.999001
      ESP Fit Center  384 is at   7.402569  0.248786 -0.999001
      ESP Fit Center  385 is at   7.191599  0.944263 -0.999001
      ESP Fit Center  386 is at   6.849001  1.585218 -0.999001
      ESP Fit Center  387 is at   6.387942  2.147020 -0.999001
      ESP Fit Center  388 is at   5.826141  2.608079 -0.999001
      ESP Fit Center  389 is at   5.185186  2.950676 -0.999001
      ESP Fit Center  390 is at   4.489709  3.161647 -0.999001
      ESP Fit Center  391 is at   3.766437  3.232883 -0.999001
      ESP Fit Center  392 is at   0.130305 -1.197757 -0.999001
      ESP Fit Center  393 is at   0.341275 -1.893234 -0.999001
      ESP Fit Center  394 is at   0.683873 -2.534189 -0.999001
      ESP Fit Center  395 is at   1.144932 -3.095991 -0.999001
      ESP Fit Center  396 is at   1.706734 -3.557049 -0.999001
      ESP Fit Center  397 is at   2.347689 -3.899647 -0.999001
      ESP Fit Center  398 is at   3.043165 -4.110618 -0.999001
      ESP Fit Center  399 is at   3.766437 -4.181854 -0.999001
      ESP Fit Center  400 is at   4.489709 -4.110618 -0.999001
      ESP Fit Center  401 is at   5.185186 -3.899647 -0.999001
      ESP Fit Center  402 is at   5.826141 -3.557049 -0.999001
      ESP Fit Center  403 is at   6.387942 -3.095991 -0.999001
      ESP Fit Center  404 is at   6.849001 -2.534189 -0.999001
      ESP Fit Center  405 is at   7.191599 -1.893234 -0.999001
      ESP Fit Center  406 is at   7.402569 -1.197757 -0.999001
      ESP Fit Center  407 is at   7.258702 -0.474485 -1.708103
      ESP Fit Center  408 is at   7.182387  0.251597 -1.708103
      ESP Fit Center  409 is at   6.956780  0.945947 -1.708103
      ESP Fit Center  410 is at   6.591739  1.578216 -1.708103
      ESP Fit Center  411 is at   6.103218  2.120773 -1.708103
      ESP Fit Center  412 is at   5.512569  2.549905 -1.708103
      ESP Fit Center  413 is at   4.845606  2.846856 -1.708103
      ESP Fit Center  414 is at   4.131478  2.998648 -1.708103
      ESP Fit Center  415 is at   0.350487 -1.200568 -1.708103
      ESP Fit Center  416 is at   0.576095 -1.894917 -1.708103
      ESP Fit Center  417 is at   0.941136 -2.527187 -1.708103
      ESP Fit Center  418 is at   1.429656 -3.069744 -1.708103
      ESP Fit Center  419 is at   2.020305 -3.498875 -1.708103
      ESP Fit Center  420 is at   2.687268 -3.795826 -1.708103
      ESP Fit Center  421 is at   3.401396 -3.947619 -1.708103
      ESP Fit Center  422 is at   4.131478 -3.947619 -1.708103
      ESP Fit Center  423 is at   4.845606 -3.795826 -1.708103
      ESP Fit Center  424 is at   5.512569 -3.498875 -1.708103
      ESP Fit Center  425 is at   6.103218 -3.069744 -1.708103
      ESP Fit Center  426 is at   6.591739 -2.527187 -1.708103
      ESP Fit Center  427 is at   6.956780 -1.894917 -1.708103
      ESP Fit Center  428 is at   7.182387 -1.200568 -1.708103
      ESP Fit Center  429 is at   6.909392 -0.474485 -2.361615
      ESP Fit Center  430 is at   6.824673  0.250330 -2.361615
      ESP Fit Center  431 is at   6.575084  0.936070 -2.361615
      ESP Fit Center  432 is at   6.174080  1.545767 -2.361615
      ESP Fit Center  433 is at   5.643280  2.046552 -2.361615
      ESP Fit Center  434 is at   5.011298  2.411427 -2.361615
      ESP Fit Center  435 is at   4.312206  2.620721 -2.361615
      ESP Fit Center  436 is at   3.583690  2.663152 -2.361615
      ESP Fit Center  437 is at   0.644733 -0.839360 -2.361615
      ESP Fit Center  438 is at   0.813025 -1.549439 -2.361615
      ESP Fit Center  439 is at   1.140536 -2.201567 -2.361615
      ESP Fit Center  440 is at   1.609610 -2.760588 -2.361615
      ESP Fit Center  441 is at   2.194960 -3.196364 -2.361615
      ESP Fit Center  442 is at   2.865027 -3.485403 -2.361615
      ESP Fit Center  443 is at   3.583690 -3.612123 -2.361615
      ESP Fit Center  444 is at   4.312206 -3.569692 -2.361615
      ESP Fit Center  445 is at   5.011298 -3.360397 -2.361615
      ESP Fit Center  446 is at   5.643280 -2.995523 -2.361615
      ESP Fit Center  447 is at   6.174080 -2.494738 -2.361615
      ESP Fit Center  448 is at   6.575084 -1.885041 -2.361615
      ESP Fit Center  449 is at   6.824673 -1.199301 -2.361615
      ESP Fit Center  450 is at   6.439301 -0.474485 -2.934424
      ESP Fit Center  451 is at   6.340184  0.246645 -2.934424
      ESP Fit Center  452 is at   6.050184  0.914292 -2.934424
      ESP Fit Center  453 is at   5.590809  1.478940 -2.934424
      ESP Fit Center  454 is at   4.996128  1.898711 -2.934424
      ESP Fit Center  455 is at   4.310247  2.142473 -2.934424
      ESP Fit Center  456 is at   3.584034  2.192147 -2.934424
      ESP Fit Center  457 is at   2.871350  2.044050 -2.934424
      ESP Fit Center  458 is at   2.225049  1.709164 -2.934424
      ESP Fit Center  459 is at   1.693067  1.212327 -2.934424
      ESP Fit Center  460 is at   1.118469 -0.838440 -2.934424
      ESP Fit Center  461 is at   1.314856 -1.539357 -2.934424
      ESP Fit Center  462 is at   1.693067 -2.161297 -2.934424
      ESP Fit Center  463 is at   2.225049 -2.658134 -2.934424
      ESP Fit Center  464 is at   2.871350 -2.993020 -2.934424
      ESP Fit Center  465 is at   3.584034 -3.141118 -2.934424
      ESP Fit Center  466 is at   4.310247 -3.091444 -2.934424
      ESP Fit Center  467 is at   4.996128 -2.847681 -2.934424
      ESP Fit Center  468 is at   5.590809 -2.427910 -2.934424
      ESP Fit Center  469 is at   6.050184 -1.863262 -2.934424
      ESP Fit Center  470 is at   6.340184 -1.195615 -2.934424
      ESP Fit Center  471 is at   5.866493 -0.474485 -3.404515
      ESP Fit Center  472 is at   5.739844  0.243776 -3.404515
      ESP Fit Center  473 is at   5.375173  0.875404 -3.404515
      ESP Fit Center  474 is at   4.816465  1.344216 -3.404515
      ESP Fit Center  475 is at   4.131108  1.593666 -3.404515
      ESP Fit Center  476 is at   3.401766  1.593666 -3.404515
      ESP Fit Center  477 is at   2.716409  1.344216 -3.404515
      ESP Fit Center  478 is at   2.157701  0.875404 -3.404515
      ESP Fit Center  479 is at   1.793030  0.243776 -3.404515
      ESP Fit Center  480 is at   1.666382 -0.474485 -3.404515
      ESP Fit Center  481 is at   1.793030 -1.192747 -3.404515
      ESP Fit Center  482 is at   2.157701 -1.824375 -3.404515
      ESP Fit Center  483 is at   2.716409 -2.293187 -3.404515
      ESP Fit Center  484 is at   3.401766 -2.542636 -3.404515
      ESP Fit Center  485 is at   4.131108 -2.542636 -3.404515
      ESP Fit Center  486 is at   4.816465 -2.293187 -3.404515
      ESP Fit Center  487 is at   5.375173 -1.824375 -3.404515
      ESP Fit Center  488 is at   5.739844 -1.192747 -3.404515
      ESP Fit Center  489 is at   5.212980 -0.474485 -3.753825
      ESP Fit Center  490 is at   5.019180  0.248786 -3.753825
      ESP Fit Center  491 is at   4.489709  0.778258 -3.753825
      ESP Fit Center  492 is at   3.766437  0.972058 -3.753825
      ESP Fit Center  493 is at   3.043165  0.778258 -3.753825
      ESP Fit Center  494 is at   2.513694  0.248786 -3.753825
      ESP Fit Center  495 is at   2.319894 -0.474485 -3.753825
      ESP Fit Center  496 is at   2.513694 -1.197757 -3.753825
      ESP Fit Center  497 is at   3.043165 -1.727229 -3.753825
      ESP Fit Center  498 is at   3.766437 -1.921029 -3.753825
      ESP Fit Center  499 is at   4.489709 -1.727229 -3.753825
      ESP Fit Center  500 is at   5.019180 -1.197757 -3.753825
      ESP Fit Center  501 is at   4.503879 -0.474485 -3.968928
      ESP Fit Center  502 is at   4.135158  0.164158 -3.968928
      ESP Fit Center  503 is at   3.397716  0.164158 -3.968928
      ESP Fit Center  504 is at   3.028996 -0.474485 -3.968928
      ESP Fit Center  505 is at   3.397716 -1.113128 -3.968928
      ESP Fit Center  506 is at   4.135158 -1.113128 -3.968928
      ESP Fit Center  507 is at   3.766437 -0.474485 -4.041560
      ESP Fit Center  508 is at  -7.900303 -0.215138  0.683334
      ESP Fit Center  509 is at  -7.577265  1.034053  0.217169
      ESP Fit Center  510 is at  -8.234003  0.556905  0.217169
      ESP Fit Center  511 is at  -8.484855 -0.215138  0.217169
      ESP Fit Center  512 is at  -8.234003 -0.987180  0.217169
      ESP Fit Center  513 is at  -7.752178  1.316306 -0.456459
      ESP Fit Center  514 is at  -8.397348  0.870977 -0.456459
      ESP Fit Center  515 is at  -8.761663  0.176832 -0.456459
      ESP Fit Center  516 is at  -8.761663 -0.607108 -0.456459
      ESP Fit Center  517 is at  -8.397348 -1.301252 -0.456459
      ESP Fit Center  518 is at  -7.752178 -1.746581 -0.456459
      ESP Fit Center  519 is at  -7.752178  1.316306 -1.204129
      ESP Fit Center  520 is at  -8.397348  0.870977 -1.204129
      ESP Fit Center  521 is at  -8.761663  0.176832 -1.204129
      ESP Fit Center  522 is at  -8.761663 -0.607108 -1.204129
      ESP Fit Center  523 is at  -8.397348 -1.301252 -1.204129
      ESP Fit Center  524 is at  -7.752178 -1.746581 -1.204129
      ESP Fit Center  525 is at  -7.577265  1.034053 -1.877757
      ESP Fit Center  526 is at  -8.234003  0.556905 -1.877757
      ESP Fit Center  527 is at  -8.484855 -0.215138 -1.877757
      ESP Fit Center  528 is at  -8.234003 -0.987180 -1.877757
      ESP Fit Center  529 is at  -7.577265 -1.464329 -1.877757
      ESP Fit Center  530 is at  -7.535840  0.416129 -2.343922
      ESP Fit Center  531 is at  -7.900303 -0.215138 -2.343922
      ESP Fit Center  532 is at  -7.535840 -0.846405 -2.343922
      ESP Fit Center  533 is at  -7.171378 -0.215138 -2.510294
      ESP Fit Center  534 is at  -6.792419 -2.413403  1.291446
      ESP Fit Center  535 is at  -6.427956 -3.044670  1.291446
      ESP Fit Center  536 is at  -5.699032 -3.044670  1.291446
      ESP Fit Center  537 is at  -7.376971 -2.413403  0.825281
      ESP Fit Center  538 is at  -7.126119 -3.185445  0.825281
      ESP Fit Center  539 is at  -6.469381 -3.662594  0.825281
      ESP Fit Center  540 is at  -5.657607 -3.662594  0.825281
      ESP Fit Center  541 is at  -7.653779 -2.021433  0.151653
      ESP Fit Center  542 is at  -7.653779 -2.805373  0.151653
      ESP Fit Center  543 is at  -7.289464 -3.499517  0.151653
      ESP Fit Center  544 is at  -6.644294 -3.944846  0.151653
      ESP Fit Center  545 is at  -5.866070 -4.039340  0.151653
      ESP Fit Center  546 is at  -5.133073 -3.761351  0.151653
      ESP Fit Center  547 is at  -7.653779 -2.021433 -0.596017
[...]
 3717 Fit       0.003552
 3718 Fit       0.005311
 3719 Fit       0.007025
 3720 Fit       0.008329
 3721 Fit       0.008527
 3722 Fit      -0.005329
 3723 Fit      -0.005675
 3724 Fit      -0.005817
 3725 Fit      -0.005793
 3726 Fit      -0.005646
 3727 Fit      -0.005413
 3728 Fit      -0.005129
 3729 Fit      -0.004829
 3730 Fit      -0.004542
 3731 Fit      -0.004292
 3732 Fit      -0.004094
 3733 Fit      -0.003951
 3734 Fit      -0.003852
 3735 Fit      -0.003776
 3736 Fit      -0.003663
 3737 Fit      -0.003576
 3738 Fit      -0.003408
 3739 Fit      -0.003121
 3740 Fit      -0.002678
 3741 Fit      -0.002048
 3742 Fit      -0.001208
 3743 Fit      -0.000140
 3744 Fit       0.001163
 3745 Fit       0.002699
 3746 Fit       0.004451
 3747 Fit       0.006380
 3748 Fit       0.008402
 3749 Fit       0.010354
 3750 Fit      -0.003738
 3751 Fit      -0.004910
 3752 Fit      -0.005501
 3753 Fit      -0.005742
 3754 Fit      -0.005763
 3755 Fit      -0.005639
 3756 Fit      -0.005419
 3757 Fit      -0.005141
 3758 Fit      -0.004840
 3759 Fit      -0.004545
 3760 Fit      -0.004282
 3761 Fit      -0.004067
 3762 Fit      -0.003908
 3763 Fit      -0.003805
 3764 Fit      -0.003745
 3765 Fit      -0.003708
 3766 Fit      -0.003649
 3767 Fit      -0.003594
 3768 Fit      -0.003465
 3769 Fit      -0.003225
 3770 Fit      -0.002841
 3771 Fit      -0.002282
 3772 Fit      -0.001524
 3773 Fit      -0.000548
 3774 Fit       0.000657
 3775 Fit       0.002094
 3776 Fit       0.003758
 3777 Fit       0.005634
 3778 Fit       0.007691
 3779 Fit       0.009886
 3780 Fit       0.012209
 3781 Fit      -0.002585
 3782 Fit      -0.004380
 3783 Fit      -0.005247
 3784 Fit      -0.005629
 3785 Fit      -0.005732
 3786 Fit      -0.005661
 3787 Fit      -0.005474
 3788 Fit      -0.005215
 3789 Fit      -0.004919
 3790 Fit      -0.004617
 3791 Fit      -0.004335
 3792 Fit      -0.004093
 3793 Fit      -0.003906
 3794 Fit      -0.003777
 3795 Fit      -0.003704
 3796 Fit      -0.003674
 3797 Fit      -0.003664
 3798 Fit      -0.003655
 3799 Fit      -0.003620
 3800 Fit      -0.003513
 3801 Fit      -0.003300
 3802 Fit      -0.002948
 3803 Fit      -0.002426
 3804 Fit      -0.001711
 3805 Fit      -0.000783
 3806 Fit       0.000369
 3807 Fit       0.001751
 3808 Fit       0.003358
 3809 Fit       0.005178
 3810 Fit       0.007184
 3811 Fit       0.009338
 3812 Fit       0.011611
 3813 Fit      -0.000612
 3814 Fit      -0.003440
 3815 Fit      -0.004772
 3816 Fit      -0.005400
 3817 Fit      -0.005653
 3818 Fit      -0.005681
 3819 Fit      -0.005562
 3820 Fit      -0.005346
 3821 Fit      -0.005072
 3822 Fit      -0.004772
 3823 Fit      -0.004475
 3824 Fit      -0.004205
 3825 Fit      -0.003981
 3826 Fit      -0.003813
 3827 Fit      -0.003706
 3828 Fit      -0.003653
 3829 Fit      -0.003642
 3830 Fit      -0.003652
 3831 Fit      -0.003685
 3832 Fit      -0.003660
 3833 Fit      -0.003566
 3834 Fit      -0.003371
 3835 Fit      -0.003044
 3836 Fit      -0.002557
 3837 Fit      -0.001887
 3838 Fit      -0.001014
 3839 Fit       0.000073
 3840 Fit       0.001381
 3841 Fit       0.002907
 3842 Fit       0.004638
 3843 Fit       0.006548
 3844 Fit       0.008596
 3845 Fit       0.010719
 3846 Fit       0.012834
 3847 Fit       0.000938
 3848 Fit      -0.002614
 3849 Fit      -0.004288
 3850 Fit      -0.005119
 3851 Fit      -0.005512
 3852 Fit      -0.005646
 3853 Fit      -0.005608
 3854 Fit      -0.005454
 3855 Fit      -0.005223
 3856 Fit      -0.004947
 3857 Fit      -0.004656
 3858 Fit      -0.004375
 3859 Fit      -0.004126
 3860 Fit      -0.003925
 3861 Fit      -0.003779
 3862 Fit      -0.003690
 3863 Fit      -0.003653
 3864 Fit      -0.003655
 3865 Fit      -0.003674
 3866 Fit      -0.003740
 3867 Fit      -0.003711
 3868 Fit      -0.003611
 3869 Fit      -0.003405
 3870 Fit      -0.003064
 3871 Fit      -0.002558
 3872 Fit      -0.001863
 3873 Fit      -0.000960
 3874 Fit       0.000163
 3875 Fit       0.001511
 3876 Fit       0.003081
 3877 Fit       0.004854
 3878 Fit       0.006800
 3879 Fit       0.008863
 3880 Fit       0.010964
 3881 Fit       0.000176
 3882 Fit      -0.002781
 3883 Fit      -0.004263
 3884 Fit      -0.005045
 3885 Fit      -0.005441
 3886 Fit      -0.005593
 3887 Fit      -0.005577
 3888 Fit      -0.005443
 3889 Fit      -0.005228
 3890 Fit      -0.004964
 3891 Fit      -0.004683
 3892 Fit      -0.004409
 3893 Fit      -0.004166
 3894 Fit      -0.003968
 3895 Fit      -0.003826
 3896 Fit      -0.003741
 3897 Fit      -0.003706
 3898 Fit      -0.003709
 3899 Fit      -0.003729
 3900 Fit      -0.003814
 3901 Fit      -0.003772
 3902 Fit      -0.003656
 3903 Fit      -0.003434
 3904 Fit      -0.003074
 3905 Fit      -0.002548
 3906 Fit      -0.001833
 3907 Fit      -0.000909
 3908 Fit       0.000234
 3909 Fit       0.001602
 3910 Fit       0.003188
 3911 Fit       0.004974
 3912 Fit       0.006921
 3913 Fit       0.008969
 3914 Fit       0.011040
 3915 Fit       0.002323
 3916 Fit      -0.001212
 3917 Fit      -0.003174
 3918 Fit      -0.004315
 3919 Fit      -0.004988
 3920 Fit      -0.005363
 3921 Fit      -0.005527
 3922 Fit      -0.005535
 3923 Fit      -0.005428
 3924 Fit      -0.005239
 3925 Fit      -0.004999
 3926 Fit      -0.004737
 3927 Fit      -0.004480
 3928 Fit      -0.004250
 3929 Fit      -0.004061
 3930 Fit      -0.003924
 3931 Fit      -0.003841
 3932 Fit      -0.003805
 3933 Fit      -0.003803
 3934 Fit      -0.003814
 3935 Fit      -0.003900
 3936 Fit      -0.003836
 3937 Fit      -0.003697
 3938 Fit      -0.003451
 3939 Fit      -0.003070
 3940 Fit      -0.002527
 3941 Fit      -0.001798
 3942 Fit      -0.000867
 3943 Fit       0.000277
 3944 Fit       0.001638
 3945 Fit       0.003208
 3946 Fit       0.004964
 3947 Fit       0.006864
 3948 Fit       0.008837
 3949 Fit       0.010804
 3950 Fit      -0.000850
 3951 Fit      -0.002366
 3952 Fit      -0.003526
 3953 Fit      -0.004354
 3954 Fit      -0.004916
 3955 Fit      -0.005265
 3956 Fit      -0.005440
 3957 Fit      -0.005477
 3958 Fit      -0.005403
 3959 Fit      -0.005248
 3960 Fit      -0.005042
 3961 Fit      -0.004810
 3962 Fit      -0.004579
 3963 Fit      -0.004368
 3964 Fit      -0.004193
 3965 Fit      -0.004063
 3966 Fit      -0.003980
 3967 Fit      -0.003938
 3968 Fit      -0.003925
 3969 Fit      -0.003920
 3970 Fit      -0.003986
 3971 Fit      -0.003888
 3972 Fit      -0.003707
 3973 Fit      -0.003411
 3974 Fit      -0.002969
 3975 Fit      -0.002355
 3976 Fit      -0.001546
 3977 Fit      -0.000527
 3978 Fit       0.000710
 3979 Fit       0.002162
 3980 Fit       0.003810
 3981 Fit       0.005615
 3982 Fit       0.007501
 3983 Fit       0.009357
 3984 Fit       0.011059
 3985 Fit      -0.001872
 3986 Fit      -0.002370
 3987 Fit      -0.003135
 3988 Fit      -0.003879
 3989 Fit      -0.004491
 3990 Fit      -0.004940
 3991 Fit      -0.005228
 3992 Fit      -0.005370
 3993 Fit      -0.005388
 3994 Fit      -0.005307
 3995 Fit      -0.005157
 3996 Fit      -0.004964
 3997 Fit      -0.004756
 3998 Fit      -0.004556
 3999 Fit      -0.004383
 4000 Fit      -0.004247
 4001 Fit      -0.004153
 4002 Fit      -0.004095
 4003 Fit      -0.004062
 4004 Fit      -0.004035
 4005 Fit      -0.004059
 4006 Fit      -0.003919
 4007 Fit      -0.003689
 4008 Fit      -0.003338
 4009 Fit      -0.002835
 4010 Fit      -0.002154
 4011 Fit      -0.001276
 4012 Fit      -0.000190
 4013 Fit       0.001107
 4014 Fit       0.002599
 4015 Fit       0.004249
 4016 Fit       0.005986
 4017 Fit       0.007685
 4018 Fit       0.009164
 4019 Fit       0.010180
 4020 Fit      -0.005329
 4021 Fit      -0.003160
 4022 Fit      -0.002375
 4023 Fit      -0.002360
 4024 Fit      -0.002777
 4025 Fit      -0.003377
 4026 Fit      -0.003985
 4027 Fit      -0.004506
 4028 Fit      -0.004898
 4029 Fit      -0.005152
 4030 Fit      -0.005275
 4031 Fit      -0.005286
 4032 Fit      -0.005211
 4033 Fit      -0.005075
 4034 Fit      -0.004907
 4035 Fit      -0.004732
 4036 Fit      -0.004569
 4037 Fit      -0.004433
 4038 Fit      -0.004330
 4039 Fit      -0.004256
 4040 Fit      -0.004200
 4041 Fit      -0.004142
 4042 Fit      -0.004102
 4043 Fit      -0.003911
 4044 Fit      -0.003619
 4045 Fit      -0.003196
 4046 Fit      -0.002609
 4047 Fit      -0.001837
 4048 Fit      -0.000863
 4049 Fit       0.000314
 4050 Fit       0.001680
 4051 Fit       0.003196
 4052 Fit       0.004782
 4053 Fit       0.006302
 4054 Fit       0.007547
 4055 Fit       0.008227
 4056 Fit       0.007961
 4057 Fit       0.006245
 4058 Fit       0.002701
 4059 Fit      -0.002094
 4060 Fit      -0.006233
 4061 Fit      -0.007651
 4062 Fit      -0.006267
 4063 Fit      -0.004048
 4064 Fit      -0.002567
 4065 Fit      -0.002037
 4066 Fit      -0.002135
 4067 Fit      -0.002575
 4068 Fit      -0.003165
 4069 Fit      -0.003768
 4070 Fit      -0.004298
 4071 Fit      -0.004711
 4072 Fit      -0.004989
 4073 Fit      -0.005139
 4074 Fit      -0.005177
 4075 Fit      -0.005130
 4076 Fit      -0.005023
 4077 Fit      -0.004886
 4078 Fit      -0.004742
 4079 Fit      -0.004609
 4080 Fit      -0.004495
 4081 Fit      -0.004402
 4082 Fit      -0.004319
 4083 Fit      -0.004228
 4084 Fit      -0.004100
 4085 Fit      -0.003847
 4086 Fit      -0.003478
 4087 Fit      -0.002959
 4088 Fit      -0.002262
 4089 Fit      -0.001369
 4090 Fit      -0.000276
 4091 Fit       0.000998
 4092 Fit       0.002403
 4093 Fit       0.003844
 4094 Fit       0.005159
 4095 Fit       0.006116
 4096 Fit       0.006430
 4097 Fit       0.005820
 4098 Fit       0.004148
 4099 Fit       0.001676
 4100 Fit      -0.000756
 4101 Fit      -0.002157
 4102 Fit      -0.002264
 4103 Fit      -0.001761
 4104 Fit      -0.001432
 4105 Fit      -0.001541
 4106 Fit      -0.001989
 4107 Fit      -0.002610
 4108 Fit      -0.003269
 4109 Fit      -0.003873
 4110 Fit      -0.004365
 4111 Fit      -0.004721
 4112 Fit      -0.004939
 4113 Fit      -0.005035
 4114 Fit      -0.005035
 4115 Fit      -0.004968
 4116 Fit      -0.004863
 4117 Fit      -0.004744
 4118 Fit      -0.004626
 4119 Fit      -0.004516
 4120 Fit      -0.004405
 4121 Fit      -0.004275
 4122 Fit      -0.004039
 4123 Fit      -0.003720
 4124 Fit      -0.003270
 4125 Fit      -0.002657
 4126 Fit      -0.001858
 4127 Fit      -0.000868
 4128 Fit       0.000290
 4129 Fit       0.001561
 4130 Fit       0.002835
 4131 Fit       0.003944
 4132 Fit       0.004665
 4133 Fit       0.004777
 4134 Fit       0.004160
 4135 Fit       0.002926
 4136 Fit       0.001484
 4137 Fit       0.000351
 4138 Fit      -0.000240
 4139 Fit      -0.000510
 4140 Fit      -0.000816
 4141 Fit      -0.001321
 4142 Fit      -0.001984
 4143 Fit      -0.002702
 4144 Fit      -0.003381
 4145 Fit      -0.003956
 4146 Fit      -0.004392
 4147 Fit      -0.004682
 4148 Fit      -0.004839
 4149 Fit      -0.004889
 4150 Fit      -0.004860
 4151 Fit      -0.004784
 4152 Fit      -0.004682
 4153 Fit      -0.004565
 4154 Fit      -0.004431
 4155 Fit      -0.004265
 4156 Fit      -0.003906
 4157 Fit      -0.003508
 4158 Fit      -0.002955
 4159 Fit      -0.002220
 4160 Fit      -0.001296
 4161 Fit      -0.000212
 4162 Fit       0.000957
 4163 Fit       0.002074
 4164 Fit       0.002948
 4165 Fit       0.003373
 4166 Fit       0.003229
 4167 Fit       0.002582
 4168 Fit       0.001703
 4169 Fit       0.000893
 4170 Fit       0.000250
 4171 Fit      -0.000347
 4172 Fit      -0.001026
 4173 Fit      -0.001793
 4174 Fit      -0.002575
 4175 Fit      -0.003284
 4176 Fit      -0.003862
 4177 Fit      -0.004280
 4178 Fit      -0.004541
 4179 Fit      -0.004665
 4180 Fit      -0.004686
 4181 Fit      -0.004634
 4182 Fit      -0.004532
 4183 Fit      -0.004387
 4184 Fit      -0.004187
 4185 Fit      -0.003692
 4186 Fit      -0.003215
 4187 Fit      -0.002560
 4188 Fit      -0.001717
 4189 Fit      -0.000721
 4190 Fit       0.000334
 4191 Fit       0.001284
 4192 Fit       0.001932
 4193 Fit       0.002123
 4194 Fit       0.001853
 4195 Fit       0.001287
 4196 Fit       0.000617
 4197 Fit      -0.000087
 4198 Fit      -0.000854
 4199 Fit      -0.001677
 4200 Fit      -0.002490
 4201 Fit      -0.003204
 4202 Fit      -0.003761
 4203 Fit      -0.004137
 4204 Fit      -0.004343
 4205 Fit      -0.004410
 4206 Fit      -0.004370
 4207 Fit      -0.004241
 4208 Fit      -0.004023
 4209 Fit      -0.003393
 4210 Fit      -0.002810
 4211 Fit      -0.002013
 4212 Fit      -0.001055
 4213 Fit      -0.000087
 4214 Fit       0.000658
 4215 Fit       0.000970
 4216 Fit       0.000804
 4217 Fit       0.000290
 4218 Fit      -0.000426
 4219 Fit      -0.001265
 4220 Fit      -0.002135
 4221 Fit      -0.002915
 4222 Fit      -0.003506
 4223 Fit      -0.003868
 4224 Fit      -0.004013
 4225 Fit      -0.003976
 4226 Fit      -0.003772
 4227 Fit      -0.003010
 4228 Fit      -0.002305
 4229 Fit      -0.001390
 4230 Fit      -0.000539
 4231 Fit      -0.000117
 4232 Fit      -0.000286
 4233 Fit      -0.000919
 4234 Fit      -0.001784
 4235 Fit      -0.002625
 4236 Fit      -0.003224
 4237 Fit      -0.003484
 4238 Fit      -0.003407
 4239 Fit      -0.002550
 4240 Fit      -0.001716
 4241 Fit      -0.001123
 4242 Fit      -0.001473
 4243 Fit      -0.002332
 4244 Fit      -0.002821
 4245 Fit      -0.002030
 4246 Fit       0.010785
 4247 Fit       0.011400
 4248 Fit       0.012213
 4249 Fit       0.012921
 4250 Fit       0.012642
 4251 Fit       0.012822
 4252 Fit       0.013205
 4253 Fit       0.013801
 4254 Fit       0.014898
 4255 Fit       0.015357
 4256 Fit       0.014241
 4257 Fit       0.014032
 4258 Fit       0.014182
 4259 Fit       0.014519
 4260 Fit       0.015137
 4261 Fit       0.016439
 4262 Fit       0.016212
 4263 Fit       0.014971
 4264 Fit       0.014661
 4265 Fit       0.014707
 4266 Fit       0.014915
 4267 Fit       0.015328
 4268 Fit       0.016230
 4269 Fit       0.018277
 4270 Fit       0.015316
 4271 Fit       0.014695
 4272 Fit       0.014567
 4273 Fit       0.014611
 4274 Fit       0.014735
 4275 Fit       0.015014
 4276 Fit       0.015667
 4277 Fit       0.014442
 4278 Fit       0.013922
 4279 Fit       0.013800
 4280 Fit       0.013778
 4281 Fit       0.013704
 4282 Fit       0.013569
 4283 Fit       0.012144
 4284 Fit       0.012320
 4285 Fit       0.012120
 4286 Fit       0.011352
 4287 Fit       0.010071
 4288 Fit       0.007983
 4289 Fit       0.005009
 4290 Fit       0.011462
 4291 Fit       0.010393
 4292 Fit       0.008424
 4293 Fit       0.005158
 4294 Fit       0.014335
 4295 Fit       0.013585
 4296 Fit       0.012610
 4297 Fit       0.011245
 4298 Fit       0.009245
 4299 Fit       0.006269
 4300 Fit       0.001714
 4301 Fit       0.015796
 4302 Fit       0.014478
 4303 Fit       0.013199
 4304 Fit       0.011607
 4305 Fit       0.009400
 4306 Fit       0.006207
 4307 Fit       0.001365
 4308 Fit       0.016876
 4309 Fit       0.015132
 4310 Fit       0.013680
 4311 Fit       0.012037
 4312 Fit       0.009864
 4313 Fit       0.006815
 4314 Fit       0.002332
 4315 Fit       0.018226
 4316 Fit       0.015828
 4317 Fit       0.014178
 4318 Fit       0.012569
 4319 Fit       0.010599
 4320 Fit       0.007951
 4321 Fit       0.004243
 4322 Fit       0.014494
 4323 Fit       0.012722
 4324 Fit       0.010689
 4325 Fit       0.007971
 4326 Fit       0.011170
 4327 Fit       0.008597
 4328 Fit       0.000640
 4329 Fit       0.004977
 4330 Fit       0.007644
 4331 Fit      -0.004110
 4332 Fit       0.002044
 4333 Fit       0.005970
 4334 Fit       0.008615
 4335 Fit       0.010542
 4336 Fit       0.012180
 4337 Fit      -0.004571
 4338 Fit       0.002020
 4339 Fit       0.006227
 4340 Fit       0.009090
 4341 Fit       0.011217
 4342 Fit       0.013120
 4343 Fit       0.015460
 4344 Fit      -0.003114
 4345 Fit       0.002982
 4346 Fit       0.006975
 4347 Fit       0.009753
 4348 Fit       0.011876
 4349 Fit       0.013864
 4350 Fit       0.016470
 4351 Fit      -0.007809
 4352 Fit      -0.000298
 4353 Fit       0.004682
 4354 Fit       0.008099
 4355 Fit       0.010565
 4356 Fit       0.012555
 4357 Fit       0.014577
 4358 Fit      -0.000155
 4359 Fit       0.004910
 4360 Fit       0.008384
 4361 Fit       0.010845
 4362 Fit       0.012814
 4363 Fit       0.001152
 4364 Fit       0.005911
 4365 Fit       0.009080
 4366 Fit       0.010992
 4367 Fit       0.006507
 4368 Fit      -0.000292
 4369 Fit       0.003942
 4370 Fit       0.000136
 4371 Fit       0.004830
 4372 Fit       0.004101
 4373 Fit       0.006294
 4374 Fit       0.003796
 4375 Fit       0.005697
 4376 Fit       0.002227
 4377 Fit       0.004604
 4378 Fit      -0.000844
 4379 Fit       0.002928
 4380 Fit       0.001569
 4381 Fit       0.002272
 4382 Fit       0.005690
 4383 Fit       0.005393
 4384 Fit       0.002751
 4385 Fit      -0.000392
 4386 Fit       0.009190
 4387 Fit       0.007049
 4388 Fit       0.004551
 4389 Fit       0.001498
 4390 Fit      -0.001850
 4391 Fit      -0.004468
 4392 Fit       0.010286
 4393 Fit       0.007939
 4394 Fit       0.005615
 4395 Fit       0.002927
 4396 Fit      -0.000377
 4397 Fit      -0.004264
 4398 Fit      -0.007876
 4399 Fit       0.010289
 4400 Fit       0.007940
 4401 Fit       0.005604
 4402 Fit       0.002933
 4403 Fit      -0.000400
 4404 Fit      -0.004729
 4405 Fit      -0.010221
 4406 Fit       0.011500
 4407 Fit       0.008693
 4408 Fit       0.006033
 4409 Fit       0.003081
 4410 Fit      -0.000624
 4411 Fit      -0.005710
 4412 Fit       0.005843
 4413 Fit       0.002301
 4414 Fit      -0.002232
 4415 Fit       0.010553
 4416 Fit       0.007505
 4417 Fit       0.010074
 4418 Fit       0.007000
 4419 Fit       0.003393
 4420 Fit      -0.001504
 4421 Fit       0.012187
 4422 Fit       0.009081
 4423 Fit       0.005893
 4424 Fit       0.002017
 4425 Fit      -0.003322
 4426 Fit       0.009196
 4427 Fit       0.005613
 4428 Fit       0.001193
 4429 Fit      -0.004952
 4430 Fit       0.008380
 4431 Fit       0.004050
 4432 Fit      -0.001564
 4433 Fit      -0.008519
 4434 Fit       0.007058
 4435 Fit       0.002046
 4436 Fit      -0.002437
 -----------------------------------------------------------------
 Leave Link  602 at Fri Jan 17 11:56:46 2014, MaxMem=   235929600 cpu:         1.5

 Test job not archived.
 1\1\GINC-G42\SP\RHF\Gen\C8H9I1N4S1\KOLAR\17-Jan-2014\0\\# hf/gen pseud
 o=read pop=(mk, readradii) iop(6/33=2,6/41=5,6/42=2)\\na resp\\0,1\C,0
 ,-6.119814,-0.27225,-0.573096\C,0,-5.504098,-1.479245,-0.239387\N,0,-4
 .21169,-1.564834,0.074482\C,0,-3.526321,-0.404931,0.052164\N,0,-4.0019
 39,0.807812,-0.23944\C,0,-5.30061,0.854532,-0.550917\N,0,-2.189275,-0.
 562063,0.401219\C,0,-1.157352,0.353762,0.403311\N,0,-1.140651,1.505851
 ,-0.132261\C,0,0.088039,2.215399,0.169788\C,0,1.237314,1.218129,0.5420
 48\H,0,1.887179,1.649275,1.306264\S,0,0.334293,-0.201671,1.28706\C,0,2
 .0481,0.841287,-0.69055\I,0,3.766437,-0.474485,-0.26156\H,0,-7.171378,
 -0.215138,-0.830294\H,0,-6.063494,-2.413403,-0.222182\H,0,-5.694802,1.
 841275,-0.789667\H,0,-1.96124,-1.517468,0.643566\H,0,-0.086352,2.89673
 8,1.014718\H,0,0.381438,2.833654,-0.687171\H,0,1.453515,0.305769,-1.43
 0223\H,0,2.498605,1.726306,-1.143469\\Version=AM64L-G09RevD.01\State=1
 -A\HF=-934.6393361\RMSD=4.032e-09\Dipole=-1.1345392,0.3887675,-0.19189
 3\Quadrupole=8.8631657,-2.584043,-6.2791226,6.3381092,2.58167,0.074625
 9\PG=C01 [X(C8H9I1N4S1)]\\@


 MATERIAL COPIED FROM ONE SCHOLARLY BOOK WITHOUT CREDIT COMPRISES PLAGIARISM.
 MATERIAL COPIED FROM TWO SCHOLARLY BOOKS COMPRISES AN ESSAY.
 MATERIAL COPIED FROM THREE SCHOLARLY BOOKS COMPRISES A DISSERTATION.
 MATERIAL COPIED FROM FOUR SCHOLARLY BOOKS COMPRISES A FIFTH SCHOLARLY BOOK.

                               -- C&EN, 25 FEB 1980
 Job cpu time:       0 days  0 hours  2 minutes 14.7 seconds.
 File lengths (MBytes):  RWF=     26 Int=      0 D2E=      0 Chk=      3 Scr=      1
 Normal termination of Gaussian 09 at Fri Jan 17 11:56:47 2014.
134.33user 0.39system 2:15.43elapsed 99%CPU (0avgtext+0avgdata 603376maxresident)k
8inputs+95992outputs (0major+170701minor)pagefaults 0swaps
