Linux g29 2.6.38.6-client #1 SMP Tue Jun 12 11:27:21 CEST 2012 x86_64 GNU/Linux
Fri Jan 17 11:54:31 CET 2014

 Entering Gaussian System, Link 0=/usr/local/programs/common/gaussian/gaussian09_d01/arch/amd64-pgi_10.4.0-acml/g09/g09
 Initial command:
 /usr/local/programs/common/gaussian/gaussian09_d01/arch/amd64-pgi_10.4.0-acml/g09/l1.exe "/scratch/kolar/g09_19842/Gau-20956.inp" -scrdir="/scratch/kolar/g09_19842/"
 Entering Link 1 = /usr/local/programs/common/gaussian/gaussian09_d01/arch/amd64-pgi_10.4.0-acml/g09/l1.exe PID=     20964.
  
 Copyright (c) 1988,1990,1992,1993,1995,1998,2003,2009,2013,
            Gaussian, Inc.  All Rights Reserved.
  
 This is part of the Gaussian(R) 09 program.  It is based on
 the Gaussian(R) 03 system (copyright 2003, Gaussian, Inc.),
 the Gaussian(R) 98 system (copyright 1998, Gaussian, Inc.),
 the Gaussian(R) 94 system (copyright 1995, Gaussian, Inc.),
 the Gaussian 92(TM) system (copyright 1992, Gaussian, Inc.),
 the Gaussian 90(TM) system (copyright 1990, Gaussian, Inc.),
 the Gaussian 88(TM) system (copyright 1988, Gaussian, Inc.),
 the Gaussian 86(TM) system (copyright 1986, Carnegie Mellon
 University), and the Gaussian 82(TM) system (copyright 1983,
 Carnegie Mellon University). Gaussian is a federally registered
 trademark of Gaussian, Inc.
  
 This software contains proprietary and confidential information,
 including trade secrets, belonging to Gaussian, Inc.
  
 This software is provided under written license and may be
 used, copied, transmitted, or stored only in accord with that
 written license.
  
 The following legend is applicable only to US Government
 contracts under FAR:
  
                    RESTRICTED RIGHTS LEGEND
  
 Use, reproduction and disclosure by the US Government is
 subject to restrictions as set forth in subparagraphs (a)
 and (c) of the Commercial Computer Software - Restricted
 Rights clause in FAR 52.227-19.
  
 Gaussian, Inc.
 340 Quinnipiac St., Bldg. 40, Wallingford CT 06492
  
  
 ---------------------------------------------------------------
 Warning -- This program may not be used in any manner that
 competes with the business of Gaussian, Inc. or will provide
 assistance to any competitor of Gaussian, Inc.  The licensee
 of this program is prohibited from giving any competitor of
 Gaussian, Inc. access to this program.  By using this program,
 the user acknowledges that Gaussian, Inc. is engaged in the
 business of creating and licensing software in the field of
 computational chemistry and represents and warrants to the
 licensee that it is not a competitor of Gaussian, Inc. and that
 it will not use this program in any manner prohibited above.
 ---------------------------------------------------------------
  

 Cite this work as:
 Gaussian 09, Revision D.01,
 M. J. Frisch, G. W. Trucks, H. B. Schlegel, G. E. Scuseria, 
 M. A. Robb, J. R. Cheeseman, G. Scalmani, V. Barone, B. Mennucci, 
 G. A. Petersson, H. Nakatsuji, M. Caricato, X. Li, H. P. Hratchian, 
 A. F. Izmaylov, J. Bloino, G. Zheng, J. L. Sonnenberg, M. Hada, 
 M. Ehara, K. Toyota, R. Fukuda, J. Hasegawa, M. Ishida, T. Nakajima, 
 Y. Honda, O. Kitao, H. Nakai, T. Vreven, J. A. Montgomery, Jr., 
 J. E. Peralta, F. Ogliaro, M. Bearpark, J. J. Heyd, E. Brothers, 
 K. N. Kudin, V. N. Staroverov, T. Keith, R. Kobayashi, J. Normand, 
 K. Raghavachari, A. Rendell, J. C. Burant, S. S. Iyengar, J. Tomasi, 
 M. Cossi, N. Rega, J. M. Millam, M. Klene, J. E. Knox, J. B. Cross, 
 V. Bakken, C. Adamo, J. Jaramillo, R. Gomperts, R. E. Stratmann, 
 O. Yazyev, A. J. Austin, R. Cammi, C. Pomelli, J. W. Ochterski, 
 R. L. Martin, K. Morokuma, V. G. Zakrzewski, G. A. Voth, 
 P. Salvador, J. J. Dannenberg, S. Dapprich, A. D. Daniels, 
 O. Farkas, J. B. Foresman, J. V. Ortiz, J. Cioslowski, 
 and D. J. Fox, Gaussian, Inc., Wallingford CT, 2013.
 
 ******************************************
 Gaussian 09:  AM64L-G09RevD.01 24-Apr-2013
                17-Jan-2014 
 ******************************************
 %mem=1800mb
 ------------------------------------------------------------------
 # hf/gen pseudo=read pop=(mk, readradii) iop(6/33=2,6/41=5,6/42=2)
 ------------------------------------------------------------------
 1/38=1/1;
 2/12=2,17=6,18=5,40=1/2;
 3/5=7,11=9,16=1,17=8,25=1,30=1/1,2,3;
 4//1;
 5/5=2,38=5/2;
 6/7=2,8=2,9=2,10=2,15=8,20=101,28=1,33=2,41=5,42=2/1,2;
 99/5=1,9=1/99;
 -------
 na resp
 -------
 Symbolic Z-matrix:
 Charge =  0 Multiplicity = 1
 6                     1.35194   2.32558  -0.42124 
 6                     0.63093   0.98709  -0.44436 
 1                     0.28619   0.72421  -1.44551 
 6                    -0.54893   0.91742   0.53392 
 1                    -0.196     1.00653   1.57044 
 8                    -1.41812   2.00452   0.21171 
 6                    -2.73734   1.48671   0.07515 
 6                    -2.50181   0.02185  -0.29266 
 1                    -2.33571  -0.08974  -1.37424 
 8                    -1.29999  -0.27073   0.42767 
 6                    -3.60854  -0.9236    0.13354 
 8                    -3.37199  -2.18578  -0.46372 
 53                    2.06782  -0.6462    0.04324 
 1                     1.74323   2.55124   0.57635 
 1                     2.18521   2.33829  -1.1281 
 1                     0.64092   3.11214  -0.69863 
 1                    -3.28858   1.57701   1.02399 
 1                    -3.2576    2.05831  -0.6983 
 1                    -3.61216  -0.97715   1.23252 
 1                    -4.57503  -0.49955  -0.19179 
 1                    -3.98179  -2.82699  -0.06989 
 
                          Input orientation:                          
 ---------------------------------------------------------------------
 Center     Atomic      Atomic             Coordinates (Angstroms)
 Number     Number       Type             X           Y           Z
 ---------------------------------------------------------------------
      1          6           0        1.351937    2.325583   -0.421239
      2          6           0        0.630931    0.987087   -0.444359
      3          1           0        0.286191    0.724205   -1.445505
      4          6           0       -0.548926    0.917416    0.533915
      5          1           0       -0.196004    1.006526    1.570444
      6          8           0       -1.418119    2.004521    0.211708
      7          6           0       -2.737341    1.486710    0.075150
      8          6           0       -2.501807    0.021852   -0.292662
      9          1           0       -2.335707   -0.089743   -1.374244
     10          8           0       -1.299985   -0.270733    0.427671
     11          6           0       -3.608543   -0.923595    0.133541
     12          8           0       -3.371994   -2.185784   -0.463724
     13         53           0        2.067823   -0.646201    0.043242
     14          1           0        1.743227    2.551238    0.576349
     15          1           0        2.185213    2.338288   -1.128100
     16          1           0        0.640923    3.112140   -0.698634
     17          1           0       -3.288580    1.577010    1.023995
     18          1           0       -3.257605    2.058306   -0.698299
     19          1           0       -3.612163   -0.977145    1.232515
     20          1           0       -4.575034   -0.499548   -0.191791
     21          1           0       -3.981790   -2.826991   -0.069885
 ---------------------------------------------------------------------
                    Distance matrix (angstroms):
                    1          2          3          4          5
     1  C    0.000000
     2  C    1.520512   0.000000
     3  H    2.179300   1.090984   0.000000
     4  C    2.551183   1.534254   2.157048   0.000000
     5  H    2.846548   2.177988   3.067273   1.098584   0.000000
     6  O    2.859530   2.379958   2.700044   1.428675   2.082240
     7  C    4.203844   3.444527   3.469229   2.307319   2.987453
     8  C    4.491665   3.281576   3.097625   2.301958   3.123696
     9  H    4.510071   3.290166   2.746259   2.801433   3.801489
    10  O    3.807124   2.463937   2.648517   1.409637   2.038650
    11  C    5.955779   4.685917   4.514154   3.593171   4.175581
    12  O    6.532210   5.107925   4.776426   4.312174   4.941214
    13  I    3.091882   2.229359   2.696033   3.087561   3.191985
    14  H    1.095084   2.173848   3.090129   2.815163   2.671138
    15  H    1.092778   2.170032   2.512428   3.500955   3.837437
    16  H    1.095975   2.140235   2.527031   2.784193   3.206676
    17  H    4.917668   4.226895   4.427719   2.860235   3.191878
    18  H    4.625589   4.041375   3.859616   3.186993   3.953079
    19  H    6.187504   4.967289   5.026286   3.668900   3.964756
    20  H    6.569855   5.419958   5.167289   4.329432   4.954759
    21  H    7.424359   5.997051   5.720051   5.115634   5.631936
                    6          7          8          9         10
     6  O    0.000000
     7  C    1.423771   0.000000
     8  C    2.315112   1.528585   0.000000
     9  H    2.782652   2.178820   1.099937   0.000000
    10  O    2.288531   2.297579   1.431385   2.086235   0.000000
    11  C    3.657585   2.563586   1.516702   2.142157   2.417060
    12  O    4.672525   3.765685   2.379106   2.509248   2.958923
    13  I    4.382522   5.257369   4.630404   4.659398   3.410409
    14  H    3.228927   4.632484   5.017299   5.236153   4.152922
    15  H    3.858819   5.138534   5.294524   5.137571   4.623204
    16  H    2.509023   3.827980   4.426222   4.423667   4.059497
    17  H    2.083555   1.101056   2.184288   3.072065   2.779256
    18  H    2.052977   1.093444   2.209732   2.433292   3.244150
    19  H    3.840079   2.859264   2.134725   3.035130   2.548129
    20  H    4.049603   2.719116   2.140164   2.565292   3.340963
    21  H    5.476788   4.491960   3.218056   3.450140   3.738194
                   11         12         13         14         15
    11  C    0.000000
    12  O    1.416263   0.000000
    13  I    5.683857   5.676173   0.000000
    14  H    6.396248   7.048873   3.257788   0.000000
    15  H    6.767513   7.196608   3.208270   1.773653   0.000000
    16  H    5.919260   6.650315   4.087976   1.776307   1.779921
    17  H    2.673632   4.047083   5.881802   5.144763   5.930722
    18  H    3.115582   4.252107   6.018673   5.184210   5.466936
    19  H    1.100284   2.096596   5.812584   6.446723   7.083373
    20  H    1.104428   2.089173   6.648631   7.058169   7.391274
    21  H    1.950285   0.968559   6.431676   7.881547   8.113683
                   16         17         18         19         20
    16  H    0.000000
    17  H    4.556870   0.000000
    18  H    4.038451   1.788547   0.000000
    19  H    6.208086   2.583001   3.614930   0.000000
    20  H    6.364541   2.728588   2.921436   1.784339   0.000000
    21  H    7.552356   4.590462   4.978501   2.292335   2.404951
                   21
    21  H    0.000000
 Stoichiometry    C6H11IO3
 Framework group  C1[X(C6H11IO3)]
 Deg. of freedom    57
 Full point group                 C1      NOp   1
 Largest Abelian subgroup         C1      NOp   1
 Largest concise Abelian subgroup C1      NOp   1
                         Standard orientation:                         
 ---------------------------------------------------------------------
 Center     Atomic      Atomic             Coordinates (Angstroms)
 Number     Number       Type             X           Y           Z
 ---------------------------------------------------------------------
      1          6           0       -1.351937    2.325583    0.421239
      2          6           0       -0.630931    0.987087    0.444359
      3          1           0       -0.286191    0.724205    1.445505
      4          6           0        0.548926    0.917416   -0.533915
      5          1           0        0.196004    1.006526   -1.570444
      6          8           0        1.418119    2.004521   -0.211708
      7          6           0        2.737341    1.486710   -0.075150
      8          6           0        2.501807    0.021852    0.292662
      9          1           0        2.335707   -0.089743    1.374244
     10          8           0        1.299985   -0.270733   -0.427671
     11          6           0        3.608543   -0.923595   -0.133541
     12          8           0        3.371994   -2.185784    0.463724
     13         53           0       -2.067823   -0.646201   -0.043242
     14          1           0       -1.743227    2.551238   -0.576349
     15          1           0       -2.185213    2.338288    1.128100
     16          1           0       -0.640923    3.112140    0.698634
     17          1           0        3.288580    1.577010   -1.023995
     18          1           0        3.257605    2.058306    0.698299
     19          1           0        3.612163   -0.977145   -1.232515
     20          1           0        4.575034   -0.499548    0.191791
     21          1           0        3.981790   -2.826991    0.069885
 ---------------------------------------------------------------------
 Rotational constants (GHZ):      1.3223159      0.4084376      0.3233117
 General basis read from cards:  (5D, 7F)
 ======================================================================================================
                                       Pseudopotential Parameters
 ======================================================================================================
  Center     Atomic      Valence      Angular      Power
  Number     Number     Electrons     Momentum     of R      Exponent        Coefficient   SO-Coeffient
 ======================================================================================================
    1          6
                                   No pseudopotential on this center.
    2          6
                                   No pseudopotential on this center.
    3          1
                                   No pseudopotential on this center.
    4          6
                                   No pseudopotential on this center.
    5          1
                                   No pseudopotential on this center.
    6          8
                                   No pseudopotential on this center.
    7          6
                                   No pseudopotential on this center.
    8          6
                                   No pseudopotential on this center.
    9          1
                                   No pseudopotential on this center.
   10          8
                                   No pseudopotential on this center.
   11          6
                                   No pseudopotential on this center.
   12          8
                                   No pseudopotential on this center.
   13         53            7
                                      F and up 
                                                     0        1.0715702       -0.07476210    0.00000000
                                                     1       44.1936028      -30.08112240    0.00000000
                                                     2       12.9367609      -75.37227210    0.00000000
                                                     2        3.1956412      -22.05637580    0.00000000
                                                     2        0.8589806       -1.69795850    0.00000000
                                      S - F
                                                     0      127.9202670        2.93800360    0.00000000
                                                     1       78.6211465       41.24712670    0.00000000
                                                     2       36.5146237      287.86800950    0.00000000
                                                     2        9.9065681      114.37585060    0.00000000
                                                     2        1.9420086       37.65477140    0.00000000
                                      P - F
                                                     0       13.0035304        2.22226300    0.00000000
                                                     1       76.0331404       39.40908310    0.00000000
                                                     2       24.1961684      177.40750020    0.00000000
                                                     2        6.4053433       77.98894620    0.00000000
                                                     2        1.5851786       25.75476410    0.00000000
                                      D - F
                                                     0       40.4278108        7.05243600    0.00000000
                                                     1       28.9084375       33.30416350    0.00000000
                                                     2       15.6268936      186.94538750    0.00000000
                                                     2        4.1442856       71.96883610    0.00000000
                                                     2        0.9377235        9.36306570    0.00000000
   14          1
                                   No pseudopotential on this center.
   15          1
                                   No pseudopotential on this center.
   16          1
                                   No pseudopotential on this center.
   17          1
                                   No pseudopotential on this center.
   18          1
                                   No pseudopotential on this center.
   19          1
                                   No pseudopotential on this center.
   20          1
                                   No pseudopotential on this center.
   21          1
                                   No pseudopotential on this center.
 ======================================================================================================
 There are   165 symmetry adapted cartesian basis functions of A   symmetry.
 There are   156 symmetry adapted basis functions of A   symmetry.
   156 basis functions,   308 primitive gaussians,   165 cartesian basis functions
    39 alpha electrons       39 beta electrons
       nuclear repulsion energy       551.2050388022 Hartrees.
 NAtoms=   21 NActive=   21 NUniq=   21 SFac= 1.00D+00 NAtFMM=   60 NAOKFM=F Big=F
 Integral buffers will be    131072 words long.
 Raffenetti 1 integral format.
 Two-electron integral symmetry is turned on.
 One-electron integrals computed using PRISM.
   1 Symmetry operations used in ECPInt.
 ECPInt:  NShTT=    1953 NPrTT=   11372 LenC2=    1898 LenP2D=    7657.
 LDataN:  DoStor=T MaxTD1= 5 Len=  102
 NBasis=   156 RedAO= T EigKep=  3.26D-03  NBF=   156
 NBsUse=   156 1.00D-06 EigRej= -1.00D+00 NBFU=   156
 ExpMin= 1.05D-01 ExpMax= 5.48D+03 ExpMxC= 8.25D+02 IAcc=1 IRadAn=         1 AccDes= 0.00D+00
 Harris functional with IExCor=  205 and IRadAn=       1 diagonalized for initial guess.
 HarFok:  IExCor=  205 AccDes= 0.00D+00 IRadAn=         1 IDoV= 1 UseB2=F ITyADJ=14
 ICtDFT=  3500011 ScaDFX=  1.000000  1.000000  1.000000  1.000000
 Defaulting to unpruned grid for atomic number  53.
 FoFCou: FMM=F IPFlag=           0 FMFlag=      100000 FMFlg1=           0
         NFxFlg=           0 DoJE=T BraDBF=F KetDBF=T FulRan=T
         wScrn=  0.000000 ICntrl=     500 IOpCl=  0 I1Cent=   200000004 NGrid=           0
         NMat0=    1 NMatS0=      1 NMatT0=    0 NMatD0=    1 NMtDS0=    0 NMtDT0=    0
 Petite list used in FoFCou.
 Keep R1 ints in memory in canonical form, NReq=77377911.
 Requested convergence on RMS density matrix=1.00D-08 within 128 cycles.
 Requested convergence on MAX density matrix=1.00D-06.
 Requested convergence on             energy=1.00D-06.
 No special actions if energy rises.
 SCF Done:  E(RHF) =  -469.319867660     A.U. after   12 cycles
            NFock= 12  Conv=0.99D-08     -V/T= 2.0185

 **********************************************************************

            Population analysis using the SCF density.

 **********************************************************************

 Orbital symmetries:
 BldTbl:  Degeneracy threshold= 1.00D-02
       Occupied  (A) (A) (A) (A) (A) (A) (A) (A) (A) (A) (A) (A)
                 (A) (A) (A) (A) (A) (A) (A) (A) (A) (A) (A) (A)
                 (A) (A) (A) (A) (A) (A) (A) (A) (A) (A) (A) (A)
                 (A) (A) (A)
       Virtual   (A) (A) (A) (A) (A) (A) (A) (A) (A) (A) (A) (A)
                 (A) (A) (A) (A) (A) (A) (A) (A) (A) (A) (A) (A)
                 (A) (A) (A) (A) (A) (A) (A) (A) (A) (A) (A) (A)
                 (A) (A) (A) (A) (A) (A) (A) (A) (A) (A) (A) (A)
                 (A) (A) (A) (A) (A) (A) (A) (A) (A) (A) (A) (A)
                 (A) (A) (A) (A) (A) (A) (A) (A) (A) (A) (A) (A)
                 (A) (A) (A) (A) (A) (A) (A) (A) (A) (A) (A) (A)
                 (A) (A) (A) (A) (A) (A) (A) (A) (A) (A) (A) (A)
                 (A) (A) (A) (A) (A) (A) (A) (A) (A) (A) (A) (A)
                 (A) (A) (A) (A) (A) (A) (A) (A) (A)
 The electronic state is 1-A.
 Alpha  occ. eigenvalues --  -20.58373 -20.57838 -20.56849 -11.35255 -11.29725
 Alpha  occ. eigenvalues --  -11.29625 -11.29447 -11.29255 -11.23021  -1.45168
 Alpha  occ. eigenvalues --   -1.36888  -1.34250  -1.09851  -1.04266  -0.94130
 Alpha  occ. eigenvalues --   -0.90628  -0.85356  -0.83474  -0.78795  -0.72796
 Alpha  occ. eigenvalues --   -0.71472  -0.68724  -0.64861  -0.63481  -0.61604
 Alpha  occ. eigenvalues --   -0.60219  -0.59506  -0.57322  -0.54555  -0.53228
 Alpha  occ. eigenvalues --   -0.52543  -0.52188  -0.49690  -0.46156  -0.45121
 Alpha  occ. eigenvalues --   -0.42926  -0.40994  -0.34790  -0.34431
 Alpha virt. eigenvalues --    0.11194   0.21650   0.22814   0.24455   0.25707
 Alpha virt. eigenvalues --    0.27612   0.27974   0.29506   0.30325   0.31539
 Alpha virt. eigenvalues --    0.31856   0.33423   0.33767   0.35319   0.39574
 Alpha virt. eigenvalues --    0.39751   0.40651   0.42894   0.43531   0.46588
 Alpha virt. eigenvalues --    0.51527   0.56739   0.58588   0.59171   0.70873
 Alpha virt. eigenvalues --    0.74057   0.75629   0.76388   0.78838   0.79737
 Alpha virt. eigenvalues --    0.80729   0.81491   0.83129   0.85759   0.87760
 Alpha virt. eigenvalues --    0.89170   0.90196   0.93403   0.96016   1.01318
 Alpha virt. eigenvalues --    1.04623   1.06969   1.07987   1.10465   1.10887
 Alpha virt. eigenvalues --    1.11684   1.12351   1.12660   1.15602   1.16733
 Alpha virt. eigenvalues --    1.16824   1.18860   1.19742   1.22983   1.27604
 Alpha virt. eigenvalues --    1.28556   1.30562   1.31980   1.35875   1.40429
 Alpha virt. eigenvalues --    1.47247   1.48053   1.51728   1.55659   1.58476
 Alpha virt. eigenvalues --    1.60531   1.62730   1.66047   1.69760   1.78534
 Alpha virt. eigenvalues --    1.80577   1.84122   1.88698   1.93479   1.95880
 Alpha virt. eigenvalues --    2.00567   2.04113   2.06601   2.10316   2.11720
 Alpha virt. eigenvalues --    2.14975   2.18480   2.20604   2.21897   2.22703
 Alpha virt. eigenvalues --    2.26837   2.28237   2.31858   2.36494   2.37146
 Alpha virt. eigenvalues --    2.38304   2.41406   2.44312   2.48069   2.50424
 Alpha virt. eigenvalues --    2.52563   2.56814   2.61719   2.64223   2.66363
 Alpha virt. eigenvalues --    2.73972   2.74539   2.77804   2.78398   2.81622
 Alpha virt. eigenvalues --    2.88750   2.92216   2.96628   2.98954   3.04726
 Alpha virt. eigenvalues --    3.08190   3.14817   3.21130   3.24545   3.32037
 Alpha virt. eigenvalues --    3.42578  10.36576
          Condensed to atoms (all electrons):
               1          2          3          4          5          6
     1  C    5.186970   0.256328  -0.030968  -0.038862   0.000202  -0.006508
     2  C    0.256328   5.564788   0.370500   0.284028  -0.071183  -0.052450
     3  H   -0.030968   0.370500   0.480854  -0.027969   0.003711   0.000885
     4  C   -0.038862   0.284028  -0.027969   4.484099   0.415712   0.211611
     5  H    0.000202  -0.071183   0.003711   0.415712   0.526156  -0.036087
     6  O   -0.006508  -0.052450   0.000885   0.211611  -0.036087   8.523768
     7  C    0.000104   0.004853  -0.000110  -0.056032  -0.000358   0.197273
     8  C   -0.000078  -0.003924   0.001412  -0.055310   0.005665  -0.032192
     9  H   -0.000096   0.001961  -0.000364   0.000513  -0.000310   0.000426
    10  O    0.002148  -0.045408   0.000209   0.245478  -0.039456  -0.047358
    11  C    0.000002  -0.000251   0.000047   0.003471   0.000195   0.002018
    12  O    0.000000  -0.000001  -0.000001  -0.000041   0.000000  -0.000013
    13  I   -0.071693   0.309020  -0.043451  -0.063800   0.001673   0.003210
    14  H    0.392750  -0.041110   0.003464  -0.002600   0.002287   0.000139
    15  H    0.395138  -0.036288  -0.002892   0.003570  -0.000182   0.000050
    16  H    0.381572  -0.035761  -0.001447  -0.005395   0.000552   0.005173
    17  H   -0.000022  -0.000266   0.000019  -0.000559   0.001157  -0.038931
    18  H    0.000003   0.000196  -0.000060   0.004715  -0.000264  -0.031461
    19  H    0.000000   0.000022  -0.000002  -0.000148  -0.000085  -0.000059
    20  H    0.000000   0.000005   0.000000  -0.000010  -0.000002   0.000004
    21  H    0.000000   0.000000   0.000000   0.000007   0.000000   0.000001
               7          8          9         10         11         12
     1  C    0.000104  -0.000078  -0.000096   0.002148   0.000002   0.000000
     2  C    0.004853  -0.003924   0.001961  -0.045408  -0.000251  -0.000001
     3  H   -0.000110   0.001412  -0.000364   0.000209   0.000047  -0.000001
     4  C   -0.056032  -0.055310   0.000513   0.245478   0.003471  -0.000041
     5  H   -0.000358   0.005665  -0.000310  -0.039456   0.000195   0.000000
     6  O    0.197273  -0.032192   0.000426  -0.047358   0.002018  -0.000013
     7  C    4.843972   0.347632  -0.043459  -0.046150  -0.041728   0.001641
     8  C    0.347632   4.886245   0.391352   0.186759   0.351742  -0.049066
     9  H   -0.043459   0.391352   0.530769  -0.038735  -0.041352   0.001237
    10  O   -0.046150   0.186759  -0.038735   8.504500  -0.042336   0.002809
    11  C   -0.041728   0.351742  -0.041352  -0.042336   4.777633   0.216613
    12  O    0.001641  -0.049066   0.001237   0.002809   0.216613   8.408341
    13  I   -0.000247   0.000650   0.000011  -0.004001   0.000012   0.000002
    14  H   -0.000026   0.000009   0.000000  -0.000006   0.000000   0.000000
    15  H    0.000004   0.000001   0.000002  -0.000036   0.000000   0.000000
    16  H   -0.000046   0.000038  -0.000004   0.000039   0.000000   0.000000
    17  H    0.394204  -0.048546   0.003753   0.000497   0.000211  -0.000004
    18  H    0.391494  -0.029774  -0.001219   0.002766  -0.000193  -0.000051
    19  H   -0.001592  -0.037058   0.005008   0.000302   0.386121  -0.034927
    20  H    0.001527  -0.054886  -0.000380   0.003016   0.394392  -0.039833
    21  H   -0.000142   0.005823  -0.000183  -0.000118  -0.027116   0.261175
              13         14         15         16         17         18
     1  C   -0.071693   0.392750   0.395138   0.381572  -0.000022   0.000003
     2  C    0.309020  -0.041110  -0.036288  -0.035761  -0.000266   0.000196
     3  H   -0.043451   0.003464  -0.002892  -0.001447   0.000019  -0.000060
     4  C   -0.063800  -0.002600   0.003570  -0.005395  -0.000559   0.004715
     5  H    0.001673   0.002287  -0.000182   0.000552   0.001157  -0.000264
     6  O    0.003210   0.000139   0.000050   0.005173  -0.038931  -0.031461
     7  C   -0.000247  -0.000026   0.000004  -0.000046   0.394204   0.391494
     8  C    0.000650   0.000009   0.000001   0.000038  -0.048546  -0.029774
     9  H    0.000011   0.000000   0.000002  -0.000004   0.003753  -0.001219
    10  O   -0.004001  -0.000006  -0.000036   0.000039   0.000497   0.002766
    11  C    0.000012   0.000000   0.000000   0.000000   0.000211  -0.000193
    12  O    0.000002   0.000000   0.000000   0.000000  -0.000004  -0.000051
    13  I    6.837853  -0.001648  -0.003580   0.004929   0.000016   0.000004
    14  H   -0.001648   0.510893  -0.025228  -0.024071   0.000001   0.000000
    15  H   -0.003580  -0.025228   0.499507  -0.024458   0.000000   0.000000
    16  H    0.004929  -0.024071  -0.024458   0.491669   0.000015  -0.000044
    17  H    0.000016   0.000001   0.000000   0.000015   0.554912  -0.035150
    18  H    0.000004   0.000000   0.000000  -0.000044  -0.035150   0.511867
    19  H    0.000000   0.000000   0.000000   0.000000   0.002672   0.000079
    20  H    0.000000   0.000000   0.000000   0.000000  -0.000304   0.000451
    21  H    0.000000   0.000000   0.000000   0.000000   0.000003   0.000001
              19         20         21
     1  C    0.000000   0.000000   0.000000
     2  C    0.000022   0.000005   0.000000
     3  H   -0.000002   0.000000   0.000000
     4  C   -0.000148  -0.000010   0.000007
     5  H   -0.000085  -0.000002   0.000000
     6  O   -0.000059   0.000004   0.000001
     7  C   -0.001592   0.001527  -0.000142
     8  C   -0.037058  -0.054886   0.005823
     9  H    0.005008  -0.000380  -0.000183
    10  O    0.000302   0.003016  -0.000118
    11  C    0.386121   0.394392  -0.027116
    12  O   -0.034927  -0.039833   0.261175
    13  I    0.000000   0.000000   0.000000
    14  H    0.000000   0.000000   0.000000
    15  H    0.000000   0.000000   0.000000
    16  H    0.000000   0.000000   0.000000
    17  H    0.002672  -0.000304   0.000003
    18  H    0.000079   0.000451   0.000001
    19  H    0.559572  -0.041407  -0.004431
    20  H   -0.041407   0.594228  -0.001685
    21  H   -0.004431  -0.001685   0.310497
 Mulliken charges:
               1
     1  C   -0.466990
     2  C   -0.505059
     3  H    0.246163
     4  C    0.597521
     5  H    0.190618
     6  O   -0.699500
     7  C    0.007186
     8  C    0.133507
     9  H    0.191070
    10  O   -0.684921
    11  C    0.020521
    12  O   -0.767883
    13  I    0.031039
    14  H    0.185147
    15  H    0.194394
    16  H    0.207241
    17  H    0.166320
    18  H    0.186641
    19  H    0.165934
    20  H    0.144884
    21  H    0.456167
 Sum of Mulliken charges =   0.00000
 Mulliken charges with hydrogens summed into heavy atoms:
               1
     1  C    0.119792
     2  C   -0.258896
     4  C    0.788139
     6  O   -0.699500
     7  C    0.360147
     8  C    0.324576
    10  O   -0.684921
    11  C    0.331339
    12  O   -0.311716
    13  I    0.031039
 DipInt: DoE/N= T F RetVal/Mat= T F Init=T NMatP=  1 IDeriv=0 Min/MaxMlt=  0  4
 Entering OneElI...
 OneElI was handed   235857293 working-precision words.
 Multipole integrals L=0 to 4 MinM= 0 MaxM= 0.
 Requested accuracy = 0.1000D-12
 ShPair: Thresh= 1.00D-13 NBox=     0 BxSize= 0.00D+00 RnKept= 1.53D+01
         NSMCal=                 1953 NSMKep=                1834
 PrsmSu:  NPrtUS=   1 ThrOK=F IAlg=1 NPAlg=1 LenDen=           0.
 Prism:   IPart=     0 DynPar=F LinDyn=F Incr=          18.
 PRISM was handed   235700060 working-precision words and  1834 shell-pairs
 IPart=  0 NShTot=        1834 NBatch=          81 AvBLen=        22.6
 PrSmSu:  NxtVal=             19.
 Electronic moments (au):
        -78.00000000       -178.07285802        -55.46408138         -3.83915522
      -1513.18049755       -680.38295700       -125.84034941        216.22199688
         12.55108477          7.33886788      -7062.83225702       -971.31418731
        -12.61575088      -1445.93887466       1123.34679385       -225.50460152
       -188.94318505        -96.17933757       -214.94473244        314.50569497
     -56048.38885473     -12368.00958717       -724.10023608      11191.91631723
       -943.68064138       4830.75599655         -8.85607263        103.17293366
        -26.05307036     -13978.55928767      -2223.44821952      -1019.83799622
        933.17722322       -174.39606110        352.55708786
 Electronic spatial extent (au):  <R**2>=           2319.4038
 DipInt: DoE/N= F T RetVal/Mat= T F Init=T NMatP=  1 IDeriv=0 Min/MaxMlt=  0  4
 Nuclear    moments (au):
         78.00000000        179.75047707         56.17254925          3.75892384
       1469.02027858        623.97780024         70.72103517       -219.50092449
        -14.68855281         -4.59024671       7029.89556263        874.75498957
          6.88552039       1404.56110409      -1173.40420618        205.47320678
        135.21308433         81.25149334        206.74052768       -301.25444253
      50749.43033642      10055.40429370        270.86000925     -11284.69269832
        850.50122786      -4865.72865015         67.25309463        -90.37463050
         23.33372661      12856.49983013       1092.19508139        534.58931511
       -817.80908079        139.44396412       -276.23586782
 Total      moments (au):
          0.00000000          1.67761905          0.70846788         -0.08023139
        -44.16021898        -56.40515676        -55.11931423         -3.27892761
         -2.13746805          2.74862118        -32.93669439        -96.55919773
         -5.73023049        -41.37777057        -50.05741233        -20.03139473
        -53.73010072        -14.92784423         -8.20420476         13.25125244
      -5298.95851830      -2312.60529347       -453.24022683        -92.77638109
        -93.17941352        -34.97265360         58.39702200         12.79830315
         -2.71934376      -1122.05945754      -1131.25313813       -485.24868110
        115.36814244        -34.95209699         76.32122004
 Traceless Quadrup. (au):
          7.73467768         -4.51026010         -3.22441758         -3.27892761
         -2.13746805          2.74862118
 Charge=              0.0000 electrons
 Dipole moment (field-independent basis, Debye):
    X=              4.2641    Y=              1.8007    Z=             -0.2039  Tot=              4.6332
 Quadrupole moment (field-independent basis, Debye-Ang):
   XX=            -59.3970   YY=            -75.8669   ZZ=            -74.1374
   XY=             -4.4103   XZ=             -2.8750   YZ=              3.6970
 Traceless Quadrupole moment (field-independent basis, Debye-Ang):
   XX=             10.4034   YY=             -6.0665   ZZ=             -4.3370
   XY=             -4.4103   XZ=             -2.8750   YZ=              3.6970
 Octapole moment (field-independent basis, Debye-Ang**2):
  XXX=            -23.4431  YYY=            -68.7271  ZZZ=             -4.0786  XYY=            -29.4511
  XXY=            -35.6289  XXZ=            -14.2576  XZZ=            -38.2430  YZZ=            -10.6251
  YYZ=             -5.8394  XYZ=              9.4317
 Hexadecapole moment (field-independent basis, Debye-Ang**3):
 XXXX=          -1995.8417 YYYY=           -871.0380 ZZZZ=           -170.7120 XXXY=            -34.9440
 XXXZ=            -35.0958 YYYX=            -13.1724 YYYZ=             21.9951 ZZZX=              4.8205
 ZZZY=             -1.0242 XXYY=           -422.6214 XXZZ=           -426.0841 YYZZ=           -182.7679
 XXYZ=             43.4532 YYXZ=            -13.1646 ZZXY=             28.7462
 N-N= 5.512050388022D+02 E-N=-2.199879203350D+03  KE= 4.608053976317D+02
 Entering OneElI...
 OneElI was handed   235873196 working-precision words.
 Calculate electrostatic properties
    NBasis =   156  MinDer = 0  MaxDer = 0
    NGrid  =    21  NMatD  =   1
 Requested accuracy = 0.1000D-12
 ShPair: Thresh= 1.00D-13 NBox=     0 BxSize= 0.00D+00 RnKept= 1.53D+01
         NSMCal=                 1953 NSMKep=                1733
 PrsmSu:  NPrtUS=   1 ThrOK=F IAlg=1 NPAlg=1 LenDen=           0.
 Prism:   IPart=     0 DynPar=F LinDyn=F Incr=         363.
 PRISM was handed   235726765 working-precision words and  1733 shell-pairs
 IPart=  0 NShTot=       36393 NBatch=        1733 AvBLen=        21.0
 PrSmSu:  NxtVal=            364.
 --------------------------------------------------------
       Center         ----      EFG at Nuclei      ----
                      3XX-RR        3YY-RR        3ZZ-RR
 --------------------------------------------------------
     1   Atom        0.033043     -0.077156      0.044113
     2   Atom       -0.069518     -0.128610      0.198128
     3   Atom        0.100281      0.123666     -0.223947
     4   Atom        0.000982     -0.336962      0.335980
     5   Atom        0.092476      0.132181     -0.224657
     6   Atom       -1.676190     -0.088618      1.764808
     7   Atom       -0.280408      0.095602      0.184807
     8   Atom       -0.223782      0.146825      0.076958
     9   Atom        0.121745      0.140200     -0.261945
    10   Atom       -0.914501     -0.230434      1.144934
    11   Atom        0.139578     -0.234075      0.094497
    12   Atom        0.706542     -1.614286      0.907743
    13   Atom       -0.011527     -0.021470      0.032997
    14   Atom        0.095357      0.125153     -0.220510
    15   Atom       -0.108049      0.144011     -0.035963
    16   Atom       -0.035572     -0.085681      0.121252
    17   Atom        0.030883      0.137624     -0.168507
    18   Atom        0.040865      0.028438     -0.069303
    19   Atom        0.149634      0.125431     -0.275066
    20   Atom       -0.177238      0.067885      0.109353
    21   Atom       -0.032490     -0.088660      0.121151
 --------------------------------------------------------
                        XY            XZ            YZ
 --------------------------------------------------------
     1   Atom        0.072365      0.001173      0.000340
     2   Atom       -0.355863     -0.097144     -0.126771
     3   Atom        0.032369     -0.127126      0.098572
     4   Atom       -0.049821     -0.043882     -0.039955
     5   Atom        0.012463     -0.123961      0.034041
     6   Atom       -0.396077     -0.642548     -0.416418
     7   Atom        0.208386     -0.058956      0.041653
     8   Atom       -0.144913     -0.222741     -0.074860
     9   Atom       -0.005749      0.060403      0.036427
    10   Atom        0.871443     -1.346600     -0.129764
    11   Atom       -0.061887      0.046467      0.161484
    12   Atom        0.692665      1.017211      0.407126
    13   Atom       -0.058810     -0.016738     -0.018543
    14   Atom        0.038706     -0.143584      0.080341
    15   Atom        0.007236      0.223323     -0.000622
    16   Atom       -0.199662     -0.075374     -0.081139
    17   Atom       -0.010947      0.179142      0.030838
    18   Atom       -0.103301     -0.149969     -0.161003
    19   Atom        0.003112      0.005274     -0.019580
    20   Atom       -0.134111     -0.107463     -0.043882
    21   Atom        0.282731      0.196628     -0.166966
 --------------------------------------------------------


 ---------------------------------------------------------------------------------
              Nuclear Quadrupole Coupling Constant in Principal Axis System
 ---------------------------------------------------------------------------------

       Atom             a.u.   MegaHertz   Gauss  10(-4) cm-1        Axes

              Baa    -0.0810   -13.512    -4.821    -4.507  0.6607  0.7195  0.2141
    13 I(127) Bbb     0.0385     6.416     2.289     2.140 -0.1842 -0.1210  0.9754
              Bcc     0.0425     7.096     2.532     2.367  0.7277 -0.6839  0.0526
 

 ---------------------------------------------------------------------------------

 No NMR shielding tensors so no spin-rotation constants.
 Leave Link  601 at Fri Jan 17 11:54:44 2014, MaxMem=   235929600 cpu:         0.3
 FitSet:  NAtFit=    21 NAtPot=    21 NAtFrz=     0 MDM=    25 TotChg=   0.00000
 Merz-Kollman atomic radii used.
 Read replacement radii for each type of atom:
 Rad(53) =   2.700000000000D+00
 Atom Element Radius
    1     6    1.50
    2     6    1.50
    3     1    1.20
    4     6    1.50
    5     1    1.20
    6     8    1.40
    7     6    1.50
    8     6    1.50
    9     1    1.20
   10     8    1.40
   11     6    1.50
   12     8    1.40
   13    53    2.70
   14     1    1.20
   15     1    1.20
   16     1    1.20
   17     1    1.20
   18     1    1.20
   19     1    1.20
   20     1    1.20
   21     1    1.20
 Generate VDW surfaces: Layer= 5 Dens= 2 Start= 1.400 Inc= 0.179

 **********************************************************************

            Electrostatic Properties Using The SCF Density

 **********************************************************************

       Atomic Center    1 is at  -1.351937  2.325583  0.421239
       Atomic Center    2 is at  -0.630931  0.987087  0.444359
       Atomic Center    3 is at  -0.286191  0.724205  1.445505
       Atomic Center    4 is at   0.548926  0.917416 -0.533915
       Atomic Center    5 is at   0.196004  1.006526 -1.570444
       Atomic Center    6 is at   1.418119  2.004521 -0.211708
       Atomic Center    7 is at   2.737341  1.486710 -0.075150
       Atomic Center    8 is at   2.501807  0.021852  0.292662
       Atomic Center    9 is at   2.335707 -0.089743  1.374244
       Atomic Center   10 is at   1.299985 -0.270733 -0.427671
       Atomic Center   11 is at   3.608543 -0.923595 -0.133541
       Atomic Center   12 is at   3.371994 -2.185784  0.463724
       Atomic Center   13 is at  -2.067823 -0.646201 -0.043242
       Atomic Center   14 is at  -1.743227  2.551238 -0.576349
       Atomic Center   15 is at  -2.185213  2.338288  1.128100
       Atomic Center   16 is at  -0.640923  3.112140  0.698634
       Atomic Center   17 is at   3.288580  1.577010 -1.023995
       Atomic Center   18 is at   3.257605  2.058306  0.698299
       Atomic Center   19 is at   3.612163 -0.977145 -1.232515
       Atomic Center   20 is at   4.575034 -0.499548  0.191791
       Atomic Center   21 is at   3.981790 -2.826991  0.069885
      ESP Fit Center   22 is at  -0.633694  2.325583  2.394593
      ESP Fit Center   23 is at  -0.992816  2.947599  2.394593
      ESP Fit Center   24 is at  -1.544041  3.661698  2.029932
      ESP Fit Center   25 is at  -1.917898  4.314731  0.785900
      ESP Fit Center   26 is at  -2.598243  3.975960  0.785900
      ESP Fit Center   27 is at  -1.917898  4.314731  0.056578
      ESP Fit Center   28 is at  -2.598243  3.975960  0.056578
      ESP Fit Center   29 is at  -3.110268  3.414296  0.056578
      ESP Fit Center   30 is at  -0.216367  3.055369 -1.187454
      ESP Fit Center   31 is at  -0.286191  0.724205  3.125505
      ESP Fit Center   32 is at   0.442734  0.724205  2.959133
      ESP Fit Center   33 is at   0.078271  1.355472  2.959133
      ESP Fit Center   34 is at  -0.650653  1.355472  2.959133
      ESP Fit Center   35 is at   1.027286  0.724205  2.492968
      ESP Fit Center   36 is at   0.776434  1.496248  2.492968
      ESP Fit Center   37 is at   0.119696  1.973396  2.492968
      ESP Fit Center   38 is at  -0.692078  1.973396  2.492968
      ESP Fit Center   39 is at   0.776434 -0.047837  2.492968
      ESP Fit Center   40 is at   1.164079  1.485365  1.819340
      ESP Fit Center   41 is at   0.644230  2.072153  1.819340
      ESP Fit Center   42 is at   1.898780  0.917416 -2.142608
      ESP Fit Center   43 is at   1.684496  1.647202 -2.142608
      ESP Fit Center   44 is at   0.393429  2.632463 -1.944279
      ESP Fit Center   45 is at  -0.384796  2.537969 -1.944279
      ESP Fit Center   46 is at   1.509481  1.006526 -2.617907
      ESP Fit Center   47 is at   1.258629  1.778568 -2.617907
      ESP Fit Center   48 is at   0.601891  2.255717 -2.617907
      ESP Fit Center   49 is at  -0.209883  2.255717 -2.617907
      ESP Fit Center   50 is at   1.258629  0.234484 -2.617907
      ESP Fit Center   51 is at   0.924929  1.006526 -3.084072
      ESP Fit Center   52 is at   0.560467  1.637793 -3.084072
      ESP Fit Center   53 is at  -0.168458  1.637793 -3.084072
      ESP Fit Center   54 is at  -0.532921  1.006526 -3.084072
      ESP Fit Center   55 is at   0.560467  0.375259 -3.084072
      ESP Fit Center   56 is at   0.196004  1.006526 -3.250444
      ESP Fit Center   57 is at   1.418119  2.004521  1.748292
      ESP Fit Center   58 is at   1.793149  2.654092  1.599096
      ESP Fit Center   59 is at   1.043089  2.654092  1.599096
      ESP Fit Center   60 is at   2.111084  3.204771  1.174221
      ESP Fit Center   61 is at   1.418119  3.390450  1.174221
      ESP Fit Center   62 is at   1.977688  3.726698  0.538351
      ESP Fit Center   63 is at   1.228839  3.805405  0.538351
      ESP Fit Center   64 is at   2.291766  3.759041 -0.211708
      ESP Fit Center   65 is at   1.598965  3.956160 -0.211708
      ESP Fit Center   66 is at   0.881740  3.889699 -0.211708
      ESP Fit Center   67 is at   1.977688  3.726698 -0.961768
      ESP Fit Center   68 is at   1.228839  3.805405 -0.961768
      ESP Fit Center   69 is at   0.512717  3.572723 -0.961768
      ESP Fit Center   70 is at   2.111084  3.204771 -1.597637
      ESP Fit Center   71 is at   1.418119  3.390450 -1.597637
      ESP Fit Center   72 is at   0.725155  3.204771 -1.597637
      ESP Fit Center   73 is at   1.793149  2.654092 -2.022512
      ESP Fit Center   74 is at   1.043089  2.654092 -2.022512
      ESP Fit Center   75 is at   1.418119  2.004521 -2.171708
      ESP Fit Center   76 is at   2.019099  1.486710  1.898204
      ESP Fit Center   77 is at   4.805437  1.486710  0.289511
      ESP Fit Center   78 is at   4.265683  2.879977 -0.439811
      ESP Fit Center   79 is at   3.659171  3.337994 -0.439811
      ESP Fit Center   80 is at   2.928161  3.545984 -0.439811
      ESP Fit Center   81 is at   4.163230  0.761565  1.342662
      ESP Fit Center   82 is at   2.335707 -0.089743  3.054244
      ESP Fit Center   83 is at   3.064632 -0.089743  2.887872
      ESP Fit Center   84 is at   2.700169  0.541524  2.887872
      ESP Fit Center   85 is at   1.971245  0.541524  2.887872
      ESP Fit Center   86 is at   1.606782 -0.089743  2.887872
      ESP Fit Center   87 is at   1.971245 -0.721010  2.887872
      ESP Fit Center   88 is at   2.700169 -0.721010  2.887872
      ESP Fit Center   89 is at   3.649184 -0.089743  2.421707
      ESP Fit Center   90 is at   3.398332  0.682299  2.421707
      ESP Fit Center   91 is at   2.741594  1.159448  2.421707
      ESP Fit Center   92 is at   1.929820  1.159448  2.421707
      ESP Fit Center   93 is at   1.273082  0.682299  2.421707
      ESP Fit Center   94 is at   1.022230 -0.089743  2.421707
      ESP Fit Center   95 is at   1.273082 -0.861785  2.421707
      ESP Fit Center   96 is at   1.929820 -1.338934  2.421707
      ESP Fit Center   97 is at   2.741594 -1.338934  2.421707
      ESP Fit Center   98 is at   3.398332 -0.861785  2.421707
      ESP Fit Center   99 is at   1.754907 -1.621186  1.748079
      ESP Fit Center  100 is at   1.480831 -2.222372 -0.427671
      ESP Fit Center  101 is at   1.859554 -1.992910 -1.177731
      ESP Fit Center  102 is at   1.299985 -1.656662 -1.813600
      ESP Fit Center  103 is at   1.992950 -1.470983 -1.813600
      ESP Fit Center  104 is at   2.050045 -0.270733 -2.238475
      ESP Fit Center  105 is at   1.675015  0.378838 -2.238475
      ESP Fit Center  106 is at   1.675015 -0.920304 -2.238475
      ESP Fit Center  107 is at   1.299985 -0.270733 -2.387671
      ESP Fit Center  108 is at   4.326785 -0.923595  1.839813
      ESP Fit Center  109 is at   3.967664 -0.301579  1.839813
      ESP Fit Center  110 is at   2.137222 -1.992573 -1.183541
      ESP Fit Center  111 is at   5.269966 -1.663308 -1.183541
      ESP Fit Center  112 is at   3.371994 -2.185784  2.423724
      ESP Fit Center  113 is at   4.122053 -2.185784  2.274528
      ESP Fit Center  114 is at   3.747024 -1.536214  2.274528
      ESP Fit Center  115 is at   2.996964 -1.536214  2.274528
      ESP Fit Center  116 is at   2.621934 -2.185784  2.274528
      ESP Fit Center  117 is at   2.996964 -2.835355  2.274528
      ESP Fit Center  118 is at   3.747024 -2.835355  2.274528
      ESP Fit Center  119 is at   4.757923 -2.185784  1.849653
      ESP Fit Center  120 is at   4.572244 -1.492819  1.849653
      ESP Fit Center  121 is at   1.986065 -2.185784  1.849653
      ESP Fit Center  122 is at   2.171744 -2.878749  1.849653
      ESP Fit Center  123 is at   2.679029 -3.386034  1.849653
      ESP Fit Center  124 is at   3.371994 -3.571713  1.849653
      ESP Fit Center  125 is at   4.064959 -3.386034  1.849653
      ESP Fit Center  126 is at   4.572244 -2.878749  1.849653
      ESP Fit Center  127 is at   5.182798 -2.185784  1.213783
      ESP Fit Center  128 is at   1.600760 -1.809297  1.213783
      ESP Fit Center  129 is at   1.600760 -2.562271  1.213783
      ESP Fit Center  130 is at   1.907023 -3.250148  1.213783
      ESP Fit Center  131 is at   2.466592 -3.753986  1.213783
      ESP Fit Center  132 is at   3.182713 -3.986668  1.213783
      ESP Fit Center  133 is at   1.445367 -2.545933  0.463724
      ESP Fit Center  134 is at   1.705568 -3.217591  0.463724
      ESP Fit Center  135 is at   2.190830 -3.749898  0.463724
      ESP Fit Center  136 is at   2.835614 -4.070962  0.463724
      ESP Fit Center  137 is at   1.600760 -2.562271 -0.286336
      ESP Fit Center  138 is at   1.907023 -3.250148 -0.286336
      ESP Fit Center  139 is at   2.466592 -3.753986 -0.286336
      ESP Fit Center  140 is at   1.986065 -2.185784 -0.922205
      ESP Fit Center  141 is at   2.171744 -2.878749 -0.922205
      ESP Fit Center  142 is at   2.679029 -3.386034 -0.922205
      ESP Fit Center  143 is at   2.996964 -2.835355 -1.347080
      ESP Fit Center  144 is at  -2.067823 -0.646201  3.736758
      ESP Fit Center  145 is at  -1.330382 -0.646201  3.664126
      ESP Fit Center  146 is at  -1.699102 -0.007558  3.664126
      ESP Fit Center  147 is at  -2.436544 -0.007558  3.664126
      ESP Fit Center  148 is at  -2.805264 -0.646201  3.664126
      ESP Fit Center  149 is at  -2.436544 -1.284844  3.664126
      ESP Fit Center  150 is at  -1.699102 -1.284844  3.664126
      ESP Fit Center  151 is at  -0.621280 -0.646201  3.449023
      ESP Fit Center  152 is at  -0.815080  0.077071  3.449023
      ESP Fit Center  153 is at  -1.344551  0.606543  3.449023
      ESP Fit Center  154 is at  -2.067823  0.800343  3.449023
      ESP Fit Center  155 is at  -2.791095  0.606543  3.449023
      ESP Fit Center  156 is at  -3.320566  0.077071  3.449023
      ESP Fit Center  157 is at  -3.514366 -0.646201  3.449023
      ESP Fit Center  158 is at  -3.320566 -1.369472  3.449023
      ESP Fit Center  159 is at  -2.791095 -1.898944  3.449023
      ESP Fit Center  160 is at  -2.067823 -2.092744  3.449023
      ESP Fit Center  161 is at  -1.344551 -1.898944  3.449023
      ESP Fit Center  162 is at  -0.815080 -1.369472  3.449023
      ESP Fit Center  163 is at   0.032233 -0.646201  3.099713
      ESP Fit Center  164 is at  -0.094416  0.072061  3.099713
      ESP Fit Center  165 is at  -1.017795  1.172501  3.099713
      ESP Fit Center  166 is at  -1.703152  1.421950  3.099713
      ESP Fit Center  167 is at  -2.432494  1.421950  3.099713
      ESP Fit Center  168 is at  -3.117851  1.172501  3.099713
      ESP Fit Center  169 is at  -3.676559  0.703689  3.099713
      ESP Fit Center  170 is at  -4.041230  0.072061  3.099713
      ESP Fit Center  171 is at  -4.167878 -0.646201  3.099713
      ESP Fit Center  172 is at  -4.041230 -1.364462  3.099713
      ESP Fit Center  173 is at  -3.676559 -1.996090  3.099713
      ESP Fit Center  174 is at  -3.117851 -2.464902  3.099713
      ESP Fit Center  175 is at  -2.432494 -2.714352  3.099713
      ESP Fit Center  176 is at  -1.703152 -2.714352  3.099713
      ESP Fit Center  177 is at  -1.017795 -2.464902  3.099713
      ESP Fit Center  178 is at  -0.459087 -1.996090  3.099713
      ESP Fit Center  179 is at  -0.094416 -1.364462  3.099713
      ESP Fit Center  180 is at   0.605041 -0.646201  2.629622
      ESP Fit Center  181 is at  -1.524013  1.970758  2.629622
      ESP Fit Center  182 is at  -2.962910  1.872334  2.629622
      ESP Fit Center  183 is at  -3.609211  1.537448  2.629622
      ESP Fit Center  184 is at  -4.141193  1.040611  2.629622
      ESP Fit Center  185 is at  -4.519404  0.418671  2.629622
      ESP Fit Center  186 is at  -4.715791 -0.282246  2.629622
      ESP Fit Center  187 is at  -4.715791 -1.010156  2.629622
      ESP Fit Center  188 is at  -4.519404 -1.711072  2.629622
      ESP Fit Center  189 is at  -4.141193 -2.333013  2.629622
      ESP Fit Center  190 is at  -3.609211 -2.829850  2.629622
      ESP Fit Center  191 is at  -2.962910 -3.164736  2.629622
      ESP Fit Center  192 is at  -2.250226 -3.312833  2.629622
      ESP Fit Center  193 is at  -1.524013 -3.263159  2.629622
      ESP Fit Center  194 is at  -0.838132 -3.019397  2.629622
      ESP Fit Center  195 is at  -0.243451 -2.599626  2.629622
      ESP Fit Center  196 is at   0.215924 -2.034978  2.629622
      ESP Fit Center  197 is at   0.505924 -1.367331  2.629622
      ESP Fit Center  198 is at  -3.639301  2.075678  2.056813
      ESP Fit Center  199 is at  -4.224650  1.639902  2.056813
      ESP Fit Center  200 is at  -4.693724  1.080881  2.056813
      ESP Fit Center  201 is at  -5.021235  0.428753  2.056813
      ESP Fit Center  202 is at  -5.189527 -0.281326  2.056813
      ESP Fit Center  203 is at  -5.189527 -1.011076  2.056813
      ESP Fit Center  204 is at  -5.021235 -1.721155  2.056813
      ESP Fit Center  205 is at  -4.693724 -2.373283  2.056813
      ESP Fit Center  206 is at  -4.224650 -2.932303  2.056813
      ESP Fit Center  207 is at  -3.639301 -3.368080  2.056813
      ESP Fit Center  208 is at  -2.969233 -3.657119  2.056813
      ESP Fit Center  209 is at  -2.250570 -3.783838  2.056813
      ESP Fit Center  210 is at  -1.522055 -3.741407  2.056813
      ESP Fit Center  211 is at  -0.822962 -3.532113  2.056813
      ESP Fit Center  212 is at  -0.190980 -3.167238  2.056813
      ESP Fit Center  213 is at   0.339820 -2.666453  2.056813
      ESP Fit Center  214 is at   0.740824 -2.056756  2.056813
      ESP Fit Center  215 is at   0.990413 -1.371016  2.056813
      ESP Fit Center  216 is at  -4.404604  1.949058  1.403301
      ESP Fit Center  217 is at  -4.893124  1.406501  1.403301
      ESP Fit Center  218 is at  -5.258165  0.774231  1.403301
      ESP Fit Center  219 is at  -5.483773  0.079882  1.403301
      ESP Fit Center  220 is at  -5.560088 -0.646201  1.403301
      ESP Fit Center  221 is at  -5.483773 -1.372283  1.403301
      ESP Fit Center  222 is at  -5.258165 -2.066633  1.403301
      ESP Fit Center  223 is at  -4.893124 -2.698902  1.403301
      ESP Fit Center  224 is at  -4.404604 -3.241459  1.403301
      ESP Fit Center  225 is at  -3.813955 -3.670591  1.403301
      ESP Fit Center  226 is at  -3.146992 -3.967542  1.403301
      ESP Fit Center  227 is at  -2.432864 -4.119334  1.403301
      ESP Fit Center  228 is at  -1.702782 -4.119334  1.403301
      ESP Fit Center  229 is at  -0.988654 -3.967542  1.403301
      ESP Fit Center  230 is at  -0.321691 -3.670591  1.403301
      ESP Fit Center  231 is at   0.268958 -3.241459  1.403301
      ESP Fit Center  232 is at   0.757478 -2.698902  1.403301
      ESP Fit Center  233 is at   1.122520 -2.066633  1.403301
      ESP Fit Center  234 is at  -4.127526  2.436363  0.694199
      ESP Fit Center  235 is at  -4.689328  1.975305  0.694199
      ESP Fit Center  236 is at  -5.150387  1.413503  0.694199
      ESP Fit Center  237 is at  -5.492985  0.772548  0.694199
      ESP Fit Center  238 is at  -5.703955  0.077071  0.694199
      ESP Fit Center  239 is at  -5.775191 -0.646201  0.694199
      ESP Fit Center  240 is at  -5.703955 -1.369472  0.694199
      ESP Fit Center  241 is at  -5.492985 -2.064949  0.694199
      ESP Fit Center  242 is at  -5.150387 -2.705904  0.694199
      ESP Fit Center  243 is at  -4.689328 -3.267706  0.694199
      ESP Fit Center  244 is at  -4.127526 -3.728765  0.694199
      ESP Fit Center  245 is at  -3.486571 -4.071362  0.694199
      ESP Fit Center  246 is at  -2.791095 -4.282333  0.694199
      ESP Fit Center  247 is at  -2.067823 -4.353569  0.694199
      ESP Fit Center  248 is at  -1.344551 -4.282333  0.694199
      ESP Fit Center  249 is at  -0.649075 -4.071362  0.694199
      ESP Fit Center  250 is at  -0.008119 -3.728765  0.694199
      ESP Fit Center  251 is at   0.553682 -3.267706  0.694199
      ESP Fit Center  252 is at   1.014741 -2.705904  0.694199
      ESP Fit Center  253 is at   1.357339 -2.064949  0.694199
      ESP Fit Center  254 is at  -3.957823  2.627375 -0.043242
      ESP Fit Center  255 is at  -4.543197  2.210533 -0.043242
      ESP Fit Center  256 is at  -5.039104  1.690440 -0.043242
      ESP Fit Center  257 is at  -5.427621  1.085896 -0.043242
      ESP Fit Center  258 is at  -5.694706  0.418748 -0.043242
      ESP Fit Center  259 is at  -5.830707 -0.286889 -0.043242
      ESP Fit Center  260 is at  -5.830707 -1.005513 -0.043242
      ESP Fit Center  261 is at  -5.694706 -1.711150 -0.043242
      ESP Fit Center  262 is at  -5.427621 -2.378297 -0.043242
      ESP Fit Center  263 is at  -5.039104 -2.982842 -0.043242
      ESP Fit Center  264 is at  -4.543197 -3.502934 -0.043242
      ESP Fit Center  265 is at  -3.957823 -3.919777 -0.043242
      ESP Fit Center  266 is at  -3.304140 -4.218304 -0.043242
      ESP Fit Center  267 is at  -2.605773 -4.387726 -0.043242
      ESP Fit Center  268 is at  -1.887963 -4.421919 -0.043242
      ESP Fit Center  269 is at  -1.176654 -4.319648 -0.043242
      ESP Fit Center  270 is at  -0.497554 -4.084610 -0.043242
      ESP Fit Center  271 is at   0.124792 -3.725298 -0.043242
      ESP Fit Center  272 is at   0.667892 -3.254699 -0.043242
      ESP Fit Center  273 is at   1.112115 -2.689823 -0.043242
      ESP Fit Center  274 is at  -3.486571  2.778961 -0.780684
      ESP Fit Center  275 is at  -4.127526  2.436363 -0.780684
      ESP Fit Center  276 is at  -4.689328  1.975305 -0.780684
      ESP Fit Center  277 is at  -5.150387  1.413503 -0.780684
      ESP Fit Center  278 is at  -5.492985  0.772548 -0.780684
      ESP Fit Center  279 is at  -5.703955  0.077071 -0.780684
      ESP Fit Center  280 is at  -5.775191 -0.646201 -0.780684
      ESP Fit Center  281 is at  -5.703955 -1.369472 -0.780684
      ESP Fit Center  282 is at  -5.492985 -2.064949 -0.780684
      ESP Fit Center  283 is at  -5.150387 -2.705904 -0.780684
      ESP Fit Center  284 is at  -4.689328 -3.267706 -0.780684
      ESP Fit Center  285 is at  -4.127526 -3.728765 -0.780684
      ESP Fit Center  286 is at  -3.486571 -4.071362 -0.780684
      ESP Fit Center  287 is at  -2.791095 -4.282333 -0.780684
      ESP Fit Center  288 is at  -2.067823 -4.353569 -0.780684
      ESP Fit Center  289 is at  -1.344551 -4.282333 -0.780684
      ESP Fit Center  290 is at  -0.649075 -4.071362 -0.780684
      ESP Fit Center  291 is at  -0.008119 -3.728765 -0.780684
      ESP Fit Center  292 is at   0.553682 -3.267706 -0.780684
      ESP Fit Center  293 is at   1.014741 -2.705904 -0.780684
      ESP Fit Center  294 is at  -3.813955  2.378189 -1.489785
      ESP Fit Center  295 is at  -4.404604  1.949058 -1.489785
      ESP Fit Center  296 is at  -4.893124  1.406501 -1.489785
      ESP Fit Center  297 is at  -5.258165  0.774231 -1.489785
      ESP Fit Center  298 is at  -5.483773  0.079882 -1.489785
      ESP Fit Center  299 is at  -5.560088 -0.646201 -1.489785
      ESP Fit Center  300 is at  -5.483773 -1.372283 -1.489785
      ESP Fit Center  301 is at  -5.258165 -2.066633 -1.489785
      ESP Fit Center  302 is at  -4.893124 -2.698902 -1.489785
      ESP Fit Center  303 is at  -4.404604 -3.241459 -1.489785
      ESP Fit Center  304 is at  -3.813955 -3.670591 -1.489785
      ESP Fit Center  305 is at  -3.146992 -3.967542 -1.489785
      ESP Fit Center  306 is at  -2.432864 -4.119334 -1.489785
      ESP Fit Center  307 is at  -1.702782 -4.119334 -1.489785
      ESP Fit Center  308 is at  -0.988654 -3.967542 -1.489785
      ESP Fit Center  309 is at  -0.321691 -3.670591 -1.489785
      ESP Fit Center  310 is at   0.268958 -3.241459 -1.489785
      ESP Fit Center  311 is at   0.757478 -2.698902 -1.489785
      ESP Fit Center  312 is at   1.122520 -2.066633 -1.489785
      ESP Fit Center  313 is at  -0.822962  2.239711 -2.143298
      ESP Fit Center  314 is at  -2.969233  2.364717 -2.143298
      ESP Fit Center  315 is at  -3.639301  2.075678 -2.143298
      ESP Fit Center  316 is at  -4.224650  1.639902 -2.143298
      ESP Fit Center  317 is at  -4.693724  1.080881 -2.143298
      ESP Fit Center  318 is at  -5.021235  0.428753 -2.143298
      ESP Fit Center  319 is at  -5.189527 -0.281326 -2.143298
      ESP Fit Center  320 is at  -5.189527 -1.011076 -2.143298
      ESP Fit Center  321 is at  -5.021235 -1.721155 -2.143298
      ESP Fit Center  322 is at  -4.693724 -2.373283 -2.143298
      ESP Fit Center  323 is at  -4.224650 -2.932303 -2.143298
      ESP Fit Center  324 is at  -3.639301 -3.368080 -2.143298
      ESP Fit Center  325 is at  -2.969233 -3.657119 -2.143298
      ESP Fit Center  326 is at  -2.250570 -3.783838 -2.143298
      ESP Fit Center  327 is at  -1.522055 -3.741407 -2.143298
      ESP Fit Center  328 is at  -0.822962 -3.532113 -2.143298
      ESP Fit Center  329 is at  -0.190980 -3.167238 -2.143298
      ESP Fit Center  330 is at   0.339820 -2.666453 -2.143298
      ESP Fit Center  331 is at   0.740824 -2.056756 -2.143298
      ESP Fit Center  332 is at   0.990413 -1.371016 -2.143298
      ESP Fit Center  333 is at   0.605041 -0.646201 -2.716106
      ESP Fit Center  334 is at  -0.838132  1.726995 -2.716106
      ESP Fit Center  335 is at  -1.524013  1.970758 -2.716106
      ESP Fit Center  336 is at  -2.250226  2.020432 -2.716106
      ESP Fit Center  337 is at  -2.962910  1.872334 -2.716106
      ESP Fit Center  338 is at  -3.609211  1.537448 -2.716106
      ESP Fit Center  339 is at  -4.141193  1.040611 -2.716106
      ESP Fit Center  340 is at  -4.519404  0.418671 -2.716106
      ESP Fit Center  341 is at  -4.715791 -0.282246 -2.716106
      ESP Fit Center  342 is at  -4.715791 -1.010156 -2.716106
      ESP Fit Center  343 is at  -4.519404 -1.711072 -2.716106
      ESP Fit Center  344 is at  -4.141193 -2.333013 -2.716106
      ESP Fit Center  345 is at  -3.609211 -2.829850 -2.716106
      ESP Fit Center  346 is at  -2.962910 -3.164736 -2.716106
      ESP Fit Center  347 is at  -2.250226 -3.312833 -2.716106
      ESP Fit Center  348 is at  -1.524013 -3.263159 -2.716106
      ESP Fit Center  349 is at  -0.838132 -3.019397 -2.716106
      ESP Fit Center  350 is at  -0.243451 -2.599626 -2.716106
      ESP Fit Center  351 is at   0.215924 -2.034978 -2.716106
      ESP Fit Center  352 is at   0.505924 -1.367331 -2.716106
      ESP Fit Center  353 is at   0.032233 -0.646201 -3.186197
      ESP Fit Center  354 is at  -0.094416  0.072061 -3.186197
      ESP Fit Center  355 is at  -0.459087  0.703689 -3.186197
      ESP Fit Center  356 is at  -1.017795  1.172501 -3.186197
      ESP Fit Center  357 is at  -1.703152  1.421950 -3.186197
      ESP Fit Center  358 is at  -2.432494  1.421950 -3.186197
      ESP Fit Center  359 is at  -3.117851  1.172501 -3.186197
      ESP Fit Center  360 is at  -3.676559  0.703689 -3.186197
      ESP Fit Center  361 is at  -4.041230  0.072061 -3.186197
      ESP Fit Center  362 is at  -4.167878 -0.646201 -3.186197
      ESP Fit Center  363 is at  -4.041230 -1.364462 -3.186197
      ESP Fit Center  364 is at  -3.676559 -1.996090 -3.186197
      ESP Fit Center  365 is at  -3.117851 -2.464902 -3.186197
      ESP Fit Center  366 is at  -2.432494 -2.714352 -3.186197
      ESP Fit Center  367 is at  -1.703152 -2.714352 -3.186197
      ESP Fit Center  368 is at  -1.017795 -2.464902 -3.186197
      ESP Fit Center  369 is at  -0.459087 -1.996090 -3.186197
      ESP Fit Center  370 is at  -0.094416 -1.364462 -3.186197
      ESP Fit Center  371 is at  -0.621280 -0.646201 -3.535507
      ESP Fit Center  372 is at  -0.815080  0.077071 -3.535507
      ESP Fit Center  373 is at  -1.344551  0.606543 -3.535507
      ESP Fit Center  374 is at  -2.067823  0.800343 -3.535507
      ESP Fit Center  375 is at  -2.791095  0.606543 -3.535507
      ESP Fit Center  376 is at  -3.320566  0.077071 -3.535507
      ESP Fit Center  377 is at  -3.514366 -0.646201 -3.535507
      ESP Fit Center  378 is at  -3.320566 -1.369472 -3.535507
      ESP Fit Center  379 is at  -2.791095 -1.898944 -3.535507
      ESP Fit Center  380 is at  -2.067823 -2.092744 -3.535507
      ESP Fit Center  381 is at  -1.344551 -1.898944 -3.535507
      ESP Fit Center  382 is at  -0.815080 -1.369472 -3.535507
      ESP Fit Center  383 is at  -1.330382 -0.646201 -3.750610
      ESP Fit Center  384 is at  -1.699102 -0.007558 -3.750610
      ESP Fit Center  385 is at  -2.436544 -0.007558 -3.750610
      ESP Fit Center  386 is at  -2.805264 -0.646201 -3.750610
      ESP Fit Center  387 is at  -2.436544 -1.284844 -3.750610
      ESP Fit Center  388 is at  -1.699102 -1.284844 -3.750610
      ESP Fit Center  389 is at  -2.067823 -0.646201 -3.823242
      ESP Fit Center  390 is at  -2.324027  4.082682 -0.202514
      ESP Fit Center  391 is at  -2.969197  3.637353 -0.202514
      ESP Fit Center  392 is at  -3.333512  2.943208 -0.202514
      ESP Fit Center  393 is at  -0.812805  3.899186 -0.950184
      ESP Fit Center  394 is at  -1.545802  4.177175 -0.950184
      ESP Fit Center  395 is at  -2.324027  4.082682 -0.950184
      ESP Fit Center  396 is at  -2.969197  3.637353 -0.950184
      ESP Fit Center  397 is at  -3.333512  2.943208 -0.950184
      ESP Fit Center  398 is at  -0.680602  3.323281 -1.623812
      ESP Fit Center  399 is at  -1.337340  3.800429 -1.623812
      ESP Fit Center  400 is at  -2.149113  3.800429 -1.623812
      ESP Fit Center  401 is at  -2.805852  3.323281 -1.623812
      ESP Fit Center  402 is at  -1.014302  2.551238 -2.089977
      ESP Fit Center  403 is at  -1.378764  3.182506 -2.089977
      ESP Fit Center  404 is at  -2.107689  3.182506 -2.089977
      ESP Fit Center  405 is at  -2.472151  2.551238 -2.089977
      ESP Fit Center  406 is at  -1.743227  2.551238 -2.256349
      ESP Fit Center  407 is at  -2.185213  2.338288  2.808100
      ESP Fit Center  408 is at  -1.456288  2.338288  2.641728
      ESP Fit Center  409 is at  -1.820750  2.969556  2.641728
      ESP Fit Center  410 is at  -2.549675  2.969556  2.641728
      ESP Fit Center  411 is at  -2.914137  2.338288  2.641728
      ESP Fit Center  412 is at  -1.779326  3.587479  2.175563
      ESP Fit Center  413 is at  -2.591099  3.587479  2.175563
      ESP Fit Center  414 is at  -3.247838  3.110331  2.175563
      ESP Fit Center  415 is at  -3.498690  2.338288  2.175563
      ESP Fit Center  416 is at  -2.766013  3.869732  1.501935
      ESP Fit Center  417 is at  -3.411183  3.424403  1.501935
      ESP Fit Center  418 is at  -3.775498  2.730258  1.501935
      ESP Fit Center  419 is at  -2.766013  3.869732  0.754265
      ESP Fit Center  420 is at  -3.411183  3.424403  0.754265
      ESP Fit Center  421 is at  -3.775498  2.730258  0.754265
      ESP Fit Center  422 is at  -0.640923  3.112140  2.378634
      ESP Fit Center  423 is at   0.088002  3.112140  2.212262
      ESP Fit Center  424 is at  -0.276460  3.743407  2.212262
      ESP Fit Center  425 is at  -1.005385  3.743407  2.212262
      ESP Fit Center  426 is at   0.672554  3.112140  1.746097
      ESP Fit Center  427 is at   0.421702  3.884183  1.746097
      ESP Fit Center  428 is at  -0.235036  4.361331  1.746097
      ESP Fit Center  429 is at  -1.046809  4.361331  1.746097
      ESP Fit Center  430 is at   0.421702  2.340098  1.746097
      ESP Fit Center  431 is at   0.809347  3.873300  1.072469
      ESP Fit Center  432 is at   0.289499  4.460088  1.072469
      ESP Fit Center  433 is at  -0.443498  4.738077  1.072469
      ESP Fit Center  434 is at  -1.221723  4.643584  1.072469
      ESP Fit Center  435 is at   0.809347  3.873300  0.324799
      ESP Fit Center  436 is at   0.289499  4.460088  0.324799
      ESP Fit Center  437 is at  -0.443498  4.738077  0.324799
      ESP Fit Center  438 is at  -1.221723  4.643584  0.324799
      ESP Fit Center  439 is at   0.421702  3.884183 -0.348829
      ESP Fit Center  440 is at  -0.235036  4.361331 -0.348829
      ESP Fit Center  441 is at  -1.046809  4.361331 -0.348829
      ESP Fit Center  442 is at  -0.276460  3.743407 -0.814994
      ESP Fit Center  443 is at   4.926459  1.577010 -0.650160
      ESP Fit Center  444 is at   4.738850  2.338170 -0.650160
      ESP Fit Center  445 is at   4.219001  2.924958 -0.650160
      ESP Fit Center  446 is at   4.926459  1.577010 -1.397830
      ESP Fit Center  447 is at   4.738850  2.338170 -1.397830
      ESP Fit Center  448 is at   4.219001  2.924958 -1.397830
      ESP Fit Center  449 is at   3.486005  3.202947 -1.397830
      ESP Fit Center  450 is at   4.738850  0.815850 -1.397830
      ESP Fit Center  451 is at   4.602057  1.577010 -2.071458
      ESP Fit Center  452 is at   4.351205  2.349052 -2.071458
      ESP Fit Center  453 is at   3.694467  2.826201 -2.071458
      ESP Fit Center  454 is at   2.882694  2.826201 -2.071458
      ESP Fit Center  455 is at   2.225955  2.349052 -2.071458
      ESP Fit Center  456 is at   1.975103  1.577010 -2.071458
      ESP Fit Center  457 is at   2.225955  0.804968 -2.071458
      ESP Fit Center  458 is at   2.882694  0.327819 -2.071458
      ESP Fit Center  459 is at   4.351205  0.804968 -2.071458
      ESP Fit Center  460 is at   4.017505  1.577010 -2.537623
      ESP Fit Center  461 is at   3.653043  2.208277 -2.537623
      ESP Fit Center  462 is at   2.924118  2.208277 -2.537623
      ESP Fit Center  463 is at   2.559656  1.577010 -2.537623
      ESP Fit Center  464 is at   2.924118  0.945743 -2.537623
      ESP Fit Center  465 is at   3.653043  0.945743 -2.537623
      ESP Fit Center  466 is at   3.288580  1.577010 -2.703995
      ESP Fit Center  467 is at   3.257605  2.058306  2.378299
      ESP Fit Center  468 is at   3.986530  2.058306  2.211927
      ESP Fit Center  469 is at   3.622068  2.689573  2.211927
      ESP Fit Center  470 is at   2.893143  2.689573  2.211927
      ESP Fit Center  471 is at   2.528681  2.058306  2.211927
      ESP Fit Center  472 is at   2.893143  1.427039  2.211927
      ESP Fit Center  473 is at   3.622068  1.427039  2.211927
      ESP Fit Center  474 is at   4.571082  2.058306  1.745762
      ESP Fit Center  475 is at   4.320230  2.830348  1.745762
      ESP Fit Center  476 is at   3.663492  3.307497  1.745762
      ESP Fit Center  477 is at   2.851719  3.307497  1.745762
      ESP Fit Center  478 is at   2.194980  2.830348  1.745762
      ESP Fit Center  479 is at   4.320230  1.286264  1.745762
      ESP Fit Center  480 is at   4.895484  2.058306  1.072134
      ESP Fit Center  481 is at   4.707875  2.819466  1.072134
      ESP Fit Center  482 is at   4.188027  3.406254  1.072134
      ESP Fit Center  483 is at   3.455030  3.684243  1.072134
      ESP Fit Center  484 is at   2.676805  3.589749  1.072134
      ESP Fit Center  485 is at   4.707875  1.297146  1.072134
      ESP Fit Center  486 is at   4.895484  2.058306  0.324464
      ESP Fit Center  487 is at   4.707875  2.819466  0.324464
      ESP Fit Center  488 is at   4.188027  3.406254  0.324464
      ESP Fit Center  489 is at   3.455030  3.684243  0.324464
      ESP Fit Center  490 is at   2.676805  3.589749  0.324464
      ESP Fit Center  491 is at   5.250042 -0.977145 -1.606350
      ESP Fit Center  492 is at   5.062433 -0.215985 -1.606350
      ESP Fit Center  493 is at   4.542584  0.370803 -1.606350
      ESP Fit Center  494 is at   2.386193 -2.063260 -1.606350
      ESP Fit Center  495 is at   3.031363 -2.508588 -1.606350
      ESP Fit Center  496 is at   3.809588 -2.603082 -1.606350
      ESP Fit Center  497 is at   4.542584 -2.325093 -1.606350
      ESP Fit Center  498 is at   5.062433 -1.738305 -1.606350
      ESP Fit Center  499 is at   4.925640 -0.977145 -2.279978
      ESP Fit Center  500 is at   4.674788 -0.205103 -2.279978
      ESP Fit Center  501 is at   4.018050  0.272046 -2.279978
      ESP Fit Center  502 is at   3.206276  0.272046 -2.279978
      ESP Fit Center  503 is at   2.549538 -0.205103 -2.279978
      ESP Fit Center  504 is at   2.298686 -0.977145 -2.279978
      ESP Fit Center  505 is at   2.549538 -1.749187 -2.279978
      ESP Fit Center  506 is at   3.206276 -2.226336 -2.279978
      ESP Fit Center  507 is at   4.018050 -2.226336 -2.279978
      ESP Fit Center  508 is at   4.674788 -1.749187 -2.279978
      ESP Fit Center  509 is at   4.341088 -0.977145 -2.746143
      ESP Fit Center  510 is at   3.976625 -0.345878 -2.746143
      ESP Fit Center  511 is at   3.247701 -0.345878 -2.746143
      ESP Fit Center  512 is at   2.883238 -0.977145 -2.746143
      ESP Fit Center  513 is at   3.247701 -1.608412 -2.746143
      ESP Fit Center  514 is at   3.976625 -1.608412 -2.746143
      ESP Fit Center  515 is at   3.612163 -0.977145 -2.912515
      ESP Fit Center  516 is at   4.575034 -0.499548  1.871791
      ESP Fit Center  517 is at   5.303959 -0.499548  1.705419
      ESP Fit Center  518 is at   4.939496  0.131719  1.705419
      ESP Fit Center  519 is at   4.210572  0.131719  1.705419
      ESP Fit Center  520 is at   4.939496 -1.130815  1.705419
      ESP Fit Center  521 is at   5.888511 -0.499548  1.239254
      ESP Fit Center  522 is at   5.637659  0.272494  1.239254
      ESP Fit Center  523 is at   4.980921  0.749643  1.239254
      ESP Fit Center  524 is at   5.637659 -1.271591  1.239254
      ESP Fit Center  525 is at   6.212913 -0.499548  0.565626
      ESP Fit Center  526 is at   6.025304  0.261612  0.565626
      ESP Fit Center  527 is at   5.505455  0.848400  0.565626
      ESP Fit Center  528 is at   4.772459  1.126389  0.565626
      ESP Fit Center  529 is at   5.505455 -1.847496  0.565626
      ESP Fit Center  530 is at   6.025304 -1.260708  0.565626
      ESP Fit Center  531 is at   6.212913 -0.499548 -0.182044
      ESP Fit Center  532 is at   6.025304  0.261612 -0.182044
      ESP Fit Center  533 is at   5.505455  0.848400 -0.182044
      ESP Fit Center  534 is at   5.505455 -1.847496 -0.182044
      ESP Fit Center  535 is at   6.025304 -1.260708 -0.182044
      ESP Fit Center  536 is at   5.888511 -0.499548 -0.855672
      ESP Fit Center  537 is at   5.637659  0.272494 -0.855672
      ESP Fit Center  538 is at   4.980921  0.749643 -0.855672
      ESP Fit Center  539 is at   5.637659 -1.271591 -0.855672
      ESP Fit Center  540 is at   5.303959 -0.499548 -1.321837
      ESP Fit Center  541 is at   5.295267 -2.826991  1.117348
      ESP Fit Center  542 is at   3.575903 -4.076182  1.117348
      ESP Fit Center  543 is at   4.387677 -4.076182  1.117348
      ESP Fit Center  544 is at   5.044415 -3.599033  1.117348
      ESP Fit Center  545 is at   5.619669 -2.826991  0.443720
      ESP Fit Center  546 is at   5.432060 -2.065831  0.443720
      ESP Fit Center  547 is at   3.400990 -4.358435  0.443720
      ESP Fit Center  548 is at   4.179214 -4.452928  0.443720
      ESP Fit Center  549 is at   4.912211 -4.174939  0.443720
      ESP Fit Center  550 is at   5.432060 -3.588151  0.443720
      ESP Fit Center  551 is at   5.619669 -2.826991 -0.303950
      ESP Fit Center  552 is at   5.432060 -2.065831 -0.303950
      ESP Fit Center  553 is at   2.755820 -3.913106 -0.303950
      ESP Fit Center  554 is at   3.400990 -4.358435 -0.303950
      ESP Fit Center  555 is at   4.179214 -4.452928 -0.303950
      ESP Fit Center  556 is at   4.912211 -4.174939 -0.303950
      ESP Fit Center  557 is at   5.432060 -3.588151 -0.303950
      ESP Fit Center  558 is at   5.295267 -2.826991 -0.977578
      ESP Fit Center  559 is at   2.919165 -3.599033 -0.977578
      ESP Fit Center  560 is at   3.575903 -4.076182 -0.977578
      ESP Fit Center  561 is at   4.387677 -4.076182 -0.977578
      ESP Fit Center  562 is at   5.044415 -3.599033 -0.977578
      ESP Fit Center  563 is at   4.710715 -2.826991 -1.443743
      ESP Fit Center  564 is at   3.252865 -2.826991 -1.443743
      ESP Fit Center  565 is at   3.617328 -3.458258 -1.443743
      ESP Fit Center  566 is at   4.346252 -3.458258 -1.443743
      ESP Fit Center  567 is at   3.981790 -2.826991 -1.610115
      ESP Fit Center  568 is at  -0.620083  2.325583  2.673653
      ESP Fit Center  569 is at  -0.986010  2.959387  2.673653
      ESP Fit Center  570 is at  -1.550049  3.703482  2.337257
      ESP Fit Center  571 is at  -2.256721  4.388284  1.153093
      ESP Fit Center  572 is at  -2.083790  4.577997  0.421239
      ESP Fit Center  573 is at  -2.744005  4.241601  0.421239
      ESP Fit Center  574 is at  -1.537940  4.570304 -0.310615
      ESP Fit Center  575 is at  -2.256721  4.388284 -0.310615
      ESP Fit Center  576 is at  -0.618708  4.095753 -0.970829
      ESP Fit Center  577 is at   0.438865  0.724205  3.195945
      ESP Fit Center  578 is at   0.076337  1.352122  3.195945
      ESP Fit Center  579 is at   1.053538  0.724205  2.785234
      ESP Fit Center  580 is at   0.840861  1.448517  2.785234
      ESP Fit Center  581 is at   0.270353  1.942865  2.785234
      ESP Fit Center  582 is at   1.290901  1.483693  2.170561
      ESP Fit Center  583 is at   0.805191  2.092754  2.170561
      ESP Fit Center  584 is at   1.940995  0.917416 -2.449933
      ESP Fit Center  585 is at   0.585514  2.713079 -2.295500
      ESP Fit Center  586 is at  -0.193505  2.713079 -2.295500
      ESP Fit Center  587 is at   1.535733  1.006526 -2.910173
      ESP Fit Center  588 is at   1.323056  1.730838 -2.910173
      ESP Fit Center  589 is at   0.752548  2.225186 -2.910173
      ESP Fit Center  590 is at   0.005341  2.332618 -2.910173
      ESP Fit Center  591 is at   1.323056  0.282214 -2.910173
      ESP Fit Center  592 is at   0.921060  1.006526 -3.320884
      ESP Fit Center  593 is at   0.558532  1.634443 -3.320884
      ESP Fit Center  594 is at  -0.166524  1.634443 -3.320884
      ESP Fit Center  595 is at   0.558532  0.378609 -3.320884
      ESP Fit Center  596 is at   0.196004  1.006526 -3.465107
      ESP Fit Center  597 is at   1.418119  2.004521  1.998732
      ESP Fit Center  598 is at   1.796127  2.659249  1.865426
      ESP Fit Center  599 is at   1.040112  2.659249  1.865426
      ESP Fit Center  600 is at   1.418119  3.425364  1.481587
      ESP Fit Center  601 is at   2.150689  3.773101  0.893512
      ESP Fit Center  602 is at   1.418119  3.918818  0.893512
      ESP Fit Center  603 is at   2.506548  3.889735  0.172131
      ESP Fit Center  604 is at   1.796127  4.148308  0.172131
      ESP Fit Center  605 is at   1.040112  4.148308  0.172131
      ESP Fit Center  606 is at   2.506548  3.889735 -0.595547
      ESP Fit Center  607 is at   1.796127  4.148308 -0.595547
      ESP Fit Center  608 is at   1.040112  4.148308 -0.595547
      ESP Fit Center  609 is at   2.150689  3.773101 -1.316928
      ESP Fit Center  610 is at   1.418119  3.918818 -1.316928
      ESP Fit Center  611 is at   0.685550  3.773101 -1.316928
      ESP Fit Center  612 is at   0.064507  3.358133 -1.316928
      ESP Fit Center  613 is at   2.128541  3.235007 -1.905003
      ESP Fit Center  614 is at   1.418119  3.425364 -1.905003
      ESP Fit Center  615 is at   0.707698  3.235007 -1.905003
      ESP Fit Center  616 is at   1.796127  2.659249 -2.288842
      ESP Fit Center  617 is at   1.040112  2.659249 -2.288842
      ESP Fit Center  618 is at   5.105669  1.486710 -0.075150
      ESP Fit Center  619 is at   4.989755  2.218564 -0.075150
      ESP Fit Center  620 is at   2.737341  3.855038 -0.075150
      ESP Fit Center  621 is at   3.969295  3.372355 -0.807004
      ESP Fit Center  622 is at   3.290276  3.670201 -0.807004
      ESP Fit Center  623 is at   2.737341  3.402728 -1.467218
      ESP Fit Center  624 is at   4.271977  0.755080  1.684730
      ESP Fit Center  625 is at   2.335707 -0.089743  3.268906
      ESP Fit Center  626 is at   3.060763 -0.089743  3.124684
      ESP Fit Center  627 is at   2.698235  0.538174  3.124684
      ESP Fit Center  628 is at   1.973179  0.538174  3.124684
      ESP Fit Center  629 is at   1.610651 -0.089743  3.124684
[...]
 2981 Fit      -0.001438
 2982 Fit      -0.002753
 2983 Fit      -0.003913
 2984 Fit      -0.004879
 2985 Fit      -0.005651
 2986 Fit      -0.006254
 2987 Fit      -0.006725
 2988 Fit      -0.007105
 2989 Fit      -0.007432
 2990 Fit      -0.007739
 2991 Fit      -0.008048
 2992 Fit      -0.008372
 2993 Fit      -0.008712
 2994 Fit      -0.009062
 2995 Fit      -0.009415
 2996 Fit      -0.009759
 2997 Fit      -0.010076
 2998 Fit      -0.010306
 2999 Fit      -0.010263
 3000 Fit      -0.009504
 3001 Fit      -0.007355
 3002 Fit      -0.003483
 3003 Fit       0.010508
 3004 Fit       0.008812
 3005 Fit       0.007031
 3006 Fit       0.005763
 3007 Fit       0.004879
 3008 Fit       0.004121
 3009 Fit       0.003472
 3010 Fit       0.002845
 3011 Fit       0.001977
 3012 Fit       0.000765
 3013 Fit      -0.000643
 3014 Fit      -0.002043
 3015 Fit      -0.003302
 3016 Fit      -0.004366
 3017 Fit      -0.005225
 3018 Fit      -0.005898
 3019 Fit      -0.006415
 3020 Fit      -0.006814
 3021 Fit      -0.007133
 3022 Fit      -0.007410
 3023 Fit      -0.007676
 3024 Fit      -0.007956
 3025 Fit      -0.008266
 3026 Fit      -0.008613
 3027 Fit      -0.008998
 3028 Fit      -0.009418
 3029 Fit      -0.009877
 3030 Fit      -0.010384
 3031 Fit      -0.010969
 3032 Fit      -0.011669
 3033 Fit      -0.012484
 3034 Fit      -0.013204
 3035 Fit      -0.013050
 3036 Fit      -0.010525
 3037 Fit      -0.004668
 3038 Fit       0.011420
 3039 Fit       0.007810
 3040 Fit       0.005762
 3041 Fit       0.005136
 3042 Fit       0.003609
 3043 Fit       0.003168
 3044 Fit       0.002499
 3045 Fit       0.001402
 3046 Fit       0.000022
 3047 Fit      -0.001405
 3048 Fit      -0.002721
 3049 Fit      -0.003854
 3050 Fit      -0.004785
 3051 Fit      -0.005524
 3052 Fit      -0.006093
 3053 Fit      -0.006523
 3054 Fit      -0.006849
 3055 Fit      -0.007106
 3056 Fit      -0.007329
 3057 Fit      -0.007548
 3058 Fit      -0.007785
 3059 Fit      -0.008059
 3060 Fit      -0.008379
 3061 Fit      -0.008749
 3062 Fit      -0.009169
 3063 Fit      -0.009640
 3064 Fit      -0.010168
 3065 Fit      -0.010776
 3066 Fit      -0.011520
 3067 Fit      -0.012505
 3068 Fit      -0.013907
 3069 Fit      -0.015940
 3070 Fit      -0.018555
 3071 Fit       0.002387
 3072 Fit       0.001317
 3073 Fit      -0.000028
 3074 Fit      -0.001417
 3075 Fit      -0.002699
 3076 Fit      -0.003806
 3077 Fit      -0.004720
 3078 Fit      -0.005446
 3079 Fit      -0.006004
 3080 Fit      -0.006420
 3081 Fit      -0.006727
 3082 Fit      -0.006956
 3083 Fit      -0.007141
 3084 Fit      -0.007312
 3085 Fit      -0.007496
 3086 Fit      -0.007712
 3087 Fit      -0.007977
 3088 Fit      -0.008297
 3089 Fit      -0.008675
 3090 Fit      -0.009110
 3091 Fit      -0.009603
 3092 Fit      -0.010158
 3093 Fit      -0.010796
 3094 Fit      -0.011569
 3095 Fit      -0.012590
 3096 Fit      -0.014089
 3097 Fit      -0.016535
 3098 Fit      -0.020800
 3099 Fit       0.001658
 3100 Fit       0.000545
 3101 Fit      -0.000745
 3102 Fit      -0.002027
 3103 Fit      -0.003192
 3104 Fit      -0.004188
 3105 Fit      -0.005003
 3106 Fit      -0.005643
 3107 Fit      -0.006126
 3108 Fit      -0.006477
 3109 Fit      -0.006726
 3110 Fit      -0.006905
 3111 Fit      -0.007045
 3112 Fit      -0.007176
 3113 Fit      -0.007324
 3114 Fit      -0.007510
 3115 Fit      -0.007748
 3116 Fit      -0.008047
 3117 Fit      -0.008410
 3118 Fit      -0.008836
 3119 Fit      -0.009321
 3120 Fit      -0.009867
 3121 Fit      -0.010482
 3122 Fit      -0.011195
 3123 Fit      -0.012077
 3124 Fit      -0.013288
 3125 Fit      -0.015184
 3126 Fit      -0.018612
 3127 Fit       0.001605
 3128 Fit       0.000757
 3129 Fit      -0.000325
 3130 Fit      -0.001500
 3131 Fit      -0.002641
 3132 Fit      -0.003667
 3133 Fit      -0.004542
 3134 Fit      -0.005252
 3135 Fit      -0.005805
 3136 Fit      -0.006215
 3137 Fit      -0.006505
 3138 Fit      -0.006703
 3139 Fit      -0.006838
 3140 Fit      -0.006939
 3141 Fit      -0.007035
 3142 Fit      -0.007150
 3143 Fit      -0.007304
 3144 Fit      -0.007511
 3145 Fit      -0.007782
 3146 Fit      -0.008118
 3147 Fit      -0.008519
 3148 Fit      -0.008981
 3149 Fit      -0.009499
 3150 Fit      -0.010071
 3151 Fit      -0.010707
 3152 Fit      -0.011436
 3153 Fit      -0.012331
 3154 Fit      -0.013553
 3155 Fit      -0.015486
 3156 Fit       0.001151
 3157 Fit       0.000297
 3158 Fit      -0.000746
 3159 Fit      -0.001856
 3160 Fit      -0.002930
 3161 Fit      -0.003895
 3162 Fit      -0.004716
 3163 Fit      -0.005379
 3164 Fit      -0.005887
 3165 Fit      -0.006256
 3166 Fit      -0.006508
 3167 Fit      -0.006670
 3168 Fit      -0.006773
 3169 Fit      -0.006845
 3170 Fit      -0.006917
 3171 Fit      -0.007012
 3172 Fit      -0.007152
 3173 Fit      -0.007351
 3174 Fit      -0.007618
 3175 Fit      -0.007955
 3176 Fit      -0.008360
 3177 Fit      -0.008826
 3178 Fit      -0.009344
 3179 Fit      -0.009908
 3180 Fit      -0.010516
 3181 Fit      -0.011179
 3182 Fit      -0.011931
 3183 Fit      -0.012849
 3184 Fit      -0.014109
 3185 Fit       0.000909
 3186 Fit      -0.000006
 3187 Fit      -0.001067
 3188 Fit      -0.002152
 3189 Fit      -0.003179
 3190 Fit      -0.004092
 3191 Fit      -0.004862
 3192 Fit      -0.005479
 3193 Fit      -0.005946
 3194 Fit      -0.006279
 3195 Fit      -0.006499
 3196 Fit      -0.006633
 3197 Fit      -0.006711
 3198 Fit      -0.006763
 3199 Fit      -0.006817
 3200 Fit      -0.006898
 3201 Fit      -0.007026
 3202 Fit      -0.007215
 3203 Fit      -0.007475
 3204 Fit      -0.007806
 3205 Fit      -0.008203
 3206 Fit      -0.008659
 3207 Fit      -0.009160
 3208 Fit      -0.009695
 3209 Fit      -0.010249
 3210 Fit      -0.010812
 3211 Fit      -0.011376
 3212 Fit      -0.011923
 3213 Fit      -0.012405
 3214 Fit       0.001501
 3215 Fit       0.000824
 3216 Fit      -0.000185
 3217 Fit      -0.001296
 3218 Fit      -0.002382
 3219 Fit      -0.003378
 3220 Fit      -0.004249
 3221 Fit      -0.004974
 3222 Fit      -0.005550
 3223 Fit      -0.005982
 3224 Fit      -0.006286
 3225 Fit      -0.006483
 3226 Fit      -0.006599
 3227 Fit      -0.006663
 3228 Fit      -0.006703
 3229 Fit      -0.006746
 3230 Fit      -0.006818
 3231 Fit      -0.006937
 3232 Fit      -0.007118
 3233 Fit      -0.007366
 3234 Fit      -0.007682
 3235 Fit      -0.008062
 3236 Fit      -0.008495
 3237 Fit      -0.008964
 3238 Fit      -0.009452
 3239 Fit      -0.009936
 3240 Fit      -0.010389
 3241 Fit      -0.010769
 3242 Fit      -0.011002
 3243 Fit      -0.010926
 3244 Fit      -0.010176
 3245 Fit      -0.003041
 3246 Fit      -0.000133
 3247 Fit       0.001640
 3248 Fit       0.001098
 3249 Fit       0.000080
 3250 Fit      -0.001094
 3251 Fit      -0.002244
 3252 Fit      -0.003287
 3253 Fit      -0.004188
 3254 Fit      -0.004934
 3255 Fit      -0.005522
 3256 Fit      -0.005960
 3257 Fit      -0.006265
 3258 Fit      -0.006460
 3259 Fit      -0.006572
 3260 Fit      -0.006633
 3261 Fit      -0.006672
 3262 Fit      -0.006718
 3263 Fit      -0.006796
 3264 Fit      -0.006926
 3265 Fit      -0.007120
 3266 Fit      -0.007383
 3267 Fit      -0.007713
 3268 Fit      -0.008100
 3269 Fit      -0.008529
 3270 Fit      -0.008976
 3271 Fit      -0.009416
 3272 Fit      -0.009811
 3273 Fit      -0.010110
 3274 Fit      -0.010230
 3275 Fit      -0.010023
 3276 Fit      -0.009211
 3277 Fit      -0.007330
 3278 Fit      -0.002464
 3279 Fit      -0.000267
 3280 Fit       0.001065
 3281 Fit       0.001508
 3282 Fit       0.001143
 3283 Fit       0.000225
 3284 Fit      -0.000931
 3285 Fit      -0.002101
 3286 Fit      -0.003174
 3287 Fit      -0.004101
 3288 Fit      -0.004867
 3289 Fit      -0.005470
 3290 Fit      -0.005919
 3291 Fit      -0.006233
 3292 Fit      -0.006434
 3293 Fit      -0.006553
 3294 Fit      -0.006620
 3295 Fit      -0.006667
 3296 Fit      -0.006723
 3297 Fit      -0.006814
 3298 Fit      -0.006956
 3299 Fit      -0.007163
 3300 Fit      -0.007435
 3301 Fit      -0.007766
 3302 Fit      -0.008143
 3303 Fit      -0.008544
 3304 Fit      -0.008940
 3305 Fit      -0.009291
 3306 Fit      -0.009548
 3307 Fit      -0.009638
 3308 Fit      -0.009448
 3309 Fit      -0.008804
 3310 Fit      -0.007460
 3311 Fit      -0.005136
 3312 Fit      -0.000391
 3313 Fit      -0.000229
 3314 Fit       0.000502
 3315 Fit       0.001084
 3316 Fit       0.001200
 3317 Fit       0.000758
 3318 Fit      -0.000133
 3319 Fit      -0.001246
 3320 Fit      -0.002383
 3321 Fit      -0.003426
 3322 Fit      -0.004321
 3323 Fit      -0.005050
 3324 Fit      -0.005613
 3325 Fit      -0.006023
 3326 Fit      -0.006302
 3327 Fit      -0.006478
 3328 Fit      -0.006585
 3329 Fit      -0.006655
 3330 Fit      -0.006723
 3331 Fit      -0.006815
 3332 Fit      -0.006953
 3333 Fit      -0.007149
 3334 Fit      -0.007407
 3335 Fit      -0.007718
 3336 Fit      -0.008066
 3337 Fit      -0.008423
 3338 Fit      -0.008754
 3339 Fit      -0.009011
 3340 Fit      -0.009133
 3341 Fit      -0.009036
 3342 Fit      -0.008612
 3343 Fit      -0.007723
 3344 Fit      -0.006224
 3345 Fit      -0.003995
 3346 Fit       0.001506
 3347 Fit       0.003684
 3348 Fit       0.005085
 3349 Fit       0.005050
 3350 Fit       0.003785
 3351 Fit       0.002378
 3352 Fit       0.001556
 3353 Fit       0.001249
 3354 Fit       0.001078
 3355 Fit       0.000731
 3356 Fit       0.000061
 3357 Fit      -0.000893
 3358 Fit      -0.001982
 3359 Fit      -0.003055
 3360 Fit      -0.004016
 3361 Fit      -0.004818
 3362 Fit      -0.005448
 3363 Fit      -0.005914
 3364 Fit      -0.006238
 3365 Fit      -0.006449
 3366 Fit      -0.006585
 3367 Fit      -0.006683
 3368 Fit      -0.006779
 3369 Fit      -0.006902
 3370 Fit      -0.007073
 3371 Fit      -0.007298
 3372 Fit      -0.007575
 3373 Fit      -0.007883
 3374 Fit      -0.008194
 3375 Fit      -0.008464
 3376 Fit      -0.008640
 3377 Fit      -0.008652
 3378 Fit      -0.008420
 3379 Fit      -0.007850
 3380 Fit      -0.006849
 3381 Fit      -0.005351
 3382 Fit      -0.003343
 3383 Fit      -0.000948
 3384 Fit      -0.000544
 3385 Fit       0.001379
 3386 Fit       0.002729
 3387 Fit       0.003132
 3388 Fit       0.002725
 3389 Fit       0.002014
 3390 Fit       0.001353
 3391 Fit       0.000765
 3392 Fit       0.000116
 3393 Fit      -0.000701
 3394 Fit      -0.001676
 3395 Fit      -0.002711
 3396 Fit      -0.003695
 3397 Fit      -0.004552
 3398 Fit      -0.005247
 3399 Fit      -0.005774
 3400 Fit      -0.006150
 3401 Fit      -0.006406
 3402 Fit      -0.006579
 3403 Fit      -0.006712
 3404 Fit      -0.006842
 3405 Fit      -0.006998
 3406 Fit      -0.007195
 3407 Fit      -0.007433
 3408 Fit      -0.007695
 3409 Fit      -0.007950
 3410 Fit      -0.008149
 3411 Fit      -0.008232
 3412 Fit      -0.008128
 3413 Fit      -0.007759
 3414 Fit      -0.007050
 3415 Fit      -0.005949
 3416 Fit      -0.004441
 3417 Fit      -0.002584
 3418 Fit      -0.001774
 3419 Fit      -0.000118
 3420 Fit       0.001045
 3421 Fit       0.001459
 3422 Fit       0.001234
 3423 Fit       0.000673
 3424 Fit      -0.000024
 3425 Fit      -0.000827
 3426 Fit      -0.001746
 3427 Fit      -0.002737
 3428 Fit      -0.003708
 3429 Fit      -0.004572
 3430 Fit      -0.005278
 3431 Fit      -0.005813
 3432 Fit      -0.006194
 3433 Fit      -0.006458
 3434 Fit      -0.006652
 3435 Fit      -0.006821
 3436 Fit      -0.006997
 3437 Fit      -0.007199
 3438 Fit      -0.007419
 3439 Fit      -0.007628
 3440 Fit      -0.007776
 3441 Fit      -0.007793
 3442 Fit      -0.007601
 3443 Fit      -0.007121
 3444 Fit      -0.006290
 3445 Fit      -0.005078
 3446 Fit      -0.003525
 3447 Fit      -0.002693
 3448 Fit      -0.001324
 3449 Fit      -0.000422
 3450 Fit      -0.000167
 3451 Fit      -0.000453
 3452 Fit      -0.001069
 3453 Fit      -0.001877
 3454 Fit      -0.002795
 3455 Fit      -0.003732
 3456 Fit      -0.004591
 3457 Fit      -0.005303
 3458 Fit      -0.005845
 3459 Fit      -0.006233
 3460 Fit      -0.006511
 3461 Fit      -0.006730
 3462 Fit      -0.006928
 3463 Fit      -0.007121
 3464 Fit      -0.007291
 3465 Fit      -0.007387
 3466 Fit      -0.007335
 3467 Fit      -0.007046
 3468 Fit      -0.006439
 3469 Fit      -0.005473
 3470 Fit      -0.004174
 3471 Fit      -0.003465
 3472 Fit      -0.002342
 3473 Fit      -0.001753
 3474 Fit      -0.001810
 3475 Fit      -0.002353
 3476 Fit      -0.003167
 3477 Fit      -0.004070
 3478 Fit      -0.004909
 3479 Fit      -0.005585
 3480 Fit      -0.006078
 3481 Fit      -0.006424
 3482 Fit      -0.006677
 3483 Fit      -0.006867
 3484 Fit      -0.006967
 3485 Fit      -0.006899
 3486 Fit      -0.006551
 3487 Fit      -0.005834
 3488 Fit      -0.004748
 3489 Fit      -0.004134
 3490 Fit      -0.003274
 3491 Fit      -0.003105
 3492 Fit      -0.003597
 3493 Fit      -0.004418
 3494 Fit      -0.005235
 3495 Fit      -0.005859
 3496 Fit      -0.006264
 3497 Fit      -0.006477
 3498 Fit      -0.006455
 3499 Fit      -0.006069
 3500 Fit      -0.005235
 3501 Fit      -0.004707
 3502 Fit      -0.004241
 3503 Fit      -0.004786
 3504 Fit      -0.005564
 3505 Fit      -0.005923
 3506 Fit      -0.005611
 3507 Fit      -0.005182
 3508 Fit       0.000346
 3509 Fit       0.001443
 3510 Fit       0.004458
 3511 Fit       0.004160
 3512 Fit       0.003918
 3513 Fit       0.002785
 3514 Fit       0.003125
 3515 Fit       0.003464
 3516 Fit       0.003506
 3517 Fit       0.003347
 3518 Fit       0.000467
 3519 Fit       0.001845
 3520 Fit       0.002655
 3521 Fit       0.002948
 3522 Fit       0.002909
 3523 Fit      -0.000559
 3524 Fit       0.001247
 3525 Fit       0.002098
 3526 Fit       0.002355
 3527 Fit      -0.003385
 3528 Fit      -0.000400
 3529 Fit       0.001047
 3530 Fit       0.001653
 3531 Fit      -0.005494
 3532 Fit      -0.001677
 3533 Fit       0.000186
 3534 Fit      -0.003923
 3535 Fit       0.019983
 3536 Fit       0.017350
 3537 Fit       0.014883
 3538 Fit       0.012261
 3539 Fit       0.018109
 3540 Fit       0.015858
 3541 Fit       0.013579
 3542 Fit       0.011056
 3543 Fit       0.007981
 3544 Fit       0.003886
 3545 Fit       0.020481
 3546 Fit       0.016351
 3547 Fit       0.014177
 3548 Fit       0.011759
 3549 Fit       0.008902
 3550 Fit       0.005395
 3551 Fit       0.001340
 3552 Fit       0.018395
 3553 Fit       0.014480
 3554 Fit       0.012244
 3555 Fit       0.009448
 3556 Fit       0.006341
 3557 Fit       0.004213
 3558 Fit       0.015954
 3559 Fit       0.012377
 3560 Fit       0.010050
 3561 Fit       0.007721
 3562 Fit       0.007831
 3563 Fit       0.009715
 3564 Fit       0.012501
 3565 Fit       0.010071
 3566 Fit       0.014007
 3567 Fit       0.015014
 3568 Fit       0.013389
 3569 Fit       0.011981
 3570 Fit       0.013034
 3571 Fit       0.015778
 3572 Fit       0.016127
 3573 Fit       0.014600
 3574 Fit       0.012685
 3575 Fit       0.010602
 3576 Fit       0.009134
 3577 Fit       0.017101
 3578 Fit       0.017349
 3579 Fit       0.015740
 3580 Fit       0.013977
 3581 Fit       0.011960
 3582 Fit       0.009620
 3583 Fit       0.007061
 3584 Fit       0.004871
 3585 Fit       0.018760
 3586 Fit       0.018640
 3587 Fit       0.016700
 3588 Fit       0.014859
 3589 Fit       0.012919
 3590 Fit       0.010693
 3591 Fit       0.007996
 3592 Fit       0.004662
 3593 Fit       0.020844
 3594 Fit       0.019913
 3595 Fit       0.017325
 3596 Fit       0.015104
 3597 Fit       0.012886
 3598 Fit       0.010371
 3599 Fit       0.007218
 3600 Fit       0.002928
 3601 Fit       0.017798
 3602 Fit       0.015133
 3603 Fit       0.012551
 3604 Fit       0.009628
 3605 Fit       0.005826
 3606 Fit       0.022103
 3607 Fit       0.021147
 3608 Fit       0.016628
 3609 Fit       0.016897
 3610 Fit       0.017640
 3611 Fit       0.001984
 3612 Fit       0.009327
 3613 Fit       0.014468
 3614 Fit       0.016540
 3615 Fit       0.016755
 3616 Fit       0.014529
 3617 Fit       0.014827
 3618 Fit       0.014539
 3619 Fit       0.012239
 3620 Fit       0.007116
 3621 Fit       0.001333
 3622 Fit       0.006858
 3623 Fit       0.011531
 3624 Fit       0.013795
 3625 Fit       0.012117
 3626 Fit       0.011790
 3627 Fit       0.008663
 3628 Fit       0.004952
 3629 Fit       0.006233
 3630 Fit       0.010155
 3631 Fit       0.009077
 3632 Fit       0.009110
 3633 Fit       0.013291
 3634 Fit       0.011138
 3635 Fit       0.014234
 3636 Fit       0.017698
 3637 Fit       0.007033
 3638 Fit       0.013073
 3639 Fit       0.014986
 3640 Fit       0.017442
 3641 Fit       0.011158
 3642 Fit       0.014737
 3643 Fit       0.015860
 3644 Fit       0.017545
 3645 Fit       0.020174
 3646 Fit       0.013902
 3647 Fit       0.014074
 3648 Fit       0.016097
 3649 Fit       0.016770
 3650 Fit       0.018142
 3651 Fit       0.020444
 3652 Fit       0.017783
 3653 Fit       0.016242
 3654 Fit       0.017188
 3655 Fit       0.017538
 3656 Fit       0.018714
 3657 Fit       0.020831
 3658 Fit       0.020648
 3659 Fit       0.017923
 3660 Fit       0.018089
 3661 Fit       0.018255
 3662 Fit       0.019381
 3663 Fit       0.021581
 3664 Fit       0.019189
 3665 Fit       0.018928
 3666 Fit       0.019159
 3667 Fit       0.020828
 3668 Fit       0.004898
 3669 Fit       0.008013
 3670 Fit       0.009223
 3671 Fit       0.015281
 3672 Fit       0.004179
 3673 Fit       0.009069
 3674 Fit       0.012323
 3675 Fit       0.014250
 3676 Fit       0.015125
 3677 Fit       0.019910
 3678 Fit       0.002986
 3679 Fit       0.009123
 3680 Fit       0.013501
 3681 Fit       0.016479
 3682 Fit       0.018342
 3683 Fit       0.019368
 3684 Fit       0.022954
 3685 Fit      -0.002209
 3686 Fit       0.005777
 3687 Fit       0.011693
 3688 Fit       0.015978
 3689 Fit       0.018964
 3690 Fit       0.020927
 3691 Fit       0.022143
 3692 Fit       0.024561
 3693 Fit      -0.001976
 3694 Fit       0.006066
 3695 Fit       0.012172
 3696 Fit       0.016687
 3697 Fit       0.019909
 3698 Fit       0.022107
 3699 Fit       0.023552
 3700 Fit       0.024830
 3701 Fit      -0.001647
 3702 Fit       0.006784
 3703 Fit       0.013321
 3704 Fit       0.018076
 3705 Fit       0.021337
 3706 Fit       0.023453
 3707 Fit       0.023760
 3708 Fit       0.005051
 3709 Fit       0.012476
 3710 Fit       0.018075
 3711 Fit       0.021676
 3712 Fit       0.011618
 3713 Fit       0.017651
 -----------------------------------------------------------------
 Leave Link  602 at Fri Jan 17 11:54:45 2014, MaxMem=   235929600 cpu:         1.0

 Test job not archived.
 1\1\GINC-G29\SP\RHF\Gen\C6H11I1O3\KOLAR\17-Jan-2014\0\\# hf/gen pseudo
 =read pop=(mk, readradii) iop(6/33=2,6/41=5,6/42=2)\\na resp\\0,1\C,0,
 1.351937,2.325583,-0.421239\C,0,0.630931,0.987087,-0.444359\H,0,0.2861
 91,0.724205,-1.445505\C,0,-0.548926,0.917416,0.533915\H,0,-0.196004,1.
 006526,1.570444\O,0,-1.418119,2.004521,0.211708\C,0,-2.737341,1.48671,
 0.07515\C,0,-2.501807,0.021852,-0.292662\H,0,-2.335707,-0.089743,-1.37
 4244\O,0,-1.299985,-0.270733,0.427671\C,0,-3.608543,-0.923595,0.133541
 \O,0,-3.371994,-2.185784,-0.463724\I,0,2.067823,-0.646201,0.043242\H,0
 ,1.743227,2.551238,0.576349\H,0,2.185213,2.338288,-1.1281\H,0,0.640923
 ,3.11214,-0.698634\H,0,-3.28858,1.57701,1.023995\H,0,-3.257605,2.05830
 6,-0.698299\H,0,-3.612163,-0.977145,1.232515\H,0,-4.575034,-0.499548,-
 0.191791\H,0,-3.98179,-2.826991,-0.069885\\Version=AM64L-G09RevD.01\St
 ate=1-A\HF=-469.3198677\RMSD=9.927e-09\Dipole=-1.677619,0.708468,0.080
 2314\Quadrupole=7.7346782,-4.5102606,-3.2244176,3.2789267,-2.1374682,-
 2.748621\PG=C01 [X(C6H11I1O3)]\\@


 Happiness is a conscious choice, not an automatic response.
 -- Mildred Barthel
 Job cpu time:       0 days  0 hours  0 minutes 13.4 seconds.
 File lengths (MBytes):  RWF=     11 Int=      0 D2E=      0 Chk=      2 Scr=      1
 Normal termination of Gaussian 09 at Fri Jan 17 11:54:45 2014.
12.85user 0.57system 0:13.82elapsed 97%CPU (0avgtext+0avgdata 2619184maxresident)k
8inputs+24440outputs (0major+317505minor)pagefaults 0swaps
