Linux g42 2.6.38.6-client #1 SMP Tue Jun 12 11:27:21 CEST 2012 x86_64 GNU/Linux
Fri Jan 17 11:54:31 CET 2014

 Entering Gaussian System, Link 0=/usr/local/programs/common/gaussian/gaussian09_d01/arch/amd64-pgi_10.4.0-acml/g09/g09
 Initial command:
 /usr/local/programs/common/gaussian/gaussian09_d01/arch/amd64-pgi_10.4.0-acml/g09/l1.exe "/scratch/kolar/g09_20073/Gau-20628.inp" -scrdir="/scratch/kolar/g09_20073/"
 Entering Link 1 = /usr/local/programs/common/gaussian/gaussian09_d01/arch/amd64-pgi_10.4.0-acml/g09/l1.exe PID=     20636.
  
 Copyright (c) 1988,1990,1992,1993,1995,1998,2003,2009,2013,
            Gaussian, Inc.  All Rights Reserved.
  
 This is part of the Gaussian(R) 09 program.  It is based on
 the Gaussian(R) 03 system (copyright 2003, Gaussian, Inc.),
 the Gaussian(R) 98 system (copyright 1998, Gaussian, Inc.),
 the Gaussian(R) 94 system (copyright 1995, Gaussian, Inc.),
 the Gaussian 92(TM) system (copyright 1992, Gaussian, Inc.),
 the Gaussian 90(TM) system (copyright 1990, Gaussian, Inc.),
 the Gaussian 88(TM) system (copyright 1988, Gaussian, Inc.),
 the Gaussian 86(TM) system (copyright 1986, Carnegie Mellon
 University), and the Gaussian 82(TM) system (copyright 1983,
 Carnegie Mellon University). Gaussian is a federally registered
 trademark of Gaussian, Inc.
  
 This software contains proprietary and confidential information,
 including trade secrets, belonging to Gaussian, Inc.
  
 This software is provided under written license and may be
 used, copied, transmitted, or stored only in accord with that
 written license.
  
 The following legend is applicable only to US Government
 contracts under FAR:
  
                    RESTRICTED RIGHTS LEGEND
  
 Use, reproduction and disclosure by the US Government is
 subject to restrictions as set forth in subparagraphs (a)
 and (c) of the Commercial Computer Software - Restricted
 Rights clause in FAR 52.227-19.
  
 Gaussian, Inc.
 340 Quinnipiac St., Bldg. 40, Wallingford CT 06492
  
  
 ---------------------------------------------------------------
 Warning -- This program may not be used in any manner that
 competes with the business of Gaussian, Inc. or will provide
 assistance to any competitor of Gaussian, Inc.  The licensee
 of this program is prohibited from giving any competitor of
 Gaussian, Inc. access to this program.  By using this program,
 the user acknowledges that Gaussian, Inc. is engaged in the
 business of creating and licensing software in the field of
 computational chemistry and represents and warrants to the
 licensee that it is not a competitor of Gaussian, Inc. and that
 it will not use this program in any manner prohibited above.
 ---------------------------------------------------------------
  

 Cite this work as:
 Gaussian 09, Revision D.01,
 M. J. Frisch, G. W. Trucks, H. B. Schlegel, G. E. Scuseria, 
 M. A. Robb, J. R. Cheeseman, G. Scalmani, V. Barone, B. Mennucci, 
 G. A. Petersson, H. Nakatsuji, M. Caricato, X. Li, H. P. Hratchian, 
 A. F. Izmaylov, J. Bloino, G. Zheng, J. L. Sonnenberg, M. Hada, 
 M. Ehara, K. Toyota, R. Fukuda, J. Hasegawa, M. Ishida, T. Nakajima, 
 Y. Honda, O. Kitao, H. Nakai, T. Vreven, J. A. Montgomery, Jr., 
 J. E. Peralta, F. Ogliaro, M. Bearpark, J. J. Heyd, E. Brothers, 
 K. N. Kudin, V. N. Staroverov, T. Keith, R. Kobayashi, J. Normand, 
 K. Raghavachari, A. Rendell, J. C. Burant, S. S. Iyengar, J. Tomasi, 
 M. Cossi, N. Rega, J. M. Millam, M. Klene, J. E. Knox, J. B. Cross, 
 V. Bakken, C. Adamo, J. Jaramillo, R. Gomperts, R. E. Stratmann, 
 O. Yazyev, A. J. Austin, R. Cammi, C. Pomelli, J. W. Ochterski, 
 R. L. Martin, K. Morokuma, V. G. Zakrzewski, G. A. Voth, 
 P. Salvador, J. J. Dannenberg, S. Dapprich, A. D. Daniels, 
 O. Farkas, J. B. Foresman, J. V. Ortiz, J. Cioslowski, 
 and D. J. Fox, Gaussian, Inc., Wallingford CT, 2013.
 
 ******************************************
 Gaussian 09:  AM64L-G09RevD.01 24-Apr-2013
                17-Jan-2014 
 ******************************************
 %mem=1800mb
 ------------------------------------------------------------------
 # hf/gen pseudo=read pop=(mk, readradii) iop(6/33=2,6/41=5,6/42=2)
 ------------------------------------------------------------------
 1/38=1/1;
 2/12=2,17=6,18=5,40=1/2;
 3/5=7,11=9,16=1,17=8,25=1,30=1/1,2,3;
 4//1;
 5/5=2,38=5/2;
 6/7=2,8=2,9=2,10=2,15=8,20=101,28=1,33=2,41=5,42=2/1,2;
 99/5=1,9=1/99;
 -------
 na resp
 -------
 Symbolic Z-matrix:
 Charge =  0 Multiplicity = 1
 6                     6.8404   -1.13065   0.00018 
 6                     5.49098  -1.57953   0.00055 
 6                     4.57427  -0.55548   0.00004 
 16                    5.39017   0.99618  -0.00039 
 6                     6.94557   0.23517  -0.00059 
 6                     3.10483  -0.77678   0.00007 
 8                     2.62834  -1.89741   0.0002 
 7                     2.33379   0.38174   0.00015 
 7                     0.98276   0.31613   0.00022 
 6                     0.34872   1.4359    0.00032 
 6                    -1.08953   1.51391   0.00023 
 6                    -1.93207   2.59942   0.00014 
 6                    -3.264     2.08861   0.00034 
 6                    -3.1299    0.72938   0.00004 
 8                    -1.82779   0.35788   0.00002 
 53                   -4.56118  -0.79785  -0.00014 
 1                     7.69899  -1.79294   0.00038 
 1                     5.17686  -2.61629   0.00104 
 1                     7.84157   0.84169  -0.00108 
 1                     2.78491   1.29593   0.0003 
 1                     0.86411   2.40623   0.00032 
 1                    -1.63337   3.63891   0.00015 
 1                    -4.1892    2.64527   0.00049 
 
                          Input orientation:                          
 ---------------------------------------------------------------------
 Center     Atomic      Atomic             Coordinates (Angstroms)
 Number     Number       Type             X           Y           Z
 ---------------------------------------------------------------------
      1          6           0        6.840404   -1.130648    0.000182
      2          6           0        5.490979   -1.579528    0.000546
      3          6           0        4.574269   -0.555476    0.000036
      4         16           0        5.390167    0.996184   -0.000393
      5          6           0        6.945570    0.235168   -0.000591
      6          6           0        3.104834   -0.776779    0.000072
      7          8           0        2.628339   -1.897413    0.000199
      8          7           0        2.333792    0.381737    0.000147
      9          7           0        0.982764    0.316127    0.000215
     10          6           0        0.348723    1.435902    0.000318
     11          6           0       -1.089525    1.513907    0.000230
     12          6           0       -1.932071    2.599424    0.000137
     13          6           0       -3.263997    2.088607    0.000337
     14          6           0       -3.129904    0.729375    0.000042
     15          8           0       -1.827786    0.357877    0.000023
     16         53           0       -4.561180   -0.797853   -0.000141
     17          1           0        7.698990   -1.792939    0.000381
     18          1           0        5.176861   -2.616286    0.001043
     19          1           0        7.841571    0.841689   -0.001078
     20          1           0        2.784912    1.295933    0.000296
     21          1           0        0.864107    2.406233    0.000321
     22          1           0       -1.633368    3.638911    0.000152
     23          1           0       -4.189198    2.645270    0.000493
 ---------------------------------------------------------------------
                    Distance matrix (angstroms):
                    1          2          3          4          5
     1  C    0.000000
     2  C    1.422126   0.000000
     3  C    2.337989   1.374424   0.000000
     4  S    2.574219   2.577684   1.753094   0.000000
     5  C    1.369859   2.325717   2.499637   1.731596   0.000000
     6  C    3.752293   2.517557   1.486006   2.892429   3.971812
     7  O    4.281287   2.880236   2.363776   4.000075   4.815224
     8  N    4.753615   3.716771   2.428602   3.117527   4.614107
     9  N    6.033664   4.890553   3.695754   4.459560   5.963356
    10  C    6.980623   5.961176   4.671277   5.060584   6.705233
    11  C    8.359273   7.271339   6.030001   6.500342   8.136211
    12  C    9.532563   8.518528   7.230896   7.495702   9.187068
    13  C   10.604835   9.492356   8.272218   8.722840  10.376439
    14  C   10.142324   8.924722   7.810578   8.524248  10.087587
    15  O    8.795068   7.570856   6.466879   7.246122   8.774214
    16  I   11.406440  10.082505   9.138664  10.111769  11.553027
    17  H    1.084343   2.218300   3.360833   3.620756   2.163530
    18  H    2.230358   1.083299   2.147104   3.618762   3.355462
    19  H    2.211888   3.374548   3.553496   2.456268   1.081982
    20  H    4.726025   3.948553   2.574784   2.622442   4.293751
    21  H    6.944469   6.106901   4.747317   4.740618   6.457377
    22  H    9.723863   8.831106   7.491838   7.504269   9.229499
    23  H   11.658031  10.561948   9.329691   9.720274  11.392614
                    6          7          8          9         10
     6  C    0.000000
     7  O    1.217731   0.000000
     8  N    1.391641   2.298104   0.000000
     9  N    2.386970   2.758202   1.352620   0.000000
    10  C    3.534417   4.038272   2.247613   1.286819   0.000000
    11  C    4.779110   5.045752   3.605677   2.393545   1.440362
    12  C    6.063758   6.404599   4.807881   3.702662   2.560431
    13  C    6.983727   7.113929   5.852234   4.601811   3.671208
    14  C    6.414083   6.329090   5.474744   4.133378   3.549652
    15  O    5.061441   4.994335   4.161646   2.810860   2.428854
    16  I    7.666043   7.273116   6.995146   5.654756   5.394146
    17  H    4.705194   5.071727   5.789177   7.039592   8.028190
    18  H    2.770755   2.647970   4.131729   5.117567   6.303265
    19  H    5.005609   5.889013   5.526951   6.878913   7.516373
    20  H    2.097257   3.197182   1.019443   2.051282   2.440207
    21  H    3.892611   4.651224   2.501711   2.093471   1.098710
    22  H    6.476795   6.986632   5.132986   4.229071   2.963433
    23  H    8.056880   8.192361   6.904562   5.672222   4.696307
                   11         12         13         14         15
    11  C    0.000000
    12  C    1.374129   0.000000
    13  C    2.249135   1.426521   0.000000
    14  C    2.186009   2.220785   1.365830   0.000000
    15  O    1.371654   2.243972   2.249028   1.354076   0.000000
    16  I    4.170926   4.295778   3.164543   2.093078   2.967685
    17  H    9.390060  10.585376  11.629853  11.118769   9.766549
    18  H    7.505071   8.817060   9.663545   8.955210   7.609910
    19  H    8.956358   9.930444  11.175350  10.972050   9.681453
    20  H    3.880564   4.893773   6.100626   5.941888   4.707115
    21  H    2.147772   2.802844   4.140305   4.331741   3.382610
    22  H    2.193492   1.081553   2.249976   3.271853   3.286789
    23  H    3.299690   2.257593   1.079755   2.189237   3.287618
                   16         17         18         19         20
    16  I    0.000000
    17  H   12.300486   0.000000
    18  H    9.906369   2.653118   0.000000
    19  H   12.510649   2.638484   4.365578   0.000000
    20  H    7.638652   5.804248   4.585507   5.077021   0.000000
    21  H    6.300786   8.021762   6.620086   7.150721   2.218616
    22  H    5.315727  10.798051   9.246984   9.879217   5.001074
    23  H    3.463159  12.689630  10.742767  12.165209   7.103444
                   21         22         23
    21  H    0.000000
    22  H    2.785117   0.000000
    23  H    5.058955   2.742187   0.000000
 Stoichiometry    C10H7IN2O2S
 Framework group  C1[X(C10H7IN2O2S)]
 Deg. of freedom    63
 Full point group                 C1      NOp   1
 Largest Abelian subgroup         C1      NOp   1
 Largest concise Abelian subgroup C1      NOp   1
                         Standard orientation:                         
 ---------------------------------------------------------------------
 Center     Atomic      Atomic             Coordinates (Angstroms)
 Number     Number       Type             X           Y           Z
 ---------------------------------------------------------------------
      1          6           0        6.840404   -1.130648    0.000182
      2          6           0        5.490979   -1.579528    0.000546
      3          6           0        4.574269   -0.555476    0.000036
      4         16           0        5.390167    0.996184   -0.000393
      5          6           0        6.945570    0.235168   -0.000591
      6          6           0        3.104834   -0.776779    0.000072
      7          8           0        2.628339   -1.897413    0.000199
      8          7           0        2.333792    0.381737    0.000147
      9          7           0        0.982764    0.316127    0.000215
     10          6           0        0.348723    1.435902    0.000318
     11          6           0       -1.089525    1.513907    0.000230
     12          6           0       -1.932071    2.599424    0.000137
     13          6           0       -3.263997    2.088607    0.000337
     14          6           0       -3.129904    0.729375    0.000042
     15          8           0       -1.827786    0.357877    0.000023
     16         53           0       -4.561180   -0.797853   -0.000141
     17          1           0        7.698990   -1.792939    0.000381
     18          1           0        5.176861   -2.616286    0.001043
     19          1           0        7.841571    0.841689   -0.001078
     20          1           0        2.784912    1.295933    0.000296
     21          1           0        0.864107    2.406233    0.000321
     22          1           0       -1.633368    3.638911    0.000152
     23          1           0       -4.189198    2.645270    0.000493
 ---------------------------------------------------------------------
 Rotational constants (GHZ):      1.0986473      0.0823156      0.0765781
 General basis read from cards:  (5D, 7F)
 ======================================================================================================
                                       Pseudopotential Parameters
 ======================================================================================================
  Center     Atomic      Valence      Angular      Power
  Number     Number     Electrons     Momentum     of R      Exponent        Coefficient   SO-Coeffient
 ======================================================================================================
    1          6
                                   No pseudopotential on this center.
    2          6
                                   No pseudopotential on this center.
    3          6
                                   No pseudopotential on this center.
    4         16
                                   No pseudopotential on this center.
    5          6
                                   No pseudopotential on this center.
    6          6
                                   No pseudopotential on this center.
    7          8
                                   No pseudopotential on this center.
    8          7
                                   No pseudopotential on this center.
    9          7
                                   No pseudopotential on this center.
   10          6
                                   No pseudopotential on this center.
   11          6
                                   No pseudopotential on this center.
   12          6
                                   No pseudopotential on this center.
   13          6
                                   No pseudopotential on this center.
   14          6
                                   No pseudopotential on this center.
   15          8
                                   No pseudopotential on this center.
   16         53            7
                                      F and up 
                                                     0        1.0715702       -0.07476210    0.00000000
                                                     1       44.1936028      -30.08112240    0.00000000
                                                     2       12.9367609      -75.37227210    0.00000000
                                                     2        3.1956412      -22.05637580    0.00000000
                                                     2        0.8589806       -1.69795850    0.00000000
                                      S - F
                                                     0      127.9202670        2.93800360    0.00000000
                                                     1       78.6211465       41.24712670    0.00000000
                                                     2       36.5146237      287.86800950    0.00000000
                                                     2        9.9065681      114.37585060    0.00000000
                                                     2        1.9420086       37.65477140    0.00000000
                                      P - F
                                                     0       13.0035304        2.22226300    0.00000000
                                                     1       76.0331404       39.40908310    0.00000000
                                                     2       24.1961684      177.40750020    0.00000000
                                                     2        6.4053433       77.98894620    0.00000000
                                                     2        1.5851786       25.75476410    0.00000000
                                      D - F
                                                     0       40.4278108        7.05243600    0.00000000
                                                     1       28.9084375       33.30416350    0.00000000
                                                     2       15.6268936      186.94538750    0.00000000
                                                     2        4.1442856       71.96883610    0.00000000
                                                     2        0.9377235        9.36306570    0.00000000
   17          1
                                   No pseudopotential on this center.
   18          1
                                   No pseudopotential on this center.
   19          1
                                   No pseudopotential on this center.
   20          1
                                   No pseudopotential on this center.
   21          1
                                   No pseudopotential on this center.
   22          1
                                   No pseudopotential on this center.
   23          1
                                   No pseudopotential on this center.
 ======================================================================================================
 There are   251 symmetry adapted cartesian basis functions of A   symmetry.
 There are   236 symmetry adapted basis functions of A   symmetry.
   236 basis functions,   484 primitive gaussians,   251 cartesian basis functions
    60 alpha electrons       60 beta electrons
       nuclear repulsion energy      1026.1097634478 Hartrees.
 NAtoms=   23 NActive=   23 NUniq=   23 SFac= 1.00D+00 NAtFMM=   60 NAOKFM=F Big=F
 Integral buffers will be    131072 words long.
 Raffenetti 1 integral format.
 Two-electron integral symmetry is turned on.
 One-electron integrals computed using PRISM.
   1 Symmetry operations used in ECPInt.
 ECPInt:  NShTT=    3160 NPrTT=   21423 LenC2=    2602 LenP2D=   10520.
 LDataN:  DoStor=T MaxTD1= 5 Len=  102
 NBasis=   236 RedAO= T EigKep=  8.21D-04  NBF=   236
 NBsUse=   236 1.00D-06 EigRej= -1.00D+00 NBFU=   236
 ExpMin= 1.05D-01 ExpMax= 2.19D+04 ExpMxC= 3.30D+03 IAcc=1 IRadAn=         1 AccDes= 0.00D+00
 Harris functional with IExCor=  205 and IRadAn=       1 diagonalized for initial guess.
 HarFok:  IExCor=  205 AccDes= 0.00D+00 IRadAn=         1 IDoV= 1 UseB2=F ITyADJ=14
 ICtDFT=  3500011 ScaDFX=  1.000000  1.000000  1.000000  1.000000
 Defaulting to unpruned grid for atomic number  53.
 FoFCou: FMM=F IPFlag=           0 FMFlag=      100000 FMFlg1=           0
         NFxFlg=           0 DoJE=T BraDBF=F KetDBF=T FulRan=T
         wScrn=  0.000000 ICntrl=     500 IOpCl=  0 I1Cent=   200000004 NGrid=           0
         NMat0=    1 NMatS0=      1 NMatT0=    0 NMatD0=    1 NMtDS0=    0 NMtDT0=    0
 Petite list used in FoFCou.
 Requested convergence on RMS density matrix=1.00D-08 within 128 cycles.
 Requested convergence on MAX density matrix=1.00D-06.
 Requested convergence on             energy=1.00D-06.
 No special actions if energy rises.
 Integral accuracy reduced to 1.0D-05 until final iterations.
 Initial convergence to 1.0D-05 achieved.  Increase integral accuracy.
 SCF Done:  E(RHF) =  -1049.94402520     A.U. after   17 cycles
            NFock= 17  Conv=0.47D-08     -V/T= 2.0086

 **********************************************************************

            Population analysis using the SCF density.

 **********************************************************************

 Orbital symmetries:
 BldTbl:  Degeneracy threshold= 1.00D-02
       Occupied  (A) (A) (A) (A) (A) (A) (A) (A) (A) (A) (A) (A)
                 (A) (A) (A) (A) (A) (A) (A) (A) (A) (A) (A) (A)
                 (A) (A) (A) (A) (A) (A) (A) (A) (A) (A) (A) (A)
                 (A) (A) (A) (A) (A) (A) (A) (A) (A) (A) (A) (A)
                 (A) (A) (A) (A) (A) (A) (A) (A) (A) (A) (A) (A)
       Virtual   (A) (A) (A) (A) (A) (A) (A) (A) (A) (A) (A) (A)
                 (A) (A) (A) (A) (A) (A) (A) (A) (A) (A) (A) (A)
                 (A) (A) (A) (A) (A) (A) (A) (A) (A) (A) (A) (A)
                 (A) (A) (A) (A) (A) (A) (A) (A) (A) (A) (A) (A)
                 (A) (A) (A) (A) (A) (A) (A) (A) (A) (A) (A) (A)
                 (A) (A) (A) (A) (A) (A) (A) (A) (A) (A) (A) (A)
                 (A) (A) (A) (A) (A) (A) (A) (A) (A) (A) (A) (A)
                 (A) (A) (A) (A) (A) (A) (A) (A) (A) (A) (A) (A)
                 (A) (A) (A) (A) (A) (A) (A) (A) (A) (A) (A) (A)
                 (A) (A) (A) (A) (A) (A) (A) (A) (A) (A) (A) (A)
                 (A) (A) (A) (A) (A) (A) (A) (A) (A) (A) (A) (A)
                 (A) (A) (A) (A) (A) (A) (A) (A) (A) (A) (A) (A)
                 (A) (A) (A) (A) (A) (A) (A) (A) (A) (A) (A) (A)
                 (A) (A) (A) (A) (A) (A) (A) (A) (A) (A) (A) (A)
                 (A) (A) (A) (A) (A) (A) (A) (A)
 The electronic state is 1-A.
 Alpha  occ. eigenvalues --  -91.98780 -20.64488 -20.53223 -15.63644 -15.63171
 Alpha  occ. eigenvalues --  -11.37460 -11.34554 -11.31283 -11.29944 -11.28921
 Alpha  occ. eigenvalues --  -11.28094 -11.26110 -11.25595 -11.25427 -11.25064
 Alpha  occ. eigenvalues --   -9.00269  -6.68457  -6.68361  -6.68200  -1.47746
 Alpha  occ. eigenvalues --   -1.39845  -1.33527  -1.18985  -1.14964  -1.10470
 Alpha  occ. eigenvalues --   -1.04416  -1.01125  -1.00159  -0.92487  -0.87487
 Alpha  occ. eigenvalues --   -0.83753  -0.82119  -0.79088  -0.78093  -0.76501
 Alpha  occ. eigenvalues --   -0.72958  -0.70364  -0.67671  -0.65570  -0.64050
 Alpha  occ. eigenvalues --   -0.61764  -0.60806  -0.60137  -0.58750  -0.57523
 Alpha  occ. eigenvalues --   -0.56957  -0.54659  -0.54164  -0.50215  -0.49857
 Alpha  occ. eigenvalues --   -0.49390  -0.46258  -0.43220  -0.41928  -0.41859
 Alpha  occ. eigenvalues --   -0.38070  -0.37271  -0.36205  -0.34194  -0.29199
 Alpha virt. eigenvalues --    0.06794   0.10123   0.10812   0.15302   0.18993
 Alpha virt. eigenvalues --    0.20545   0.21297   0.23598   0.24422   0.26741
 Alpha virt. eigenvalues --    0.27049   0.28482   0.28640   0.29920   0.31706
 Alpha virt. eigenvalues --    0.32276   0.34268   0.36326   0.37034   0.40651
 Alpha virt. eigenvalues --    0.42018   0.43751   0.47370   0.48824   0.49596
 Alpha virt. eigenvalues --    0.50867   0.52108   0.53230   0.54222   0.54406
 Alpha virt. eigenvalues --    0.57376   0.59663   0.60618   0.62124   0.63750
 Alpha virt. eigenvalues --    0.66567   0.68611   0.71923   0.73247   0.74112
 Alpha virt. eigenvalues --    0.75474   0.76436   0.76851   0.77587   0.79284
 Alpha virt. eigenvalues --    0.80558   0.80862   0.82711   0.83266   0.83344
 Alpha virt. eigenvalues --    0.84281   0.86047   0.86347   0.87878   0.89198
 Alpha virt. eigenvalues --    0.91574   0.92182   0.94090   0.95541   0.97323
 Alpha virt. eigenvalues --    1.01777   1.02406   1.02863   1.04140   1.06131
 Alpha virt. eigenvalues --    1.06856   1.07285   1.08025   1.08391   1.09562
 Alpha virt. eigenvalues --    1.09947   1.11628   1.12299   1.12712   1.14341
 Alpha virt. eigenvalues --    1.15236   1.18883   1.21474   1.22431   1.23762
 Alpha virt. eigenvalues --    1.24430   1.25381   1.28164   1.28449   1.29559
 Alpha virt. eigenvalues --    1.30896   1.31916   1.35035   1.36152   1.39185
 Alpha virt. eigenvalues --    1.40991   1.43850   1.48785   1.50859   1.51608
 Alpha virt. eigenvalues --    1.54112   1.54999   1.57197   1.57933   1.59155
 Alpha virt. eigenvalues --    1.60872   1.62734   1.63910   1.63971   1.68249
 Alpha virt. eigenvalues --    1.69008   1.71127   1.72310   1.73644   1.76549
 Alpha virt. eigenvalues --    1.81388   1.82232   1.86900   1.87050   1.92127
 Alpha virt. eigenvalues --    1.94702   2.00670   2.05327   2.07465   2.10834
 Alpha virt. eigenvalues --    2.11684   2.12092   2.17815   2.18570   2.18998
 Alpha virt. eigenvalues --    2.21254   2.22236   2.24851   2.24926   2.27216
 Alpha virt. eigenvalues --    2.28339   2.29763   2.32860   2.36003   2.41274
 Alpha virt. eigenvalues --    2.44717   2.48215   2.48443   2.49202   2.50832
 Alpha virt. eigenvalues --    2.52724   2.53875   2.55085   2.56069   2.57120
 Alpha virt. eigenvalues --    2.57130   2.61879   2.65687   2.68398   2.73696
 Alpha virt. eigenvalues --    2.74166   2.75057   2.77310   2.77938   2.87492
 Alpha virt. eigenvalues --    2.89097   2.92330   2.92384   2.96448   2.98364
 Alpha virt. eigenvalues --    3.01338   3.03621   3.09336   3.12827   3.15635
 Alpha virt. eigenvalues --    3.17947   3.22476   3.27484   3.30142   3.32908
 Alpha virt. eigenvalues --    3.34612   3.48976   3.51011   3.61520   3.65524
 Alpha virt. eigenvalues --    9.97001
          Condensed to atoms (all electrons):
               1          2          3          4          5          6
     1  C    4.915572   0.502675  -0.072493  -0.096032   0.585231   0.001683
     2  C    0.502675   4.839092   0.588812  -0.076946  -0.066927  -0.019028
     3  C   -0.072493   0.588812   5.542465   0.282878  -0.068950   0.344823
     4  S   -0.096032  -0.076946   0.282878  15.275311   0.338591  -0.033654
     5  C    0.585231  -0.066927  -0.068950   0.338591   5.279598   0.001994
     6  C    0.001683  -0.019028   0.344823  -0.033654   0.001994   3.996101
     7  O    0.000508   0.004270  -0.094293   0.001538  -0.000049   0.647170
     8  N   -0.000046   0.003591  -0.118298   0.002330   0.000004   0.233464
     9  N    0.000000  -0.000034   0.004567   0.000088  -0.000001  -0.044144
    10  C    0.000000   0.000001  -0.000149  -0.000053   0.000000   0.004726
    11  C    0.000000   0.000000   0.000000   0.000000   0.000000  -0.000033
    12  C    0.000000   0.000000   0.000000   0.000000   0.000000   0.000000
    13  C    0.000000   0.000000   0.000000   0.000000   0.000000   0.000000
    14  C    0.000000   0.000000   0.000000   0.000000   0.000000   0.000000
    15  O    0.000000   0.000000   0.000000   0.000000   0.000000  -0.000001
    16  I    0.000000   0.000000   0.000000   0.000000   0.000000   0.000000
    17  H    0.380357  -0.025025   0.003130   0.003410  -0.029408  -0.000035
    18  H   -0.026034   0.376871  -0.028979   0.003328   0.003314  -0.001537
    19  H   -0.013785   0.001110   0.002452  -0.026482   0.375099  -0.000015
    20  H    0.000013  -0.000208   0.003249   0.004655  -0.000049  -0.024731
    21  H    0.000000   0.000000   0.000035  -0.000029   0.000000  -0.000453
    22  H    0.000000   0.000000   0.000000   0.000000   0.000000   0.000000
    23  H    0.000000   0.000000   0.000000   0.000000   0.000000   0.000000
               7          8          9         10         11         12
     1  C    0.000508  -0.000046   0.000000   0.000000   0.000000   0.000000
     2  C    0.004270   0.003591  -0.000034   0.000001   0.000000   0.000000
     3  C   -0.094293  -0.118298   0.004567  -0.000149   0.000000   0.000000
     4  S    0.001538   0.002330   0.000088  -0.000053   0.000000   0.000000
     5  C   -0.000049   0.000004  -0.000001   0.000000   0.000000   0.000000
     6  C    0.647170   0.233464  -0.044144   0.004726  -0.000033   0.000000
     7  O    8.114824  -0.093155   0.004563   0.000504  -0.000009   0.000000
     8  N   -0.093155   7.303577   0.183650  -0.102054   0.005360  -0.000050
     9  N    0.004563   0.183650   6.597558   0.552091  -0.062736   0.002132
    10  C    0.000504  -0.102054   0.552091   4.831257   0.411427  -0.057888
    11  C   -0.000009   0.005360  -0.062736   0.411427   4.627672   0.600339
    12  C    0.000000  -0.000050   0.002132  -0.057888   0.600339   5.058442
    13  C    0.000000   0.000002  -0.000150   0.005454  -0.042239   0.439464
    14  C    0.000000  -0.000003   0.000314  -0.000444  -0.141589  -0.048161
    15  O    0.000000  -0.000025  -0.002270  -0.032297   0.296831  -0.090299
    16  I    0.000000   0.000000  -0.000027   0.000153   0.005991  -0.000380
    17  H    0.000000   0.000000   0.000000   0.000000   0.000000   0.000000
    18  H    0.005472   0.000220   0.000000   0.000000   0.000000   0.000000
    19  H    0.000000   0.000001   0.000000   0.000000   0.000000   0.000000
    20  H    0.001639   0.302193  -0.021200  -0.004385  -0.000992   0.000007
    21  H   -0.000006  -0.008875  -0.037807   0.379659  -0.053054   0.002311
    22  H    0.000000   0.000000  -0.000002   0.000973  -0.023481   0.372097
    23  H    0.000000   0.000000   0.000000  -0.000028   0.003251  -0.020857
              13         14         15         16         17         18
     1  C    0.000000   0.000000   0.000000   0.000000   0.380357  -0.026034
     2  C    0.000000   0.000000   0.000000   0.000000  -0.025025   0.376871
     3  C    0.000000   0.000000   0.000000   0.000000   0.003130  -0.028979
     4  S    0.000000   0.000000   0.000000   0.000000   0.003410   0.003328
     5  C    0.000000   0.000000   0.000000   0.000000  -0.029408   0.003314
     6  C    0.000000   0.000000  -0.000001   0.000000  -0.000035  -0.001537
     7  O    0.000000   0.000000   0.000000   0.000000   0.000000   0.005472
     8  N    0.000002  -0.000003  -0.000025   0.000000   0.000000   0.000220
     9  N   -0.000150   0.000314  -0.002270  -0.000027   0.000000   0.000000
    10  C    0.005454  -0.000444  -0.032297   0.000153   0.000000   0.000000
    11  C   -0.042239  -0.141589   0.296831   0.005991   0.000000   0.000000
    12  C    0.439464  -0.048161  -0.090299  -0.000380   0.000000   0.000000
    13  C    4.998355   0.598219  -0.063397  -0.042669   0.000000   0.000000
    14  C    0.598219   5.131676   0.276184   0.230556   0.000000   0.000000
    15  O   -0.063397   0.276184   8.223666  -0.040483   0.000000   0.000000
    16  I   -0.042669   0.230556  -0.040483   6.548929   0.000000   0.000000
    17  H    0.000000   0.000000   0.000000   0.000000   0.441036  -0.000254
    18  H    0.000000   0.000000   0.000000   0.000000  -0.000254   0.403848
    19  H    0.000000   0.000000   0.000000   0.000000  -0.000624  -0.000049
    20  H    0.000000   0.000000   0.000002   0.000000   0.000000  -0.000010
    21  H    0.000120  -0.000185   0.001905   0.000007   0.000000   0.000000
    22  H   -0.021679   0.004222   0.002243  -0.000096   0.000000   0.000000
    23  H    0.374166  -0.022272   0.002185   0.001635   0.000000   0.000000
              19         20         21         22         23
     1  C   -0.013785   0.000013   0.000000   0.000000   0.000000
     2  C    0.001110  -0.000208   0.000000   0.000000   0.000000
     3  C    0.002452   0.003249   0.000035   0.000000   0.000000
     4  S   -0.026482   0.004655  -0.000029   0.000000   0.000000
     5  C    0.375099  -0.000049   0.000000   0.000000   0.000000
     6  C   -0.000015  -0.024731  -0.000453   0.000000   0.000000
     7  O    0.000000   0.001639  -0.000006   0.000000   0.000000
     8  N    0.000001   0.302193  -0.008875   0.000000   0.000000
     9  N    0.000000  -0.021200  -0.037807  -0.000002   0.000000
    10  C    0.000000  -0.004385   0.379659   0.000973  -0.000028
    11  C    0.000000  -0.000992  -0.053054  -0.023481   0.003251
    12  C    0.000000   0.000007   0.002311   0.372097  -0.020857
    13  C    0.000000   0.000000   0.000120  -0.021679   0.374166
    14  C    0.000000   0.000000  -0.000185   0.004222  -0.022272
    15  O    0.000000   0.000002   0.001905   0.002243   0.002185
    16  I    0.000000   0.000000   0.000007  -0.000096   0.001635
    17  H   -0.000624   0.000000   0.000000   0.000000   0.000000
    18  H   -0.000049  -0.000010   0.000000   0.000000   0.000000
    19  H    0.412806   0.000001   0.000000   0.000000   0.000000
    20  H    0.000001   0.324726   0.012443  -0.000001   0.000000
    21  H    0.000000   0.012443   0.506359   0.000990   0.000000
    22  H    0.000000  -0.000001   0.000990   0.434733  -0.000175
    23  H    0.000000   0.000000   0.000000  -0.000175   0.427031
 Mulliken charges:
               1
     1  C   -0.177650
     2  C   -0.128251
     3  C   -0.389250
     4  S    0.321068
     5  C   -0.418448
     6  C    0.893670
     7  O   -0.592977
     8  N   -0.711885
     9  N   -0.176594
    10  C    0.011053
    11  C    0.373262
    12  C   -0.257157
    13  C   -0.245645
    14  C   -0.028516
    15  O   -0.574244
    16  I    0.296385
    17  H    0.227413
    18  H    0.263810
    19  H    0.249486
    20  H    0.402648
    21  H    0.196580
    22  H    0.230176
    23  H    0.235065
 Sum of Mulliken charges =   0.00000
 Mulliken charges with hydrogens summed into heavy atoms:
               1
     1  C    0.049763
     2  C    0.135558
     3  C   -0.389250
     4  S    0.321068
     5  C   -0.168962
     6  C    0.893670
     7  O   -0.592977
     8  N   -0.309237
     9  N   -0.176594
    10  C    0.207634
    11  C    0.373262
    12  C   -0.026981
    13  C   -0.010580
    14  C   -0.028516
    15  O   -0.574244
    16  I    0.296385
 DipInt: DoE/N= T F RetVal/Mat= T F Init=T NMatP=  1 IDeriv=0 Min/MaxMlt=  0  4
 Entering OneElI...
 OneElI was handed   235765888 working-precision words.
 Multipole integrals L=0 to 4 MinM= 0 MaxM= 0.
 Requested accuracy = 0.1000D-12
 PrtBox:  NBox=     1 Levels=  1 BoxLen=   45.18 SMaxX=       23.44
          Shift=            8.619381            4.944064            0.002037
 Box      1 Number                   0 centers from      1 to     79:
 ShPair: Thresh= 1.00D-13 NBox=     1 BxSize= 4.52D+01 RnKept= 2.36D+01
         NSMCal=                 3160 NSMKep=                2300
 PrsmSu:  NPrtUS=   1 ThrOK=F IAlg=1 NPAlg=1 LenDen=           0.
 Prism:   IPart=     0 DynPar=F LinDyn=F Incr=          23.
 PRISM was handed   235532822 working-precision words and  2300 shell-pairs
 IPart=  0 NShTot=        2300 NBatch=         110 AvBLen=        20.9
 PrSmSu:  NxtVal=             24.
 Electronic moments (au):
       -120.00000000       -395.38406034        -67.20785270         -0.01200608
      -7199.76631131       -843.95756831        -87.99007830        598.71938276
          0.10574112          0.01820755     -56052.53972440      -1277.12775863
         -0.01328739      -1092.77550620       1250.73962977          1.14708647
       -164.43647615        -35.14443634         -0.30236166          0.90809630
    -824108.20441036     -14864.47427824       -369.91320372      33770.16225165
         17.88343989      12292.27870548         -0.15451537          0.15417114
          0.01219972     -39941.57647451      -5711.93980346       -643.01241648
          6.43045697         -0.17696789        257.97323585
 Electronic spatial extent (au):  <R**2>=           8131.7140
 DipInt: DoE/N= F T RetVal/Mat= T F Init=T NMatP=  1 IDeriv=0 Min/MaxMlt=  0  4
 Nuclear    moments (au):
        120.00000000        396.49153437         69.35530632          0.01226252
       7146.00849424        767.16965364          0.00004324       -597.79982213
         -0.10593741         -0.01855987      55941.70551252       1236.31113370
          0.00000000        937.29189617      -1293.67768885         -1.16343926
          0.00035486          0.00000919          0.30973117         -0.93938362
     799544.47443778      11958.54730950          0.00000000     -33245.05947813
        -18.22542495     -11733.88409754          0.15534208         -0.00000016
         -0.00000007      34876.03786018          0.00465949          0.00032886
         -6.72473909          0.28765954         -0.00023080
 Total      moments (au):
          0.00000000          1.10747402          2.14745362          0.00025644
        -53.75781707        -76.78791466        -87.99003506          0.91956062
         -0.00019629         -0.00035231       -110.83421187        -40.81662493
         -0.01328739       -155.48361003        -42.93805907         -0.01635279
       -164.43612130        -35.14442715          0.00736952         -0.03128732
     -24563.72997258      -2905.92696874       -369.91320372        525.10277352
         -0.34198507        558.39460795          0.00082671          0.15417098
          0.01219965      -5065.53861433      -5711.93514397       -643.01208762
         -0.29428212          0.11069165        257.97300505
 Traceless Quadrup. (au):
         19.08743853         -3.94265907        -15.14477946          0.91956062
         -0.00019629         -0.00035231
 Charge=              0.0000 electrons
 Dipole moment (field-independent basis, Debye):
    X=              2.8149    Y=              5.4583    Z=              0.0007  Tot=              6.1414
 Quadrupole moment (field-independent basis, Debye-Ang):
   XX=            -72.3061   YY=           -103.2824   ZZ=           -118.3496
   XY=              1.2368   XZ=             -0.0003   YZ=             -0.0005
 Traceless Quadrupole moment (field-independent basis, Debye-Ang):
   XX=             25.6733   YY=             -5.3030   ZZ=            -20.3702
   XY=              1.2368   XZ=             -0.0003   YZ=             -0.0005
 Octapole moment (field-independent basis, Debye-Ang**2):
  XXX=            -78.8875  YYY=            -29.0517  ZZZ=             -0.0095  XYY=           -110.6672
  XXY=            -30.5617  XXZ=             -0.0116  XZZ=           -117.0393  YZZ=            -25.0144
  YYZ=              0.0052  XYZ=             -0.0223
 Hexadecapole moment (field-independent basis, Debye-Ang**3):
 XXXX=          -9251.8780 YYYY=          -1094.5114 ZZZZ=           -139.3270 XXXY=            197.7789
 XXXZ=             -0.1288 YYYX=            210.3182 YYYZ=              0.0003 ZZZX=              0.0581
 ZZZY=              0.0046 XXYY=          -1907.9246 XXZZ=          -2151.3885 YYZZ=           -242.1892
 XXYZ=             -0.1108 YYXZ=              0.0417 ZZXY=             97.1650
 N-N= 1.026109763448D+03 E-N=-4.521182022661D+03  KE= 1.040971476681D+03
 Entering OneElI...
 OneElI was handed   235804008 working-precision words.
 Calculate electrostatic properties
    NBasis =   236  MinDer = 0  MaxDer = 0
    NGrid  =    23  NMatD  =   1
 Requested accuracy = 0.1000D-12
 PrtBox:  NBox=     1 Levels=  1 BoxLen=   37.65 SMaxX=       23.44
          Shift=            8.619381            4.944064            0.002037
 Box      1 Number                   0 centers from      1 to     79:
 ShPair: Thresh= 1.00D-13 NBox=     1 BxSize= 3.77D+01 RnKept= 1.91D+01
         NSMCal=                 3160 NSMKep=                2050
 PrsmSu:  NPrtUS=   1 ThrOK=F IAlg=1 NPAlg=1 LenDen=           0.
 Prism:   IPart=     0 DynPar=F LinDyn=F Incr=         471.
 PRISM was handed   235590078 working-precision words and  2050 shell-pairs
 IPart=  0 NShTot=       47150 NBatch=        2051 AvBLen=        23.0
 PrSmSu:  NxtVal=            472.
 --------------------------------------------------------
       Center         ----      EFG at Nuclei      ----
                      3XX-RR        3YY-RR        3ZZ-RR
 --------------------------------------------------------
     1   Atom        0.131586      0.119318     -0.250903
     2   Atom        0.174805      0.202105     -0.376909
     3   Atom        0.115002     -0.074182     -0.040820
     4   Atom       -1.710270     -0.028268      1.738538
     5   Atom       -0.025748      0.220356     -0.194608
     6   Atom        0.243216      0.234744     -0.477960
     7   Atom        1.343811     -0.592932     -0.750879
     8   Atom       -0.777913     -0.403775      1.181688
     9   Atom       -0.516393      1.141629     -0.625236
    10   Atom        0.136403      0.084321     -0.220724
    11   Atom        0.136049     -0.088838     -0.047212
    12   Atom        0.108696      0.121960     -0.230656
    13   Atom        0.111075      0.073533     -0.184608
    14   Atom       -0.249493      0.202502      0.046991
    15   Atom       -1.324824      0.339602      0.985222
    16   Atom       -0.021066     -0.028868      0.049934
    17   Atom       -0.143172     -0.024982      0.168154
    18   Atom        0.114885     -0.274749      0.159863
    19   Atom       -0.170541     -0.000985      0.171526
    20   Atom        0.033121     -0.268391      0.235270
    21   Atom        0.028638     -0.188781      0.160143
    22   Atom        0.111608     -0.283897      0.172289
    23   Atom       -0.196218      0.023179      0.173039
 --------------------------------------------------------
                        XY            XZ            YZ
 --------------------------------------------------------
     1   Atom       -0.003022     -0.000035     -0.000133
     2   Atom        0.018892     -0.000056     -0.000266
     3   Atom       -0.160837      0.000008     -0.000058
     4   Atom       -0.724743      0.001001     -0.000009
     5   Atom        0.154167     -0.000033     -0.000257
     6   Atom        0.131694     -0.000044     -0.000019
     7   Atom       -0.921145     -0.000180      0.000267
     8   Atom       -0.069168      0.000079     -0.000243
     9   Atom        0.495718      0.000078      0.000078
    10   Atom       -0.003102      0.000011      0.000022
    11   Atom       -0.292088     -0.000023      0.000010
    12   Atom       -0.009049     -0.000013      0.000028
    13   Atom       -0.023160     -0.000005      0.000013
    14   Atom       -0.081401      0.000050      0.000023
    15   Atom       -0.698692     -0.000280     -0.000233
    16   Atom       -0.074651     -0.000008     -0.000010
    17   Atom        0.221687     -0.000060      0.000064
    18   Atom       -0.121060      0.000060      0.000209
    19   Atom       -0.214641      0.000179      0.000125
    20   Atom       -0.198952     -0.000028     -0.000081
    21   Atom       -0.170327     -0.000002     -0.000004
    22   Atom       -0.125271     -0.000002     -0.000008
    23   Atom        0.207822      0.000060     -0.000037
 --------------------------------------------------------


 ---------------------------------------------------------------------------------
              Nuclear Quadrupole Coupling Constant in Principal Axis System
 ---------------------------------------------------------------------------------

       Atom             a.u.   MegaHertz   Gauss  10(-4) cm-1        Axes

              Baa    -0.7903     3.796     1.354     1.266  0.9844  0.1762  0.0000
     8 N(14)  Bbb    -0.3914     1.880     0.671     0.627 -0.1762  0.9844  0.0002
              Bcc     1.1817    -5.675    -2.025    -1.893  0.0000 -0.0002  1.0000
 
              Baa    -0.6533     3.138     1.120     1.047  0.9639 -0.2662 -0.0020
     9 N(14)  Bbb    -0.6252     3.003     1.071     1.002  0.0019 -0.0006  1.0000
              Bcc     1.2785    -6.140    -2.191    -2.048  0.2662  0.9639  0.0001
 
              Baa    -0.0997   -16.636    -5.936    -5.549  0.6884  0.7253  0.0001
    16 I(127) Bbb     0.0498     8.306     2.964     2.770  0.7253 -0.6884 -0.0064
              Bcc     0.0499     8.330     2.972     2.779  0.0046 -0.0045  1.0000
 

 ---------------------------------------------------------------------------------

 No NMR shielding tensors so no spin-rotation constants.
 Leave Link  601 at Fri Jan 17 11:57:03 2014, MaxMem=   235929600 cpu:         0.3
 FitSet:  NAtFit=    23 NAtPot=    23 NAtFrz=     0 MDM=    27 TotChg=   0.00000
 Merz-Kollman atomic radii used.
 Read replacement radii for each type of atom:
 Rad(53) =   2.700000000000D+00
 Atom Element Radius
    1     6    1.50
    2     6    1.50
    3     6    1.50
    4    16    1.75
    5     6    1.50
    6     6    1.50
    7     8    1.40
    8     7    1.50
    9     7    1.50
   10     6    1.50
   11     6    1.50
   12     6    1.50
   13     6    1.50
   14     6    1.50
   15     8    1.40
   16    53    2.70
   17     1    1.20
   18     1    1.20
   19     1    1.20
   20     1    1.20
   21     1    1.20
   22     1    1.20
   23     1    1.20
 Generate VDW surfaces: Layer= 5 Dens= 2 Start= 1.400 Inc= 0.179

 **********************************************************************

            Electrostatic Properties Using The SCF Density

 **********************************************************************

       Atomic Center    1 is at   6.840404 -1.130648  0.000182
       Atomic Center    2 is at   5.490979 -1.579528  0.000546
       Atomic Center    3 is at   4.574269 -0.555476  0.000036
       Atomic Center    4 is at   5.390167  0.996184 -0.000393
       Atomic Center    5 is at   6.945570  0.235168 -0.000591
       Atomic Center    6 is at   3.104834 -0.776779  0.000072
       Atomic Center    7 is at   2.628339 -1.897413  0.000199
       Atomic Center    8 is at   2.333792  0.381737  0.000147
       Atomic Center    9 is at   0.982764  0.316127  0.000215
       Atomic Center   10 is at   0.348723  1.435902  0.000318
       Atomic Center   11 is at  -1.089525  1.513907  0.000230
       Atomic Center   12 is at  -1.932071  2.599424  0.000137
       Atomic Center   13 is at  -3.263997  2.088607  0.000337
       Atomic Center   14 is at  -3.129904  0.729375  0.000042
       Atomic Center   15 is at  -1.827786  0.357877  0.000023
       Atomic Center   16 is at  -4.561180 -0.797853 -0.000141
       Atomic Center   17 is at   7.698990 -1.792939  0.000381
       Atomic Center   18 is at   5.176861 -2.616286  0.001043
       Atomic Center   19 is at   7.841571  0.841689 -0.001078
       Atomic Center   20 is at   2.784912  1.295933  0.000296
       Atomic Center   21 is at   0.864107  2.406233  0.000321
       Atomic Center   22 is at  -1.633368  3.638911  0.000152
       Atomic Center   23 is at  -4.189198  2.645270  0.000493
      ESP Fit Center   24 is at   6.840404 -1.130648  2.100182
      ESP Fit Center   25 is at   7.558646 -1.130648  1.973536
      ESP Fit Center   26 is at   7.199525 -0.508632  1.973536
      ESP Fit Center   27 is at   6.481283 -0.508632  1.973536
      ESP Fit Center   28 is at   6.122162 -1.130648  1.973536
      ESP Fit Center   29 is at   6.481283 -1.752664  1.973536
      ESP Fit Center   30 is at   7.199525 -1.752664  1.973536
      ESP Fit Center   31 is at   8.190258 -1.130648  1.608875
      ESP Fit Center   32 is at   6.648300 -2.466762  1.608875
      ESP Fit Center   33 is at   7.401154 -2.358518  1.608875
      ESP Fit Center   34 is at   8.190258 -1.130648 -1.608511
      ESP Fit Center   35 is at   6.648300 -2.466762 -1.608511
      ESP Fit Center   36 is at   7.401154 -2.358518 -1.608511
      ESP Fit Center   37 is at   7.558646 -1.130648 -1.973173
      ESP Fit Center   38 is at   7.199525 -0.508632 -1.973173
      ESP Fit Center   39 is at   6.481283 -0.508632 -1.973173
      ESP Fit Center   40 is at   6.122162 -1.130648 -1.973173
      ESP Fit Center   41 is at   6.481283 -1.752664 -1.973173
      ESP Fit Center   42 is at   7.199525 -1.752664 -1.973173
      ESP Fit Center   43 is at   6.840404 -1.130648 -2.099818
      ESP Fit Center   44 is at   5.490979 -1.579528  2.100546
      ESP Fit Center   45 is at   6.209221 -1.579528  1.973900
      ESP Fit Center   46 is at   5.850100 -0.957512  1.973900
      ESP Fit Center   47 is at   4.772737 -1.579528  1.973900
      ESP Fit Center   48 is at   5.131858 -2.201544  1.973900
      ESP Fit Center   49 is at   5.850100 -2.201544  1.973900
      ESP Fit Center   50 is at   4.195804 -1.959826  1.609239
      ESP Fit Center   51 is at   4.607013 -2.599680  1.609239
      ESP Fit Center   52 is at   6.051729 -2.807398  1.609239
      ESP Fit Center   53 is at   4.195804 -1.959826 -1.608147
      ESP Fit Center   54 is at   4.607013 -2.599680 -1.608147
      ESP Fit Center   55 is at   6.051729 -2.807398 -1.608147
      ESP Fit Center   56 is at   6.209221 -1.579528 -1.972809
      ESP Fit Center   57 is at   5.850100 -0.957512 -1.972809
      ESP Fit Center   58 is at   4.772737 -1.579528 -1.972809
      ESP Fit Center   59 is at   5.131858 -2.201544 -1.972809
      ESP Fit Center   60 is at   5.850100 -2.201544 -1.972809
      ESP Fit Center   61 is at   5.490979 -1.579528 -2.099454
      ESP Fit Center   62 is at   4.574269 -0.555476  2.100036
      ESP Fit Center   63 is at   5.292511 -0.555476  1.973390
      ESP Fit Center   64 is at   4.215148  0.066540  1.973390
      ESP Fit Center   65 is at   3.856027 -0.555476  1.973390
      ESP Fit Center   66 is at   4.215148 -1.177492  1.973390
      ESP Fit Center   67 is at   5.292511 -0.555476 -1.973319
      ESP Fit Center   68 is at   4.215148  0.066540 -1.973319
      ESP Fit Center   69 is at   3.856027 -0.555476 -1.973319
      ESP Fit Center   70 is at   4.215148 -1.177492 -1.973319
      ESP Fit Center   71 is at   4.574269 -0.555476 -2.099964
      ESP Fit Center   72 is at   5.390167  0.996184  2.449607
      ESP Fit Center   73 is at   6.147259  0.996184  2.329695
      ESP Fit Center   74 is at   5.768713  1.651845  2.329695
      ESP Fit Center   75 is at   5.011621  1.651845  2.329695
      ESP Fit Center   76 is at   4.633075  0.996184  2.329695
      ESP Fit Center   77 is at   5.011621  0.340523  2.329695
      ESP Fit Center   78 is at   5.768713  0.340523  2.329695
      ESP Fit Center   79 is at   6.830241  0.996184  1.981699
      ESP Fit Center   80 is at   6.637307  1.716221  1.981699
      ESP Fit Center   81 is at   6.110204  2.243325  1.981699
      ESP Fit Center   82 is at   5.390167  2.436258  1.981699
      ESP Fit Center   83 is at   4.670130  2.243325  1.981699
      ESP Fit Center   84 is at   4.143026  1.716221  1.981699
      ESP Fit Center   85 is at   3.950093  0.996184  1.981699
      ESP Fit Center   86 is at   4.143026  0.276147  1.981699
      ESP Fit Center   87 is at   5.390167 -0.443890  1.981699
      ESP Fit Center   88 is at   6.110204 -0.250957  1.981699
      ESP Fit Center   89 is at   7.221381  1.754698  1.439681
      ESP Fit Center   90 is at   6.791717  2.397734  1.439681
      ESP Fit Center   91 is at   6.148681  2.827398  1.439681
      ESP Fit Center   92 is at   5.390167  2.978276  1.439681
      ESP Fit Center   93 is at   4.631653  2.827398  1.439681
      ESP Fit Center   94 is at   3.988616  2.397734  1.439681
      ESP Fit Center   95 is at   3.558953  1.754698  1.439681
      ESP Fit Center   96 is at   7.228934  2.427354  0.756699
      ESP Fit Center   97 is at   6.664604  2.946856  0.756699
      ESP Fit Center   98 is at   5.962170  3.254972  0.756699
      ESP Fit Center   99 is at   5.197750  3.318314  0.756699
      ESP Fit Center  100 is at   4.454181  3.130017  0.756699
      ESP Fit Center  101 is at   3.812041  2.710486  0.756699
      ESP Fit Center  102 is at   6.917717  2.911671 -0.000393
      ESP Fit Center  103 is at   6.285252  3.276825 -0.000393
      ESP Fit Center  104 is at   5.573256  3.439333 -0.000393
      ESP Fit Center  105 is at   4.844991  3.384757 -0.000393
      ESP Fit Center  106 is at   4.165167  3.117946 -0.000393
      ESP Fit Center  107 is at   7.228934  2.427354 -0.757485
      ESP Fit Center  108 is at   6.664604  2.946856 -0.757485
      ESP Fit Center  109 is at   5.962170  3.254972 -0.757485
      ESP Fit Center  110 is at   5.197750  3.318314 -0.757485
      ESP Fit Center  111 is at   4.454181  3.130017 -0.757485
      ESP Fit Center  112 is at   3.812041  2.710486 -0.757485
      ESP Fit Center  113 is at   7.221381  1.754698 -1.440467
      ESP Fit Center  114 is at   6.791717  2.397734 -1.440467
      ESP Fit Center  115 is at   6.148681  2.827398 -1.440467
      ESP Fit Center  116 is at   5.390167  2.978276 -1.440467
      ESP Fit Center  117 is at   4.631653  2.827398 -1.440467
      ESP Fit Center  118 is at   3.988616  2.397734 -1.440467
      ESP Fit Center  119 is at   3.558953  1.754698 -1.440467
      ESP Fit Center  120 is at   6.830241  0.996184 -1.982485
      ESP Fit Center  121 is at   6.637307  1.716221 -1.982485
      ESP Fit Center  122 is at   6.110204  2.243325 -1.982485
      ESP Fit Center  123 is at   5.390167  2.436258 -1.982485
      ESP Fit Center  124 is at   4.670130  2.243325 -1.982485
      ESP Fit Center  125 is at   4.143026  1.716221 -1.982485
      ESP Fit Center  126 is at   3.950093  0.996184 -1.982485
      ESP Fit Center  127 is at   4.143026  0.276147 -1.982485
      ESP Fit Center  128 is at   5.390167 -0.443890 -1.982485
      ESP Fit Center  129 is at   6.110204 -0.250957 -1.982485
      ESP Fit Center  130 is at   6.147259  0.996184 -2.330482
      ESP Fit Center  131 is at   5.768713  1.651845 -2.330482
      ESP Fit Center  132 is at   5.011621  1.651845 -2.330482
      ESP Fit Center  133 is at   4.633075  0.996184 -2.330482
      ESP Fit Center  134 is at   5.011621  0.340523 -2.330482
      ESP Fit Center  135 is at   5.768713  0.340523 -2.330482
      ESP Fit Center  136 is at   5.390167  0.996184 -2.450393
      ESP Fit Center  137 is at   6.945570  0.235168  2.099409
      ESP Fit Center  138 is at   7.663812  0.235168  1.972763
      ESP Fit Center  139 is at   7.304691  0.857184  1.972763
      ESP Fit Center  140 is at   6.586449 -0.386848  1.972763
      ESP Fit Center  141 is at   7.304691 -0.386848  1.972763
      ESP Fit Center  142 is at   8.295424  0.235168  1.608102
      ESP Fit Center  143 is at   7.506320  1.463038  1.608102
      ESP Fit Center  144 is at   8.081139 -0.494618  1.608102
      ESP Fit Center  145 is at   8.606992 -0.504545  1.049409
      ESP Fit Center  146 is at   8.874012 -0.511915  0.364070
      ESP Fit Center  147 is at   8.874012 -0.511915 -0.365252
      ESP Fit Center  148 is at   8.606992 -0.504545 -1.050591
      ESP Fit Center  149 is at   8.295424  0.235168 -1.609284
      ESP Fit Center  150 is at   7.506320  1.463038 -1.609284
      ESP Fit Center  151 is at   8.081139 -0.494618 -1.609284
      ESP Fit Center  152 is at   7.663812  0.235168 -1.973946
      ESP Fit Center  153 is at   7.304691  0.857184 -1.973946
      ESP Fit Center  154 is at   6.586449 -0.386848 -1.973946
      ESP Fit Center  155 is at   7.304691 -0.386848 -1.973946
      ESP Fit Center  156 is at   6.945570  0.235168 -2.100591
      ESP Fit Center  157 is at   3.104834 -0.776779  2.100072
      ESP Fit Center  158 is at   3.823076 -0.776779  1.973426
      ESP Fit Center  159 is at   3.463955 -0.154763  1.973426
      ESP Fit Center  160 is at   2.386592 -0.776779  1.973426
      ESP Fit Center  161 is at   2.745713 -1.398795  1.973426
      ESP Fit Center  162 is at   3.463955 -1.398795  1.973426
      ESP Fit Center  163 is at   3.823076 -0.776779 -1.973283
      ESP Fit Center  164 is at   3.463955 -0.154763 -1.973283
      ESP Fit Center  165 is at   2.386592 -0.776779 -1.973283
      ESP Fit Center  166 is at   2.745713 -1.398795 -1.973283
      ESP Fit Center  167 is at   3.463955 -1.398795 -1.973283
      ESP Fit Center  168 is at   3.104834 -0.776779 -2.099928
      ESP Fit Center  169 is at   2.628339 -1.897413  1.960199
      ESP Fit Center  170 is at   3.378398 -1.897413  1.811003
      ESP Fit Center  171 is at   1.878279 -1.897413  1.811003
      ESP Fit Center  172 is at   2.253309 -2.546984  1.811003
      ESP Fit Center  173 is at   3.003369 -2.546984  1.811003
      ESP Fit Center  174 is at   1.428089 -1.204448  1.386128
      ESP Fit Center  175 is at   1.242410 -1.897413  1.386128
      ESP Fit Center  176 is at   1.428089 -2.590378  1.386128
      ESP Fit Center  177 is at   1.935374 -3.097663  1.386128
      ESP Fit Center  178 is at   2.628339 -3.283342  1.386128
      ESP Fit Center  179 is at   3.321304 -3.097663  1.386128
      ESP Fit Center  180 is at   3.828589 -2.590378  1.386128
      ESP Fit Center  181 is at   0.857105 -2.273900  0.750258
      ESP Fit Center  182 is at   1.163368 -2.961777  0.750258
      ESP Fit Center  183 is at   1.722937 -3.465615  0.750258
      ESP Fit Center  184 is at   2.439058 -3.698297  0.750258
      ESP Fit Center  185 is at   3.187908 -3.619590  0.750258
      ESP Fit Center  186 is at   0.701712 -2.257562  0.000199
      ESP Fit Center  187 is at   0.961913 -2.929220  0.000199
      ESP Fit Center  188 is at   1.447175 -3.461527  0.000199
      ESP Fit Center  189 is at   2.091959 -3.782591  0.000199
      ESP Fit Center  190 is at   2.809185 -3.849052  0.000199
      ESP Fit Center  191 is at   3.501986 -3.651933  0.000199
      ESP Fit Center  192 is at   0.857105 -2.273900 -0.749861
      ESP Fit Center  193 is at   1.163368 -2.961777 -0.749861
      ESP Fit Center  194 is at   1.722937 -3.465615 -0.749861
      ESP Fit Center  195 is at   2.439058 -3.698297 -0.749861
      ESP Fit Center  196 is at   3.187908 -3.619590 -0.749861
      ESP Fit Center  197 is at   1.428089 -1.204448 -1.385730
      ESP Fit Center  198 is at   1.242410 -1.897413 -1.385730
      ESP Fit Center  199 is at   1.428089 -2.590378 -1.385730
      ESP Fit Center  200 is at   1.935374 -3.097663 -1.385730
      ESP Fit Center  201 is at   2.628339 -3.283342 -1.385730
      ESP Fit Center  202 is at   3.321304 -3.097663 -1.385730
      ESP Fit Center  203 is at   3.828589 -2.590378 -1.385730
      ESP Fit Center  204 is at   3.378398 -1.897413 -1.810605
      ESP Fit Center  205 is at   1.878279 -1.897413 -1.810605
      ESP Fit Center  206 is at   2.253309 -2.546984 -1.810605
      ESP Fit Center  207 is at   3.003369 -2.546984 -1.810605
      ESP Fit Center  208 is at   2.628339 -1.897413 -1.959801
      ESP Fit Center  209 is at   2.333792  0.381737  2.100147
      ESP Fit Center  210 is at   3.052034  0.381737  1.973501
      ESP Fit Center  211 is at   2.692913  1.003753  1.973501
      ESP Fit Center  212 is at   1.974671  1.003753  1.973501
      ESP Fit Center  213 is at   1.974671 -0.240279  1.973501
      ESP Fit Center  214 is at   3.469361  1.111523  1.608840
      ESP Fit Center  215 is at   2.141688  1.717851  1.608840
      ESP Fit Center  216 is at   3.469361  1.111523 -1.608546
      ESP Fit Center  217 is at   2.141688  1.717851 -1.608546
      ESP Fit Center  218 is at   3.052034  0.381737 -1.973208
      ESP Fit Center  219 is at   2.692913  1.003753 -1.973208
      ESP Fit Center  220 is at   1.974671  1.003753 -1.973208
      ESP Fit Center  221 is at   1.974671 -0.240279 -1.973208
      ESP Fit Center  222 is at   2.333792  0.381737 -2.099853
      ESP Fit Center  223 is at   0.982764  0.316127  2.100215
      ESP Fit Center  224 is at   1.341885  0.938143  1.973569
      ESP Fit Center  225 is at   0.264522  0.316127  1.973569
      ESP Fit Center  226 is at   0.623643 -0.305889  1.973569
      ESP Fit Center  227 is at   1.341885 -0.305889  1.973569
      ESP Fit Center  228 is at  -0.312412 -0.064171  1.608908
      ESP Fit Center  229 is at   0.098798 -0.704025  1.608908
      ESP Fit Center  230 is at   0.790660 -1.019988  1.608908
      ESP Fit Center  231 is at   1.543514 -0.911743  1.608908
      ESP Fit Center  232 is at  -0.488558 -0.752851  1.050215
      ESP Fit Center  233 is at   0.073437 -1.258873  1.050215
      ESP Fit Center  234 is at   0.792663 -1.492564  1.050215
      ESP Fit Center  235 is at  -0.263543 -1.334250  0.364876
      ESP Fit Center  236 is at   0.416802 -1.673021  0.364876
      ESP Fit Center  237 is at  -0.263543 -1.334250 -0.364446
      ESP Fit Center  238 is at   0.416802 -1.673021 -0.364446
      ESP Fit Center  239 is at  -0.488558 -0.752851 -1.049785
      ESP Fit Center  240 is at   0.073437 -1.258873 -1.049785
      ESP Fit Center  241 is at   0.792663 -1.492564 -1.049785
      ESP Fit Center  242 is at  -0.312412 -0.064171 -1.608478
      ESP Fit Center  243 is at   0.098798 -0.704025 -1.608478
      ESP Fit Center  244 is at   0.790660 -1.019988 -1.608478
      ESP Fit Center  245 is at   1.543514 -0.911743 -1.608478
      ESP Fit Center  246 is at   1.341885  0.938143 -1.973140
      ESP Fit Center  247 is at   0.264522  0.316127 -1.973140
      ESP Fit Center  248 is at   0.623643 -0.305889 -1.973140
      ESP Fit Center  249 is at   1.341885 -0.305889 -1.973140
      ESP Fit Center  250 is at   0.982764  0.316127 -2.099785
      ESP Fit Center  251 is at   0.348723  1.435902  2.100318
      ESP Fit Center  252 is at   1.066965  1.435902  1.973672
      ESP Fit Center  253 is at   0.707844  2.057918  1.973672
      ESP Fit Center  254 is at  -0.010398  2.057918  1.973672
      ESP Fit Center  255 is at  -0.369519  1.435902  1.973672
      ESP Fit Center  256 is at  -0.010398  0.813886  1.973672
      ESP Fit Center  257 is at   1.484292  2.165688  1.609011
      ESP Fit Center  258 is at   0.156619  2.772016  1.609011
      ESP Fit Center  259 is at   1.484292  2.165688 -1.608375
      ESP Fit Center  260 is at   0.156619  2.772016 -1.608375
      ESP Fit Center  261 is at   1.066965  1.435902 -1.973037
      ESP Fit Center  262 is at   0.707844  2.057918 -1.973037
      ESP Fit Center  263 is at  -0.010398  2.057918 -1.973037
      ESP Fit Center  264 is at  -0.369519  1.435902 -1.973037
      ESP Fit Center  265 is at  -0.010398  0.813886 -1.973037
      ESP Fit Center  266 is at   0.348723  1.435902 -2.099682
      ESP Fit Center  267 is at  -1.089525  1.513907  2.100230
      ESP Fit Center  268 is at  -0.371283  1.513907  1.973584
      ESP Fit Center  269 is at  -0.730404  2.135923  1.973584
      ESP Fit Center  270 is at  -1.807767  1.513907  1.973584
      ESP Fit Center  271 is at  -1.448646  0.891891  1.973584
      ESP Fit Center  272 is at  -0.730404  0.891891  1.973584
      ESP Fit Center  273 is at  -0.528776  2.741777  1.608923
      ESP Fit Center  274 is at  -0.528776  0.286036  1.608923
      ESP Fit Center  275 is at  -0.528776  2.741777 -1.608463
      ESP Fit Center  276 is at  -0.528776  0.286036 -1.608463
      ESP Fit Center  277 is at  -0.371283  1.513907 -1.973125
      ESP Fit Center  278 is at  -0.730404  2.135923 -1.973125
      ESP Fit Center  279 is at  -1.807767  1.513907 -1.973125
      ESP Fit Center  280 is at  -1.448646  0.891891 -1.973125
      ESP Fit Center  281 is at  -0.730404  0.891891 -1.973125
      ESP Fit Center  282 is at  -1.089525  1.513907 -2.099770
      ESP Fit Center  283 is at  -1.932071  2.599424  2.100137
      ESP Fit Center  284 is at  -1.213829  2.599424  1.973491
      ESP Fit Center  285 is at  -1.572950  3.221440  1.973491
      ESP Fit Center  286 is at  -2.291192  3.221440  1.973491
      ESP Fit Center  287 is at  -2.650313  2.599424  1.973491
      ESP Fit Center  288 is at  -2.291192  1.977408  1.973491
      ESP Fit Center  289 is at  -0.796502  3.329210  1.608830
      ESP Fit Center  290 is at  -2.124175  3.935538  1.608830
      ESP Fit Center  291 is at  -2.816038  3.619575  1.608830
      ESP Fit Center  292 is at  -0.270649  3.339137  1.050137
      ESP Fit Center  293 is at  -2.841398  4.174424  1.050137
      ESP Fit Center  294 is at  -3.178378  4.249800  0.364798
      ESP Fit Center  295 is at  -3.178378  4.249800 -0.364524
      ESP Fit Center  296 is at  -0.270649  3.339137 -1.049863
      ESP Fit Center  297 is at  -2.841398  4.174424 -1.049863
      ESP Fit Center  298 is at  -0.796502  3.329210 -1.608556
      ESP Fit Center  299 is at  -2.124175  3.935538 -1.608556
      ESP Fit Center  300 is at  -2.816038  3.619575 -1.608556
      ESP Fit Center  301 is at  -1.213829  2.599424 -1.973218
      ESP Fit Center  302 is at  -1.572950  3.221440 -1.973218
      ESP Fit Center  303 is at  -2.291192  3.221440 -1.973218
      ESP Fit Center  304 is at  -2.650313  2.599424 -1.973218
      ESP Fit Center  305 is at  -2.291192  1.977408 -1.973218
      ESP Fit Center  306 is at  -1.932071  2.599424 -2.099863
      ESP Fit Center  307 is at  -3.263997  2.088607  2.100337
      ESP Fit Center  308 is at  -2.545755  2.088607  1.973691
      ESP Fit Center  309 is at  -2.904876  2.710623  1.973691
      ESP Fit Center  310 is at  -3.623118  2.710623  1.973691
      ESP Fit Center  311 is at  -3.456101  3.424721  1.609030
      ESP Fit Center  312 is at  -3.454098  3.897297  1.050337
      ESP Fit Center  313 is at  -3.454098  3.897297 -1.049663
      ESP Fit Center  314 is at  -3.456101  3.424721 -1.608356
      ESP Fit Center  315 is at  -2.545755  2.088607 -1.973018
      ESP Fit Center  316 is at  -2.904876  2.710623 -1.973018
      ESP Fit Center  317 is at  -3.623118  2.710623 -1.973018
      ESP Fit Center  318 is at  -3.263997  2.088607 -2.099663
      ESP Fit Center  319 is at  -1.077727  0.357877  1.810827
      ESP Fit Center  320 is at  -0.627536 -0.335088  1.385952
      ESP Fit Center  321 is at  -0.616122 -0.987813  0.750082
      ESP Fit Center  322 is at  -0.616122 -0.987813 -0.750037
      ESP Fit Center  323 is at  -0.627536 -0.335088 -1.385906
      ESP Fit Center  324 is at  -1.077727  0.357877 -1.810781
      ESP Fit Center  325 is at  -4.561180 -0.797853  3.779859
      ESP Fit Center  326 is at  -3.823739 -0.797853  3.707227
      ESP Fit Center  327 is at  -4.192459 -0.159210  3.707227
      ESP Fit Center  328 is at  -4.929901 -0.159210  3.707227
      ESP Fit Center  329 is at  -5.298621 -0.797853  3.707227
      ESP Fit Center  330 is at  -4.929901 -1.436496  3.707227
      ESP Fit Center  331 is at  -4.192459 -1.436496  3.707227
      ESP Fit Center  332 is at  -3.114637 -0.797853  3.492124
      ESP Fit Center  333 is at  -3.308437 -0.074582  3.492124
      ESP Fit Center  334 is at  -3.837908  0.454890  3.492124
      ESP Fit Center  335 is at  -4.561180  0.648690  3.492124
      ESP Fit Center  336 is at  -5.284452  0.454890  3.492124
      ESP Fit Center  337 is at  -5.813923 -0.074582  3.492124
      ESP Fit Center  338 is at  -6.007723 -0.797853  3.492124
      ESP Fit Center  339 is at  -5.813923 -1.521125  3.492124
      ESP Fit Center  340 is at  -5.284452 -2.050597  3.492124
      ESP Fit Center  341 is at  -4.561180 -2.244397  3.492124
      ESP Fit Center  342 is at  -3.837908 -2.050597  3.492124
      ESP Fit Center  343 is at  -3.308437 -1.521125  3.492124
      ESP Fit Center  344 is at  -2.461125 -0.797853  3.142814
      ESP Fit Center  345 is at  -2.587773 -0.079592  3.142814
      ESP Fit Center  346 is at  -2.952444  0.552036  3.142814
      ESP Fit Center  347 is at  -3.511152  1.020848  3.142814
      ESP Fit Center  348 is at  -4.196509  1.270298  3.142814
      ESP Fit Center  349 is at  -4.925851  1.270298  3.142814
      ESP Fit Center  350 is at  -5.611208  1.020848  3.142814
      ESP Fit Center  351 is at  -6.169916  0.552036  3.142814
      ESP Fit Center  352 is at  -6.534587 -0.079592  3.142814
      ESP Fit Center  353 is at  -6.661236 -0.797853  3.142814
      ESP Fit Center  354 is at  -6.534587 -1.516114  3.142814
      ESP Fit Center  355 is at  -6.169916 -2.147743  3.142814
      ESP Fit Center  356 is at  -5.611208 -2.616555  3.142814
      ESP Fit Center  357 is at  -4.925851 -2.866004  3.142814
      ESP Fit Center  358 is at  -4.196509 -2.866004  3.142814
      ESP Fit Center  359 is at  -3.511152 -2.616555  3.142814
      ESP Fit Center  360 is at  -2.952444 -2.147743  3.142814
      ESP Fit Center  361 is at  -2.587773 -1.516114  3.142814
      ESP Fit Center  362 is at  -1.888316 -0.797853  2.672723
      ESP Fit Center  363 is at  -1.987433 -0.076723  2.672723
      ESP Fit Center  364 is at  -2.277434  0.590924  2.672723
      ESP Fit Center  365 is at  -2.736809  1.155572  2.672723
      ESP Fit Center  366 is at  -3.331489  1.575343  2.672723
      ESP Fit Center  367 is at  -4.017370  1.819105  2.672723
      ESP Fit Center  368 is at  -4.743583  1.868779  2.672723
      ESP Fit Center  369 is at  -5.456268  1.720682  2.672723
      ESP Fit Center  370 is at  -6.102568  1.385796  2.672723
      ESP Fit Center  371 is at  -6.634551  0.888959  2.672723
      ESP Fit Center  372 is at  -7.012761  0.267019  2.672723
      ESP Fit Center  373 is at  -7.209149 -0.433898  2.672723
      ESP Fit Center  374 is at  -7.209149 -1.161808  2.672723
      ESP Fit Center  375 is at  -7.012761 -1.862725  2.672723
      ESP Fit Center  376 is at  -6.634551 -2.484665  2.672723
      ESP Fit Center  377 is at  -6.102568 -2.981502  2.672723
      ESP Fit Center  378 is at  -5.456268 -3.316388  2.672723
      ESP Fit Center  379 is at  -4.743583 -3.464486  2.672723
      ESP Fit Center  380 is at  -4.017370 -3.414811  2.672723
      ESP Fit Center  381 is at  -3.331489 -3.171049  2.672723
      ESP Fit Center  382 is at  -2.736809 -2.751278  2.672723
      ESP Fit Center  383 is at  -2.277434 -2.186630  2.672723
      ESP Fit Center  384 is at  -1.987433 -1.518983  2.672723
      ESP Fit Center  385 is at  -1.418225 -0.797853  2.099914
      ESP Fit Center  386 is at  -1.502944 -0.073038  2.099914
      ESP Fit Center  387 is at  -1.752533  0.612702  2.099914
      ESP Fit Center  388 is at  -2.153537  1.222399  2.099914
      ESP Fit Center  389 is at  -2.684337  1.723184  2.099914
      ESP Fit Center  390 is at  -3.316319  2.088059  2.099914
      ESP Fit Center  391 is at  -4.015412  2.297353  2.099914
      ESP Fit Center  392 is at  -4.743927  2.339785  2.099914
      ESP Fit Center  393 is at  -5.462590  2.213065  2.099914
      ESP Fit Center  394 is at  -6.132658  1.924026  2.099914
      ESP Fit Center  395 is at  -6.718007  1.488250  2.099914
      ESP Fit Center  396 is at  -7.187081  0.929229  2.099914
      ESP Fit Center  397 is at  -7.514592  0.277101  2.099914
      ESP Fit Center  398 is at  -7.682884 -0.432978  2.099914
      ESP Fit Center  399 is at  -7.682884 -1.162728  2.099914
      ESP Fit Center  400 is at  -7.514592 -1.872807  2.099914
      ESP Fit Center  401 is at  -7.187081 -2.524935  2.099914
      ESP Fit Center  402 is at  -6.718007 -3.083956  2.099914
      ESP Fit Center  403 is at  -6.132658 -3.519732  2.099914
      ESP Fit Center  404 is at  -5.462590 -3.808771  2.099914
      ESP Fit Center  405 is at  -4.743927 -3.935491  2.099914
      ESP Fit Center  406 is at  -4.015412 -3.893060  2.099914
      ESP Fit Center  407 is at  -3.316319 -3.683765  2.099914
      ESP Fit Center  408 is at  -2.684337 -3.318890  2.099914
      ESP Fit Center  409 is at  -2.153537 -2.818106  2.099914
      ESP Fit Center  410 is at  -1.752533 -2.208409  2.099914
      ESP Fit Center  411 is at  -1.502944 -1.522669  2.099914
      ESP Fit Center  412 is at  -1.068915 -0.797853  1.446402
      ESP Fit Center  413 is at  -5.640349  2.523488  1.446402
      ESP Fit Center  414 is at  -6.307312  2.226537  1.446402
      ESP Fit Center  415 is at  -6.897961  1.797405  1.446402
      ESP Fit Center  416 is at  -7.386482  1.254848  1.446402
      ESP Fit Center  417 is at  -7.751523  0.622579  1.446402
      ESP Fit Center  418 is at  -7.977130 -0.071771  1.446402
      ESP Fit Center  419 is at  -8.053445 -0.797853  1.446402
      ESP Fit Center  420 is at  -7.977130 -1.523936  1.446402
      ESP Fit Center  421 is at  -7.751523 -2.218285  1.446402
      ESP Fit Center  422 is at  -7.386482 -2.850555  1.446402
      ESP Fit Center  423 is at  -6.897961 -3.393112  1.446402
      ESP Fit Center  424 is at  -6.307312 -3.822243  1.446402
      ESP Fit Center  425 is at  -5.640349 -4.119194  1.446402
      ESP Fit Center  426 is at  -4.926221 -4.270987  1.446402
      ESP Fit Center  427 is at  -4.196139 -4.270987  1.446402
      ESP Fit Center  428 is at  -3.482011 -4.119194  1.446402
      ESP Fit Center  429 is at  -2.815048 -3.822243  1.446402
      ESP Fit Center  430 is at  -2.224399 -3.393112  1.446402
      ESP Fit Center  431 is at  -1.735879 -2.850555  1.446402
      ESP Fit Center  432 is at  -1.370838 -2.218285  1.446402
      ESP Fit Center  433 is at  -1.145230 -1.523936  1.446402
      ESP Fit Center  434 is at  -5.979929  2.627309  0.737300
      ESP Fit Center  435 is at  -6.620884  2.284711  0.737300
      ESP Fit Center  436 is at  -7.182685  1.823652  0.737300
      ESP Fit Center  437 is at  -7.643744  1.261850  0.737300
      ESP Fit Center  438 is at  -7.986342  0.620895  0.737300
      ESP Fit Center  439 is at  -8.197312 -0.074582  0.737300
      ESP Fit Center  440 is at  -8.268548 -0.797853  0.737300
      ESP Fit Center  441 is at  -8.197312 -1.521125  0.737300
      ESP Fit Center  442 is at  -7.986342 -2.216602  0.737300
      ESP Fit Center  443 is at  -7.643744 -2.857557  0.737300
      ESP Fit Center  444 is at  -7.182685 -3.419359  0.737300
      ESP Fit Center  445 is at  -6.620884 -3.880417  0.737300
      ESP Fit Center  446 is at  -5.979929 -4.223015  0.737300
      ESP Fit Center  447 is at  -5.284452 -4.433986  0.737300
      ESP Fit Center  448 is at  -4.561180 -4.505222  0.737300
      ESP Fit Center  449 is at  -3.837908 -4.433986  0.737300
      ESP Fit Center  450 is at  -3.142432 -4.223015  0.737300
      ESP Fit Center  451 is at  -2.501477 -3.880417  0.737300
      ESP Fit Center  452 is at  -1.939675 -3.419359  0.737300
      ESP Fit Center  453 is at  -1.478616 -2.857557  0.737300
      ESP Fit Center  454 is at  -1.136018 -2.216602  0.737300
      ESP Fit Center  455 is at  -0.925048 -1.521125  0.737300
      ESP Fit Center  456 is at  -6.451180  2.475723 -0.000141
      ESP Fit Center  457 is at  -7.036554  2.058880 -0.000141
      ESP Fit Center  458 is at  -7.532461  1.538788 -0.000141
      ESP Fit Center  459 is at  -7.920978  0.934243 -0.000141
      ESP Fit Center  460 is at  -8.188064  0.267096 -0.000141
      ESP Fit Center  461 is at  -8.324064 -0.438541 -0.000141
      ESP Fit Center  462 is at  -8.324064 -1.157165 -0.000141
      ESP Fit Center  463 is at  -8.188064 -1.862802 -0.000141
      ESP Fit Center  464 is at  -7.920978 -2.529949 -0.000141
      ESP Fit Center  465 is at  -7.532461 -3.134494 -0.000141
      ESP Fit Center  466 is at  -7.036554 -3.654587 -0.000141
      ESP Fit Center  467 is at  -6.451180 -4.071429 -0.000141
      ESP Fit Center  468 is at  -5.797497 -4.369956 -0.000141
      ESP Fit Center  469 is at  -5.099130 -4.539378 -0.000141
      ESP Fit Center  470 is at  -4.381320 -4.573572 -0.000141
      ESP Fit Center  471 is at  -3.670011 -4.471301 -0.000141
      ESP Fit Center  472 is at  -2.990911 -4.236262 -0.000141
      ESP Fit Center  473 is at  -2.368565 -3.876950 -0.000141
      ESP Fit Center  474 is at  -1.825465 -3.406352 -0.000141
      ESP Fit Center  475 is at  -1.381242 -2.841475 -0.000141
      ESP Fit Center  476 is at  -1.051949 -2.202737 -0.000141
      ESP Fit Center  477 is at  -0.849490 -1.513223 -0.000141
      ESP Fit Center  478 is at  -5.979929  2.627309 -0.737582
      ESP Fit Center  479 is at  -6.620884  2.284711 -0.737582
      ESP Fit Center  480 is at  -7.182685  1.823652 -0.737582
      ESP Fit Center  481 is at  -7.643744  1.261850 -0.737582
      ESP Fit Center  482 is at  -7.986342  0.620895 -0.737582
      ESP Fit Center  483 is at  -8.197312 -0.074582 -0.737582
      ESP Fit Center  484 is at  -8.268548 -0.797853 -0.737582
      ESP Fit Center  485 is at  -8.197312 -1.521125 -0.737582
      ESP Fit Center  486 is at  -7.986342 -2.216602 -0.737582
      ESP Fit Center  487 is at  -7.643744 -2.857557 -0.737582
      ESP Fit Center  488 is at  -7.182685 -3.419359 -0.737582
      ESP Fit Center  489 is at  -6.620884 -3.880417 -0.737582
      ESP Fit Center  490 is at  -5.979929 -4.223015 -0.737582
      ESP Fit Center  491 is at  -5.284452 -4.433986 -0.737582
      ESP Fit Center  492 is at  -4.561180 -4.505222 -0.737582
      ESP Fit Center  493 is at  -3.837908 -4.433986 -0.737582
      ESP Fit Center  494 is at  -3.142432 -4.223015 -0.737582
      ESP Fit Center  495 is at  -2.501477 -3.880417 -0.737582
      ESP Fit Center  496 is at  -1.939675 -3.419359 -0.737582
      ESP Fit Center  497 is at  -1.478616 -2.857557 -0.737582
      ESP Fit Center  498 is at  -1.136018 -2.216602 -0.737582
      ESP Fit Center  499 is at  -0.925048 -1.521125 -0.737582
      ESP Fit Center  500 is at  -1.068915 -0.797853 -1.446684
      ESP Fit Center  501 is at  -5.640349  2.523488 -1.446684
      ESP Fit Center  502 is at  -6.307312  2.226537 -1.446684
      ESP Fit Center  503 is at  -6.897961  1.797405 -1.446684
      ESP Fit Center  504 is at  -7.386482  1.254848 -1.446684
      ESP Fit Center  505 is at  -7.751523  0.622579 -1.446684
      ESP Fit Center  506 is at  -7.977130 -0.071771 -1.446684
      ESP Fit Center  507 is at  -8.053445 -0.797853 -1.446684
      ESP Fit Center  508 is at  -7.977130 -1.523936 -1.446684
      ESP Fit Center  509 is at  -7.751523 -2.218285 -1.446684
      ESP Fit Center  510 is at  -7.386482 -2.850555 -1.446684
      ESP Fit Center  511 is at  -6.897961 -3.393112 -1.446684
      ESP Fit Center  512 is at  -6.307312 -3.822243 -1.446684
      ESP Fit Center  513 is at  -5.640349 -4.119194 -1.446684
      ESP Fit Center  514 is at  -4.926221 -4.270987 -1.446684
      ESP Fit Center  515 is at  -4.196139 -4.270987 -1.446684
      ESP Fit Center  516 is at  -3.482011 -4.119194 -1.446684
      ESP Fit Center  517 is at  -2.815048 -3.822243 -1.446684
      ESP Fit Center  518 is at  -2.224399 -3.393112 -1.446684
      ESP Fit Center  519 is at  -1.735879 -2.850555 -1.446684
      ESP Fit Center  520 is at  -1.370838 -2.218285 -1.446684
      ESP Fit Center  521 is at  -1.145230 -1.523936 -1.446684
      ESP Fit Center  522 is at  -1.418225 -0.797853 -2.100197
      ESP Fit Center  523 is at  -1.502944 -0.073038 -2.100197
      ESP Fit Center  524 is at  -1.752533  0.612702 -2.100197
      ESP Fit Center  525 is at  -2.153537  1.222399 -2.100197
      ESP Fit Center  526 is at  -2.684337  1.723184 -2.100197
      ESP Fit Center  527 is at  -3.316319  2.088059 -2.100197
      ESP Fit Center  528 is at  -4.015412  2.297353 -2.100197
      ESP Fit Center  529 is at  -4.743927  2.339785 -2.100197
      ESP Fit Center  530 is at  -5.462590  2.213065 -2.100197
      ESP Fit Center  531 is at  -6.132658  1.924026 -2.100197
      ESP Fit Center  532 is at  -6.718007  1.488250 -2.100197
      ESP Fit Center  533 is at  -7.187081  0.929229 -2.100197
      ESP Fit Center  534 is at  -7.514592  0.277101 -2.100197
      ESP Fit Center  535 is at  -7.682884 -0.432978 -2.100197
      ESP Fit Center  536 is at  -7.682884 -1.162728 -2.100197
      ESP Fit Center  537 is at  -7.514592 -1.872807 -2.100197
      ESP Fit Center  538 is at  -7.187081 -2.524935 -2.100197
      ESP Fit Center  539 is at  -6.718007 -3.083956 -2.100197
      ESP Fit Center  540 is at  -6.132658 -3.519732 -2.100197
      ESP Fit Center  541 is at  -5.462590 -3.808771 -2.100197
      ESP Fit Center  542 is at  -4.743927 -3.935491 -2.100197
      ESP Fit Center  543 is at  -4.015412 -3.893060 -2.100197
[...]
 4164 Fit      -0.009765
 4165 Fit      -0.011294
 4166 Fit      -0.012877
 4167 Fit      -0.014392
 4168 Fit      -0.015610
 4169 Fit      -0.016186
 4170 Fit      -0.015761
 4171 Fit      -0.017632
 4172 Fit      -0.014157
 4173 Fit      -0.010170
 4174 Fit      -0.006688
 4175 Fit      -0.004295
 4176 Fit      -0.002758
 4177 Fit      -0.001520
 4178 Fit      -0.000342
 4179 Fit       0.000683
 4180 Fit       0.001391
 4181 Fit       0.001679
 4182 Fit       0.001551
 4183 Fit       0.001113
 4184 Fit       0.000519
 4185 Fit      -0.000101
 4186 Fit      -0.000658
 4187 Fit      -0.001111
 4188 Fit      -0.001451
 4189 Fit      -0.001697
 4190 Fit      -0.001881
 4191 Fit      -0.002044
 4192 Fit      -0.002234
 4193 Fit      -0.002494
 4194 Fit      -0.002864
 4195 Fit      -0.003375
 4196 Fit      -0.004046
 4197 Fit      -0.004890
 4198 Fit      -0.005908
 4199 Fit      -0.007099
 4200 Fit      -0.008464
 4201 Fit      -0.010002
 4202 Fit      -0.011720
 4203 Fit      -0.013613
 4204 Fit      -0.015644
 4205 Fit      -0.017677
 4206 Fit      -0.019401
 4207 Fit      -0.020292
 4208 Fit      -0.019783
 4209 Fit      -0.022773
 4210 Fit      -0.017797
 4211 Fit      -0.011850
 4212 Fit      -0.001669
 4213 Fit       0.002013
 4214 Fit       0.003095
 4215 Fit       0.003728
 4216 Fit       0.003844
 4217 Fit       0.003473
 4218 Fit       0.002764
 4219 Fit       0.001904
 4220 Fit       0.001050
 4221 Fit       0.000294
 4222 Fit      -0.000321
 4223 Fit      -0.000787
 4224 Fit      -0.001117
 4225 Fit      -0.001339
 4226 Fit      -0.001491
 4227 Fit      -0.001613
 4228 Fit      -0.001751
 4229 Fit      -0.001945
 4230 Fit      -0.002233
 4231 Fit      -0.002645
 4232 Fit      -0.003204
 4233 Fit      -0.003924
 4234 Fit      -0.004813
 4235 Fit      -0.005874
 4236 Fit      -0.007110
 4237 Fit      -0.008527
 4238 Fit      -0.010141
 4239 Fit      -0.011981
 4240 Fit      -0.014089
 4241 Fit      -0.016505
 4242 Fit      -0.019231
 4243 Fit      -0.022129
 4244 Fit      -0.024763
 4245 Fit      -0.026293
 4246 Fit      -0.025755
 4247 Fit       0.006612
 4248 Fit       0.006803
 4249 Fit       0.006411
 4250 Fit       0.005511
 4251 Fit       0.004327
 4252 Fit       0.003095
 4253 Fit       0.001967
 4254 Fit       0.001017
 4255 Fit       0.000265
 4256 Fit      -0.000296
 4257 Fit      -0.000690
 4258 Fit      -0.000948
 4259 Fit      -0.001108
 4260 Fit      -0.001211
 4261 Fit      -0.001301
 4262 Fit      -0.001418
 4263 Fit      -0.001602
 4264 Fit      -0.001887
 4265 Fit      -0.002299
 4266 Fit      -0.002858
 4267 Fit      -0.003577
 4268 Fit      -0.004464
 4269 Fit      -0.005522
 4270 Fit      -0.006757
 4271 Fit      -0.008179
 4272 Fit      -0.009809
 4273 Fit      -0.011689
 4274 Fit      -0.013888
 4275 Fit      -0.016505
 4276 Fit      -0.019669
 4277 Fit      -0.023490
 4278 Fit      -0.027912
 4279 Fit      -0.032384
 4280 Fit      -0.035440
 4281 Fit       0.010025
 4282 Fit       0.008715
 4283 Fit       0.007026
 4284 Fit       0.005278
 4285 Fit       0.003694
 4286 Fit       0.002366
 4287 Fit       0.001309
 4288 Fit       0.000505
 4289 Fit      -0.000076
 4290 Fit      -0.000471
 4291 Fit      -0.000719
 4292 Fit      -0.000863
 4293 Fit      -0.000945
 4294 Fit      -0.001009
 4295 Fit      -0.001096
 4296 Fit      -0.001244
 4297 Fit      -0.001488
 4298 Fit      -0.001855
 4299 Fit      -0.002365
 4300 Fit      -0.003034
 4301 Fit      -0.003869
 4302 Fit      -0.004875
 4303 Fit      -0.006058
 4304 Fit      -0.007428
 4305 Fit      -0.009004
 4306 Fit      -0.010828
 4307 Fit      -0.012970
 4308 Fit      -0.015548
 4309 Fit      -0.018749
 4310 Fit      -0.022845
 4311 Fit      -0.028192
 4312 Fit      -0.035075
 4313 Fit      -0.043116
 4314 Fit       0.012413
 4315 Fit       0.010162
 4316 Fit       0.007819
 4317 Fit       0.005698
 4318 Fit       0.003927
 4319 Fit       0.002516
 4320 Fit       0.001430
 4321 Fit       0.000623
 4322 Fit       0.000050
 4323 Fit      -0.000332
 4324 Fit      -0.000567
 4325 Fit      -0.000696
 4326 Fit      -0.000763
 4327 Fit      -0.000808
 4328 Fit      -0.000872
 4329 Fit      -0.000992
 4330 Fit      -0.001201
 4331 Fit      -0.001525
 4332 Fit      -0.001985
 4333 Fit      -0.002596
 4334 Fit      -0.003367
 4335 Fit      -0.004305
 4336 Fit      -0.005414
 4337 Fit      -0.006701
 4338 Fit      -0.008184
 4339 Fit      -0.009895
 4340 Fit      -0.011892
 4341 Fit      -0.014281
 4342 Fit      -0.017234
 4343 Fit      -0.021037
 4344 Fit      -0.026155
 4345 Fit      -0.033320
 4346 Fit      -0.043545
 4347 Fit       0.011490
 4348 Fit       0.008691
 4349 Fit       0.006260
 4350 Fit       0.004292
 4351 Fit       0.002759
 4352 Fit       0.001598
 4353 Fit       0.000747
 4354 Fit       0.000149
 4355 Fit      -0.000246
 4356 Fit      -0.000484
 4357 Fit      -0.000610
 4358 Fit      -0.000670
 4359 Fit      -0.000708
 4360 Fit      -0.000764
 4361 Fit      -0.000877
 4362 Fit      -0.001080
 4363 Fit      -0.001403
 4364 Fit      -0.001866
 4365 Fit      -0.002484
 4366 Fit      -0.003267
 4367 Fit      -0.004222
 4368 Fit      -0.005353
 4369 Fit      -0.006669
 4370 Fit      -0.008189
 4371 Fit      -0.009947
 4372 Fit      -0.012012
 4373 Fit      -0.014502
 4374 Fit      -0.017619
 4375 Fit      -0.021712
 4376 Fit      -0.027386
 4377 Fit      -0.035711
 4378 Fit       0.011488
 4379 Fit       0.008689
 4380 Fit       0.006259
 4381 Fit       0.004292
 4382 Fit       0.002759
 4383 Fit       0.001598
 4384 Fit       0.000747
 4385 Fit       0.000148
 4386 Fit      -0.000246
 4387 Fit      -0.000484
 4388 Fit      -0.000610
 4389 Fit      -0.000670
 4390 Fit      -0.000708
 4391 Fit      -0.000764
 4392 Fit      -0.000877
 4393 Fit      -0.001080
 4394 Fit      -0.001403
 4395 Fit      -0.001866
 4396 Fit      -0.002484
 4397 Fit      -0.003267
 4398 Fit      -0.004222
 4399 Fit      -0.005353
 4400 Fit      -0.006669
 4401 Fit      -0.008189
 4402 Fit      -0.009947
 4403 Fit      -0.012012
 4404 Fit      -0.014502
 4405 Fit      -0.017619
 4406 Fit      -0.021712
 4407 Fit      -0.027386
 4408 Fit      -0.035710
 4409 Fit       0.012406
 4410 Fit       0.010156
 4411 Fit       0.007815
 4412 Fit       0.005695
 4413 Fit       0.003925
 4414 Fit       0.002515
 4415 Fit       0.001429
 4416 Fit       0.000623
 4417 Fit       0.000050
 4418 Fit      -0.000332
 4419 Fit      -0.000567
 4420 Fit      -0.000696
 4421 Fit      -0.000763
 4422 Fit      -0.000808
 4423 Fit      -0.000872
 4424 Fit      -0.000992
 4425 Fit      -0.001201
 4426 Fit      -0.001525
 4427 Fit      -0.001984
 4428 Fit      -0.002595
 4429 Fit      -0.003367
 4430 Fit      -0.004305
 4431 Fit      -0.005414
 4432 Fit      -0.006701
 4433 Fit      -0.008184
 4434 Fit      -0.009894
 4435 Fit      -0.011892
 4436 Fit      -0.014280
 4437 Fit      -0.017233
 4438 Fit      -0.021036
 4439 Fit      -0.026154
 4440 Fit      -0.033318
 4441 Fit      -0.043540
 4442 Fit       0.010016
 4443 Fit       0.008708
 4444 Fit       0.007020
 4445 Fit       0.005274
 4446 Fit       0.003691
 4447 Fit       0.002364
 4448 Fit       0.001307
 4449 Fit       0.000504
 4450 Fit      -0.000077
 4451 Fit      -0.000472
 4452 Fit      -0.000720
 4453 Fit      -0.000863
 4454 Fit      -0.000945
 4455 Fit      -0.001009
 4456 Fit      -0.001096
 4457 Fit      -0.001244
 4458 Fit      -0.001488
 4459 Fit      -0.001855
 4460 Fit      -0.002365
 4461 Fit      -0.003033
 4462 Fit      -0.003868
 4463 Fit      -0.004875
 4464 Fit      -0.006058
 4465 Fit      -0.007428
 4466 Fit      -0.009004
 4467 Fit      -0.010828
 4468 Fit      -0.012969
 4469 Fit      -0.015547
 4470 Fit      -0.018748
 4471 Fit      -0.022844
 4472 Fit      -0.028190
 4473 Fit      -0.035070
 4474 Fit      -0.043108
 4475 Fit       0.006604
 4476 Fit       0.006795
 4477 Fit       0.006403
 4478 Fit       0.005504
 4479 Fit       0.004322
 4480 Fit       0.003091
 4481 Fit       0.001965
 4482 Fit       0.001015
 4483 Fit       0.000264
 4484 Fit      -0.000297
 4485 Fit      -0.000691
 4486 Fit      -0.000948
 4487 Fit      -0.001108
 4488 Fit      -0.001211
 4489 Fit      -0.001301
 4490 Fit      -0.001418
 4491 Fit      -0.001602
 4492 Fit      -0.001887
 4493 Fit      -0.002299
 4494 Fit      -0.002858
 4495 Fit      -0.003577
 4496 Fit      -0.004464
 4497 Fit      -0.005522
 4498 Fit      -0.006757
 4499 Fit      -0.008178
 4500 Fit      -0.009809
 4501 Fit      -0.011689
 4502 Fit      -0.013887
 4503 Fit      -0.016505
 4504 Fit      -0.019668
 4505 Fit      -0.023488
 4506 Fit      -0.027909
 4507 Fit      -0.032378
 4508 Fit      -0.035432
 4509 Fit      -0.022770
 4510 Fit      -0.017796
 4511 Fit      -0.011853
 4512 Fit      -0.001673
 4513 Fit       0.002008
 4514 Fit       0.003089
 4515 Fit       0.003722
 4516 Fit       0.003838
 4517 Fit       0.003468
 4518 Fit       0.002759
 4519 Fit       0.001901
 4520 Fit       0.001047
 4521 Fit       0.000292
 4522 Fit      -0.000322
 4523 Fit      -0.000788
 4524 Fit      -0.001117
 4525 Fit      -0.001340
 4526 Fit      -0.001491
 4527 Fit      -0.001614
 4528 Fit      -0.001751
 4529 Fit      -0.001945
 4530 Fit      -0.002233
 4531 Fit      -0.002645
 4532 Fit      -0.003203
 4533 Fit      -0.003923
 4534 Fit      -0.004812
 4535 Fit      -0.005874
 4536 Fit      -0.007109
 4537 Fit      -0.008526
 4538 Fit      -0.010141
 4539 Fit      -0.011981
 4540 Fit      -0.014088
 4541 Fit      -0.016504
 4542 Fit      -0.019229
 4543 Fit      -0.022127
 4544 Fit      -0.024760
 4545 Fit      -0.026289
 4546 Fit      -0.025751
 4547 Fit      -0.017631
 4548 Fit      -0.014157
 4549 Fit      -0.010173
 4550 Fit      -0.006691
 4551 Fit      -0.004298
 4552 Fit      -0.002760
 4553 Fit      -0.001523
 4554 Fit      -0.000346
 4555 Fit       0.000679
 4556 Fit       0.001386
 4557 Fit       0.001674
 4558 Fit       0.001546
 4559 Fit       0.001110
 4560 Fit       0.000515
 4561 Fit      -0.000103
 4562 Fit      -0.000660
 4563 Fit      -0.001112
 4564 Fit      -0.001452
 4565 Fit      -0.001698
 4566 Fit      -0.001881
 4567 Fit      -0.002044
 4568 Fit      -0.002234
 4569 Fit      -0.002494
 4570 Fit      -0.002864
 4571 Fit      -0.003375
 4572 Fit      -0.004046
 4573 Fit      -0.004889
 4574 Fit      -0.005907
 4575 Fit      -0.007099
 4576 Fit      -0.008463
 4577 Fit      -0.010002
 4578 Fit      -0.011719
 4579 Fit      -0.013613
 4580 Fit      -0.015643
 4581 Fit      -0.017676
 4582 Fit      -0.019400
 4583 Fit      -0.020290
 4584 Fit      -0.019781
 4585 Fit      -0.014195
 4586 Fit      -0.011731
 4587 Fit      -0.008951
 4588 Fit      -0.006479
 4589 Fit      -0.004604
 4590 Fit      -0.003202
 4591 Fit      -0.002052
 4592 Fit      -0.001090
 4593 Fit      -0.000388
 4594 Fit      -0.000027
 4595 Fit      -0.000013
 4596 Fit      -0.000268
 4597 Fit      -0.000672
 4598 Fit      -0.001112
 4599 Fit      -0.001515
 4600 Fit      -0.001847
 4601 Fit      -0.002109
 4602 Fit      -0.002324
 4603 Fit      -0.002534
 4604 Fit      -0.002784
 4605 Fit      -0.003121
 4606 Fit      -0.003583
 4607 Fit      -0.004198
 4608 Fit      -0.004983
 4609 Fit      -0.005941
 4610 Fit      -0.007066
 4611 Fit      -0.008346
 4612 Fit      -0.009765
 4613 Fit      -0.011294
 4614 Fit      -0.012876
 4615 Fit      -0.014391
 4616 Fit      -0.015610
 4617 Fit      -0.016185
 4618 Fit      -0.015761
 4619 Fit      -0.011774
 4620 Fit      -0.009919
 4621 Fit      -0.007832
 4622 Fit      -0.005948
 4623 Fit      -0.004435
 4624 Fit      -0.003242
 4625 Fit      -0.002311
 4626 Fit      -0.001662
 4627 Fit      -0.001336
 4628 Fit      -0.001313
 4629 Fit      -0.001507
 4630 Fit      -0.001810
 4631 Fit      -0.002132
 4632 Fit      -0.002426
 4633 Fit      -0.002687
 4634 Fit      -0.002941
 4635 Fit      -0.003235
 4636 Fit      -0.003617
 4637 Fit      -0.004133
 4638 Fit      -0.004813
 4639 Fit      -0.005670
 4640 Fit      -0.006697
 4641 Fit      -0.007872
 4642 Fit      -0.009154
 4643 Fit      -0.010479
 4644 Fit      -0.011737
 4645 Fit      -0.012744
 4646 Fit      -0.013237
 4647 Fit      -0.012948
 4648 Fit      -0.009991
 4649 Fit      -0.008552
 4650 Fit      -0.006923
 4651 Fit      -0.005434
 4652 Fit      -0.004220
 4653 Fit      -0.003301
 4654 Fit      -0.002691
 4655 Fit      -0.002400
 4656 Fit      -0.002382
 4657 Fit      -0.002542
 4658 Fit      -0.002786
 4659 Fit      -0.003054
 4660 Fit      -0.003339
 4661 Fit      -0.003670
 4662 Fit      -0.004097
 4663 Fit      -0.004668
 4664 Fit      -0.005410
 4665 Fit      -0.006325
 4666 Fit      -0.007382
 4667 Fit      -0.008516
 4668 Fit      -0.009620
 4669 Fit      -0.010530
 4670 Fit      -0.011022
 4671 Fit      -0.010872
 4672 Fit      -0.008622
 4673 Fit      -0.007414
 4674 Fit      -0.006046
 4675 Fit      -0.004845
 4676 Fit      -0.003963
 4677 Fit      -0.003449
 4678 Fit      -0.003279
 4679 Fit      -0.003359
 4680 Fit      -0.003583
 4681 Fit      -0.003900
 4682 Fit      -0.004324
 4683 Fit      -0.004902
 4684 Fit      -0.005670
 4685 Fit      -0.006612
 4686 Fit      -0.007643
 4687 Fit      -0.008597
 4688 Fit      -0.009233
 4689 Fit      -0.009284
 4690 Fit      -0.007529
 4691 Fit      -0.006467
 4692 Fit      -0.005316
 4693 Fit      -0.004494
 4694 Fit      -0.004139
 4695 Fit      -0.004180
 4696 Fit      -0.004497
 4697 Fit      -0.005048
 4698 Fit      -0.005839
 4699 Fit      -0.006786
 4700 Fit      -0.007630
 4701 Fit      -0.007973
 4702 Fit      -0.006620
 4703 Fit      -0.005644
 4704 Fit      -0.004984
 4705 Fit      -0.005137
 4706 Fit      -0.005898
 4707 Fit      -0.006713
 4708 Fit      -0.005836
 4709 Fit       0.007204
 4710 Fit       0.008318
 4711 Fit       0.011349
 4712 Fit       0.007844
 4713 Fit       0.009063
 4714 Fit       0.010090
 4715 Fit       0.010828
 4716 Fit       0.013276
 4717 Fit       0.014484
 4718 Fit       0.009371
 4719 Fit       0.010146
 4720 Fit       0.011038
 4721 Fit       0.011832
 4722 Fit       0.012522
 4723 Fit       0.014257
 4724 Fit       0.015904
 4725 Fit       0.010289
 4726 Fit       0.010975
 4727 Fit       0.011821
 4728 Fit       0.012604
 4729 Fit       0.013341
 4730 Fit       0.014258
 4731 Fit       0.015907
 4732 Fit       0.010287
 4733 Fit       0.010974
 4734 Fit       0.011820
 4735 Fit       0.012604
 4736 Fit       0.013341
 4737 Fit       0.013278
 4738 Fit       0.014490
 4739 Fit       0.009364
 4740 Fit       0.010142
 4741 Fit       0.011035
 4742 Fit       0.011831
 4743 Fit       0.012522
 4744 Fit       0.011351
 4745 Fit       0.007835
 4746 Fit       0.009057
 4747 Fit       0.010086
 4748 Fit       0.010827
 4749 Fit       0.007196
 4750 Fit       0.008314
 4751 Fit      -0.015305
 4752 Fit      -0.007097
 4753 Fit      -0.011506
 4754 Fit      -0.004242
 4755 Fit       0.000721
 4756 Fit      -0.020525
 4757 Fit      -0.010201
 4758 Fit      -0.003364
 4759 Fit       0.001494
 4760 Fit       0.005432
 4761 Fit      -0.017653
 4762 Fit      -0.007930
 4763 Fit      -0.001511
 4764 Fit       0.003188
 4765 Fit       0.007358
 4766 Fit      -0.017657
 4767 Fit      -0.007932
 4768 Fit      -0.001513
 4769 Fit       0.003187
 4770 Fit       0.007357
 4771 Fit      -0.020540
 4772 Fit      -0.010211
 4773 Fit      -0.003371
 4774 Fit       0.001488
 4775 Fit       0.005428
 4776 Fit      -0.011522
 4777 Fit      -0.004254
 4778 Fit       0.000712
 4779 Fit      -0.015329
 4780 Fit      -0.007113
 4781 Fit       0.012105
 4782 Fit       0.013143
 4783 Fit       0.013043
 4784 Fit       0.014659
 4785 Fit       0.015418
 4786 Fit       0.015812
 4787 Fit       0.015803
 4788 Fit       0.016376
 4789 Fit       0.016896
 4790 Fit       0.017314
 4791 Fit       0.017574
 4792 Fit       0.017728
 4793 Fit       0.015963
 4794 Fit       0.017237
 4795 Fit       0.017662
 4796 Fit       0.018070
 4797 Fit       0.018380
 4798 Fit       0.018664
 4799 Fit       0.017088
 4800 Fit       0.017237
 4801 Fit       0.017663
 4802 Fit       0.018070
 4803 Fit       0.018381
 4804 Fit       0.018664
 4805 Fit       0.017088
 4806 Fit       0.016377
 4807 Fit       0.016898
 4808 Fit       0.017317
 4809 Fit       0.017577
 4810 Fit       0.017730
 4811 Fit       0.015962
 4812 Fit       0.014662
 4813 Fit       0.015421
 4814 Fit       0.015816
 4815 Fit       0.015807
 4816 Fit       0.012110
 4817 Fit       0.013149
 4818 Fit       0.013049
 4819 Fit       0.025038
 4820 Fit       0.030909
 4821 Fit       0.030908
 4822 Fit       0.025033
 4823 Fit       0.019817
 4824 Fit       0.018941
 4825 Fit       0.017534
 4826 Fit       0.023524
 4827 Fit       0.022088
 4828 Fit       0.021469
 4829 Fit       0.028144
 4830 Fit       0.025260
 4831 Fit       0.024082
 4832 Fit       0.024203
 4833 Fit       0.030876
 4834 Fit       0.026866
 4835 Fit       0.025296
 4836 Fit       0.025422
 4837 Fit       0.030875
 4838 Fit       0.026866
 4839 Fit       0.025296
 4840 Fit       0.025422
 4841 Fit       0.028142
 4842 Fit       0.025258
 4843 Fit       0.024081
 4844 Fit       0.024203
 4845 Fit       0.023522
 4846 Fit       0.022086
 4847 Fit       0.021469
 4848 Fit       0.019813
 4849 Fit       0.018939
 4850 Fit       0.017533
 4851 Fit       0.013802
 4852 Fit       0.012355
 4853 Fit       0.020561
 4854 Fit       0.018402
 4855 Fit       0.016735
 4856 Fit       0.015364
 4857 Fit       0.014115
 4858 Fit       0.022845
 4859 Fit       0.020078
 4860 Fit       0.018312
 4861 Fit       0.017027
 4862 Fit       0.016037
 4863 Fit       0.015431
 4864 Fit       0.025384
 4865 Fit       0.021690
 4866 Fit       0.019557
 4867 Fit       0.018130
 4868 Fit       0.017104
 4869 Fit       0.016528
 4870 Fit       0.025383
 4871 Fit       0.021689
 4872 Fit       0.019557
 4873 Fit       0.018130
 4874 Fit       0.017103
 4875 Fit       0.016527
 4876 Fit       0.022843
 4877 Fit       0.020077
 4878 Fit       0.018311
 4879 Fit       0.017026
 4880 Fit       0.016036
 4881 Fit       0.015430
 4882 Fit       0.020558
 4883 Fit       0.018400
 4884 Fit       0.016733
 4885 Fit       0.015362
 4886 Fit       0.014113
 4887 Fit       0.013800
 4888 Fit       0.012352
 4889 Fit       0.014091
 4890 Fit       0.012859
 4891 Fit       0.014270
 4892 Fit       0.014269
 4893 Fit       0.014090
 4894 Fit       0.012858
 -----------------------------------------------------------------
 Leave Link  602 at Fri Jan 17 11:57:05 2014, MaxMem=   235929600 cpu:         1.7

 Test job not archived.
 1\1\GINC-G42\SP\RHF\Gen\C10H7I1N2O2S1\KOLAR\17-Jan-2014\0\\# hf/gen ps
 eudo=read pop=(mk, readradii) iop(6/33=2,6/41=5,6/42=2)\\na resp\\0,1\
 C,0,6.840404,-1.130648,0.000182\C,0,5.490979,-1.579528,0.000546\C,0,4.
 574269,-0.555476,0.000036\S,0,5.390167,0.996184,-0.000393\C,0,6.94557,
 0.235168,-0.000591\C,0,3.104834,-0.776779,0.000072\O,0,2.628339,-1.897
 413,0.000199\N,0,2.333792,0.381737,0.000147\N,0,0.982764,0.316127,0.00
 0215\C,0,0.348723,1.435902,0.000318\C,0,-1.089525,1.513907,0.00023\C,0
 ,-1.932071,2.599424,0.000137\C,0,-3.263997,2.088607,0.000337\C,0,-3.12
 9904,0.729375,0.000042\O,0,-1.827786,0.357877,0.000023\I,0,-4.56118,-0
 .797853,-0.000141\H,0,7.69899,-1.792939,0.000381\H,0,5.176861,-2.61628
 6,0.001043\H,0,7.841571,0.841689,-0.001078\H,0,2.784912,1.295933,0.000
 296\H,0,0.864107,2.406233,0.000321\H,0,-1.633368,3.638911,0.000152\H,0
 ,-4.189198,2.64527,0.000493\\Version=AM64L-G09RevD.01\State=1-A\HF=-10
 49.9440252\RMSD=4.709e-09\Dipole=1.1074741,2.1474536,0.0002564\Quadrup
 ole=19.0874386,-3.9426591,-15.1447795,0.9195601,-0.0001963,-0.0003523\
 PG=C01 [X(C10H7I1N2O2S1)]\\@


 THOSE WHO ARE UNABLE TO LEARN FROM PAST MEETINGS
 ARE CONDEMNED TO REPEAT THEM.
 Job cpu time:       0 days  0 hours  2 minutes 32.9 seconds.
 File lengths (MBytes):  RWF=     32 Int=      0 D2E=      0 Chk=      3 Scr=      1
 Normal termination of Gaussian 09 at Fri Jan 17 11:57:05 2014.
152.49user 0.45system 2:33.82elapsed 99%CPU (0avgtext+0avgdata 603424maxresident)k
8inputs+136728outputs (0major+171387minor)pagefaults 0swaps
