Linux g42 2.6.38.6-client #1 SMP Tue Jun 12 11:27:21 CEST 2012 x86_64 GNU/Linux
Fri Jan 17 11:54:32 CET 2014

 Entering Gaussian System, Link 0=/usr/local/programs/common/gaussian/gaussian09_d01/arch/amd64-pgi_10.4.0-acml/g09/g09
 Initial command:
 /usr/local/programs/common/gaussian/gaussian09_d01/arch/amd64-pgi_10.4.0-acml/g09/l1.exe "/scratch/kolar/g09_20178/Gau-20671.inp" -scrdir="/scratch/kolar/g09_20178/"
 Entering Link 1 = /usr/local/programs/common/gaussian/gaussian09_d01/arch/amd64-pgi_10.4.0-acml/g09/l1.exe PID=     20674.
  
 Copyright (c) 1988,1990,1992,1993,1995,1998,2003,2009,2013,
            Gaussian, Inc.  All Rights Reserved.
  
 This is part of the Gaussian(R) 09 program.  It is based on
 the Gaussian(R) 03 system (copyright 2003, Gaussian, Inc.),
 the Gaussian(R) 98 system (copyright 1998, Gaussian, Inc.),
 the Gaussian(R) 94 system (copyright 1995, Gaussian, Inc.),
 the Gaussian 92(TM) system (copyright 1992, Gaussian, Inc.),
 the Gaussian 90(TM) system (copyright 1990, Gaussian, Inc.),
 the Gaussian 88(TM) system (copyright 1988, Gaussian, Inc.),
 the Gaussian 86(TM) system (copyright 1986, Carnegie Mellon
 University), and the Gaussian 82(TM) system (copyright 1983,
 Carnegie Mellon University). Gaussian is a federally registered
 trademark of Gaussian, Inc.
  
 This software contains proprietary and confidential information,
 including trade secrets, belonging to Gaussian, Inc.
  
 This software is provided under written license and may be
 used, copied, transmitted, or stored only in accord with that
 written license.
  
 The following legend is applicable only to US Government
 contracts under FAR:
  
                    RESTRICTED RIGHTS LEGEND
  
 Use, reproduction and disclosure by the US Government is
 subject to restrictions as set forth in subparagraphs (a)
 and (c) of the Commercial Computer Software - Restricted
 Rights clause in FAR 52.227-19.
  
 Gaussian, Inc.
 340 Quinnipiac St., Bldg. 40, Wallingford CT 06492
  
  
 ---------------------------------------------------------------
 Warning -- This program may not be used in any manner that
 competes with the business of Gaussian, Inc. or will provide
 assistance to any competitor of Gaussian, Inc.  The licensee
 of this program is prohibited from giving any competitor of
 Gaussian, Inc. access to this program.  By using this program,
 the user acknowledges that Gaussian, Inc. is engaged in the
 business of creating and licensing software in the field of
 computational chemistry and represents and warrants to the
 licensee that it is not a competitor of Gaussian, Inc. and that
 it will not use this program in any manner prohibited above.
 ---------------------------------------------------------------
  

 Cite this work as:
 Gaussian 09, Revision D.01,
 M. J. Frisch, G. W. Trucks, H. B. Schlegel, G. E. Scuseria, 
 M. A. Robb, J. R. Cheeseman, G. Scalmani, V. Barone, B. Mennucci, 
 G. A. Petersson, H. Nakatsuji, M. Caricato, X. Li, H. P. Hratchian, 
 A. F. Izmaylov, J. Bloino, G. Zheng, J. L. Sonnenberg, M. Hada, 
 M. Ehara, K. Toyota, R. Fukuda, J. Hasegawa, M. Ishida, T. Nakajima, 
 Y. Honda, O. Kitao, H. Nakai, T. Vreven, J. A. Montgomery, Jr., 
 J. E. Peralta, F. Ogliaro, M. Bearpark, J. J. Heyd, E. Brothers, 
 K. N. Kudin, V. N. Staroverov, T. Keith, R. Kobayashi, J. Normand, 
 K. Raghavachari, A. Rendell, J. C. Burant, S. S. Iyengar, J. Tomasi, 
 M. Cossi, N. Rega, J. M. Millam, M. Klene, J. E. Knox, J. B. Cross, 
 V. Bakken, C. Adamo, J. Jaramillo, R. Gomperts, R. E. Stratmann, 
 O. Yazyev, A. J. Austin, R. Cammi, C. Pomelli, J. W. Ochterski, 
 R. L. Martin, K. Morokuma, V. G. Zakrzewski, G. A. Voth, 
 P. Salvador, J. J. Dannenberg, S. Dapprich, A. D. Daniels, 
 O. Farkas, J. B. Foresman, J. V. Ortiz, J. Cioslowski, 
 and D. J. Fox, Gaussian, Inc., Wallingford CT, 2013.
 
 ******************************************
 Gaussian 09:  AM64L-G09RevD.01 24-Apr-2013
                17-Jan-2014 
 ******************************************
 %mem=1800mb
 ------------------------------------------------------------------
 # hf/gen pseudo=read pop=(mk, readradii) iop(6/33=2,6/41=5,6/42=2)
 ------------------------------------------------------------------
 1/38=1/1;
 2/12=2,17=6,18=5,40=1/2;
 3/5=7,11=9,16=1,17=8,25=1,30=1/1,2,3;
 4//1;
 5/5=2,38=5/2;
 6/7=2,8=2,9=2,10=2,15=8,20=101,28=1,33=2,41=5,42=2/1,2;
 99/5=1,9=1/99;
 -------
 na resp
 -------
 Symbolic Z-matrix:
 Charge =  0 Multiplicity = 1
 6                    -4.55712   1.19055   1.79797 
 6                    -3.76961   0.29902   0.88748 
 6                    -4.22135  -0.85576   0.1774 
 6                    -3.13377  -1.34057  -0.50177 
 7                    -2.09295  -0.46733  -0.19799 
 7                    -2.49051   0.53122   0.66154 
 6                    -0.75106  -0.58332  -0.61033 
 8                    -0.33467  -1.61938  -1.09623 
 6                     0.11895   0.60982  -0.44731 
 6                     1.50001   0.62712  -0.12403 
 6                     1.87438   1.95102  -0.22598 
 7                     0.76336   2.63467  -0.61372 
 7                    -0.30956   1.84345  -0.74391 
 6                     0.62194   4.06718  -0.81427 
 53                    2.7836   -0.93754   0.45237 
 6                    -3.0217   -2.52447  -1.40834 
 1                    -4.98555   0.62582   2.6349 
 1                    -3.91175   1.97503   2.20133 
 1                    -5.39018   1.66533   1.26511 
 1                    -5.21831  -1.27514   0.16898 
 1                     2.82341   2.43757  -0.05746 
 1                     0.17613   4.53769   0.06784 
 1                     1.60671   4.50049  -1.00152 
 1                    -0.02425   4.23641  -1.67734 
 1                    -2.35769  -3.28891  -0.99468 
 1                    -4.01627  -2.95672  -1.55376 
 1                    -2.612    -2.25056  -2.38584 
 
                          Input orientation:                          
 ---------------------------------------------------------------------
 Center     Atomic      Atomic             Coordinates (Angstroms)
 Number     Number       Type             X           Y           Z
 ---------------------------------------------------------------------
      1          6           0       -4.557118    1.190546    1.797974
      2          6           0       -3.769611    0.299019    0.887480
      3          6           0       -4.221352   -0.855761    0.177402
      4          6           0       -3.133775   -1.340568   -0.501774
      5          7           0       -2.092952   -0.467329   -0.197988
      6          7           0       -2.490508    0.531218    0.661537
      7          6           0       -0.751063   -0.583319   -0.610325
      8          8           0       -0.334674   -1.619382   -1.096232
      9          6           0        0.118948    0.609820   -0.447310
     10          6           0        1.500014    0.627115   -0.124027
     11          6           0        1.874383    1.951020   -0.225976
     12          7           0        0.763356    2.634673   -0.613715
     13          7           0       -0.309555    1.843446   -0.743906
     14          6           0        0.621939    4.067183   -0.814269
     15         53           0        2.783599   -0.937538    0.452373
     16          6           0       -3.021702   -2.524470   -1.408340
     17          1           0       -4.985545    0.625817    2.634903
     18          1           0       -3.911745    1.975029    2.201327
     19          1           0       -5.390179    1.665328    1.265107
     20          1           0       -5.218307   -1.275141    0.168977
     21          1           0        2.823406    2.437570   -0.057462
     22          1           0        0.176130    4.537694    0.067841
     23          1           0        1.606706    4.500487   -1.001519
     24          1           0       -0.024248    4.236414   -1.677335
     25          1           0       -2.357692   -3.288910   -0.994677
     26          1           0       -4.016267   -2.956720   -1.553755
     27          1           0       -2.612000   -2.250562   -2.385841
 ---------------------------------------------------------------------
                    Distance matrix (angstroms):
                    1          2          3          4          5
     1  C    0.000000
     2  C    1.497994   0.000000
     3  C    2.631799   1.428915   0.000000
     4  C    3.704225   2.241107   1.370818   0.000000
     5  N    3.578342   2.139326   2.195879   1.392173   0.000000
     6  N    2.448893   1.319497   2.270224   2.295793   1.376201
     7  C    4.840719   3.483328   3.568984   2.502504   1.408596
     8  O    5.839620   4.406151   4.160712   2.875080   2.285959
     9  C    5.219592   4.123003   4.623462   3.793045   2.472835
    10  C    6.379686   5.375848   5.918092   5.048413   3.756685
    11  C    6.785197   5.985279   6.722999   5.999355   4.646390
    12  N    6.017407   5.315699   6.136474   5.568007   4.237185
    13  N    4.992917   4.125368   4.841145   4.262956   2.969548
    14  C    6.474680   6.031643   6.976837   6.591420   5.320924
    15  I    7.760510   6.683035   7.010823   6.007341   4.942147
    16  C    5.141916   3.715138   2.595829   1.495342   2.561124
    17  H    1.096776   2.153783   2.969575   4.139380   4.193726
    18  H    1.092984   2.134340   3.493637   4.348008   3.876833
    19  H    1.096976   2.153054   2.984150   4.153148   4.190534
    20  H    3.028269   2.256756   1.081605   2.190767   3.248856
    21  H    7.711669   6.995298   7.780090   7.068221   5.712159
    22  H    6.049826   5.848679   6.959828   6.770074   5.501786
    23  H    7.535622   7.079932   8.002844   7.539219   6.245985
    24  H    6.473175   6.009085   6.854632   6.492598   5.347261
    25  H    5.718558   4.290602   3.281343   2.154366   2.943827
    26  H    5.359704   4.076801   2.730017   2.120708   3.425538
    27  H    5.755781   4.307558   3.332521   2.156397   2.869849
                    6          7          8          9         10
     6  N    0.000000
     7  C    2.426004   0.000000
     8  O    3.516028   1.217749   0.000000
     9  C    2.836367   1.485622   2.365632   0.000000
    10  C    4.068240   2.601727   3.059087   1.418504   0.000000
    11  C    4.675018   3.669273   4.287779   2.220216   1.379591
    12  N    4.079022   3.556536   4.419896   2.131427   2.193798
    13  N    2.907536   2.470215   3.480796   1.339185   2.266771
    14  C    4.936434   4.853236   5.773355   3.512978   3.616838
    15  I    5.478795   3.707915   3.547776   3.210002   2.104273
    16  C    3.728778   3.092038   2.852493   4.539938   5.659317
    17  H    3.182504   5.470316   6.371255   5.962897   7.047991
    18  H    2.544692   4.943728   6.048894   5.012540   6.042456
    19  H    3.171529   5.485896   6.474826   5.864891   7.105092
    20  H    3.308540   4.587178   5.056592   5.693784   6.988581
    21  H    5.691118   4.712564   5.245128   3.287361   2.243556
    22  H    4.849256   5.248273   6.286937   3.961924   4.133051
    23  H    5.942055   5.617579   6.421115   4.202126   3.972957
    24  H    5.028045   4.989649   5.892741   3.832186   4.214639
    25  H    4.165821   3.170048   2.624926   4.651177   5.565535
    26  H    4.404676   4.145437   3.943593   5.571753   6.731816
    27  H    4.127902   3.065166   2.692154   4.404289   5.505042
                   11         12         13         14         15
    11  C    0.000000
    12  N    1.360920   0.000000
    13  N    2.247089   1.339451   0.000000
    14  C    2.528409   1.453377   2.411978   0.000000
    15  I    3.103321   4.240120   4.328112   5.596819   0.000000
    16  C    6.737926   6.447856   5.184198   7.555060   6.299375
    17  H    7.549795   6.902093   5.896088   7.428571   8.219922
    18  H    6.274684   5.496923   4.654835   5.833114   7.507964
    19  H    7.421510   6.506581   5.466315   6.799873   8.616617
    20  H    7.801946   7.188849   5.886832   7.975943   8.014037
    21  H    1.079709   2.142912   3.261845   2.841628   3.413630
    22  H    3.108259   2.104957   2.855485   1.094643   6.076588
    23  H    2.678227   2.083961   3.286075   1.092054   5.750739
    24  H    3.306701   2.077783   2.584373   1.091366   6.260147
    25  H    6.779250   6.706333   5.531621   7.938693   5.835733
    26  H    7.781302   7.415669   6.118592   8.449557   7.371555
    27  H    6.515055   6.196691   4.975752   7.269257   6.236343
                   16         17         18         19         20
    16  C    0.000000
    17  H    5.488971   0.000000
    18  H    5.836725   1.778035   0.000000
    19  H    5.505580   1.766537   1.777130   0.000000
    20  H    2.978897   3.122276   4.049834   3.142833   0.000000
    21  H    7.785371   8.456417   7.118871   8.355150   8.860285
    22  H    7.891730   6.966741   5.275390   6.377125   7.930903
    23  H    8.422451   8.467255   6.862176   7.882393   9.017136
    24  H    7.400449   7.499752   5.938898   6.637896   7.795149
    25  H    1.093798   5.950172   6.351266   6.232742   3.686797
    26  H    1.094141   5.596332   6.199493   5.585423   2.690802
    27  H    1.094710   6.254210   6.370798   6.031741   3.777748
                   21         22         23         24         25
    21  H    0.000000
    22  H    3.381463   0.000000
    23  H    2.574341   1.786467   0.000000
    24  H    3.737507   1.782291   1.785069   0.000000
    25  H    7.779121   8.294874   8.740206   7.908317   0.000000
    26  H    8.838461   8.739108   9.355893   8.227555   1.781513
    27  H    7.546096   7.737871   8.080253   7.019922   1.754473
                   26         27
    26  H    0.000000
    27  H    1.778480   0.000000
 Stoichiometry    C10H11IN4O
 Framework group  C1[X(C10H11IN4O)]
 Deg. of freedom    75
 Full point group                 C1      NOp   1
 Largest Abelian subgroup         C1      NOp   1
 Largest concise Abelian subgroup C1      NOp   1
                         Standard orientation:                         
 ---------------------------------------------------------------------
 Center     Atomic      Atomic             Coordinates (Angstroms)
 Number     Number       Type             X           Y           Z
 ---------------------------------------------------------------------
      1          6           0       -4.557118    1.190546    1.797974
      2          6           0       -3.769611    0.299019    0.887480
      3          6           0       -4.221352   -0.855761    0.177402
      4          6           0       -3.133775   -1.340568   -0.501774
      5          7           0       -2.092952   -0.467329   -0.197988
      6          7           0       -2.490508    0.531218    0.661537
      7          6           0       -0.751063   -0.583319   -0.610325
      8          8           0       -0.334674   -1.619382   -1.096232
      9          6           0        0.118948    0.609820   -0.447310
     10          6           0        1.500014    0.627115   -0.124027
     11          6           0        1.874383    1.951020   -0.225976
     12          7           0        0.763356    2.634673   -0.613715
     13          7           0       -0.309555    1.843446   -0.743906
     14          6           0        0.621939    4.067183   -0.814269
     15         53           0        2.783599   -0.937538    0.452373
     16          6           0       -3.021702   -2.524470   -1.408340
     17          1           0       -4.985545    0.625817    2.634903
     18          1           0       -3.911745    1.975029    2.201327
     19          1           0       -5.390179    1.665328    1.265107
     20          1           0       -5.218307   -1.275141    0.168977
     21          1           0        2.823406    2.437570   -0.057462
     22          1           0        0.176130    4.537694    0.067841
     23          1           0        1.606706    4.500487   -1.001519
     24          1           0       -0.024248    4.236414   -1.677335
     25          1           0       -2.357692   -3.288910   -0.994677
     26          1           0       -4.016267   -2.956720   -1.553755
     27          1           0       -2.612000   -2.250562   -2.385841
 ---------------------------------------------------------------------
 Rotational constants (GHZ):      0.5257497      0.2117759      0.1692626
 General basis read from cards:  (5D, 7F)
 ======================================================================================================
                                       Pseudopotential Parameters
 ======================================================================================================
  Center     Atomic      Valence      Angular      Power
  Number     Number     Electrons     Momentum     of R      Exponent        Coefficient   SO-Coeffient
 ======================================================================================================
    1          6
                                   No pseudopotential on this center.
    2          6
                                   No pseudopotential on this center.
    3          6
                                   No pseudopotential on this center.
    4          6
                                   No pseudopotential on this center.
    5          7
                                   No pseudopotential on this center.
    6          7
                                   No pseudopotential on this center.
    7          6
                                   No pseudopotential on this center.
    8          8
                                   No pseudopotential on this center.
    9          6
                                   No pseudopotential on this center.
   10          6
                                   No pseudopotential on this center.
   11          6
                                   No pseudopotential on this center.
   12          7
                                   No pseudopotential on this center.
   13          7
                                   No pseudopotential on this center.
   14          6
                                   No pseudopotential on this center.
   15         53            7
                                      F and up 
                                                     0        1.0715702       -0.07476210    0.00000000
                                                     1       44.1936028      -30.08112240    0.00000000
                                                     2       12.9367609      -75.37227210    0.00000000
                                                     2        3.1956412      -22.05637580    0.00000000
                                                     2        0.8589806       -1.69795850    0.00000000
                                      S - F
                                                     0      127.9202670        2.93800360    0.00000000
                                                     1       78.6211465       41.24712670    0.00000000
                                                     2       36.5146237      287.86800950    0.00000000
                                                     2        9.9065681      114.37585060    0.00000000
                                                     2        1.9420086       37.65477140    0.00000000
                                      P - F
                                                     0       13.0035304        2.22226300    0.00000000
                                                     1       76.0331404       39.40908310    0.00000000
                                                     2       24.1961684      177.40750020    0.00000000
                                                     2        6.4053433       77.98894620    0.00000000
                                                     2        1.5851786       25.75476410    0.00000000
                                      D - F
                                                     0       40.4278108        7.05243600    0.00000000
                                                     1       28.9084375       33.30416350    0.00000000
                                                     2       15.6268936      186.94538750    0.00000000
                                                     2        4.1442856       71.96883610    0.00000000
                                                     2        0.9377235        9.36306570    0.00000000
   16          6
                                   No pseudopotential on this center.
   17          1
                                   No pseudopotential on this center.
   18          1
                                   No pseudopotential on this center.
   19          1
                                   No pseudopotential on this center.
   20          1
                                   No pseudopotential on this center.
   21          1
                                   No pseudopotential on this center.
   22          1
                                   No pseudopotential on this center.
   23          1
                                   No pseudopotential on this center.
   24          1
                                   No pseudopotential on this center.
   25          1
                                   No pseudopotential on this center.
   26          1
                                   No pseudopotential on this center.
   27          1
                                   No pseudopotential on this center.
 ======================================================================================================
 There are   255 symmetry adapted cartesian basis functions of A   symmetry.
 There are   240 symmetry adapted basis functions of A   symmetry.
   240 basis functions,   476 primitive gaussians,   255 cartesian basis functions
    57 alpha electrons       57 beta electrons
       nuclear repulsion energy      1036.1711065629 Hartrees.
 NAtoms=   27 NActive=   27 NUniq=   27 SFac= 1.00D+00 NAtFMM=   60 NAOKFM=F Big=F
 Integral buffers will be    131072 words long.
 Raffenetti 1 integral format.
 Two-electron integral symmetry is turned on.
 One-electron integrals computed using PRISM.
   1 Symmetry operations used in ECPInt.
 ECPInt:  NShTT=    3741 NPrTT=   23525 LenC2=    3411 LenP2D=   12967.
 LDataN:  DoStor=T MaxTD1= 5 Len=  102
 NBasis=   240 RedAO= T EigKep=  1.04D-03  NBF=   240
 NBsUse=   240 1.00D-06 EigRej= -1.00D+00 NBFU=   240
 ExpMin= 1.05D-01 ExpMax= 5.48D+03 ExpMxC= 8.25D+02 IAcc=1 IRadAn=         1 AccDes= 0.00D+00
 Harris functional with IExCor=  205 and IRadAn=       1 diagonalized for initial guess.
 HarFok:  IExCor=  205 AccDes= 0.00D+00 IRadAn=         1 IDoV= 1 UseB2=F ITyADJ=14
 ICtDFT=  3500011 ScaDFX=  1.000000  1.000000  1.000000  1.000000
 Defaulting to unpruned grid for atomic number  53.
 FoFCou: FMM=F IPFlag=           0 FMFlag=      100000 FMFlg1=           0
         NFxFlg=           0 DoJE=T BraDBF=F KetDBF=T FulRan=T
         wScrn=  0.000000 ICntrl=     500 IOpCl=  0 I1Cent=   200000004 NGrid=           0
         NMat0=    1 NMatS0=      1 NMatT0=    0 NMatD0=    1 NMtDS0=    0 NMtDT0=    0
 Petite list used in FoFCou.
 Requested convergence on RMS density matrix=1.00D-08 within 128 cycles.
 Requested convergence on MAX density matrix=1.00D-06.
 Requested convergence on             energy=1.00D-06.
 No special actions if energy rises.
 Integral accuracy reduced to 1.0D-05 until final iterations.
 Initial convergence to 1.0D-05 achieved.  Increase integral accuracy.
 SCF Done:  E(RHF) =  -688.842873050     A.U. after   16 cycles
            NFock= 16  Conv=0.81D-08     -V/T= 2.0134

 **********************************************************************

            Population analysis using the SCF density.

 **********************************************************************

 Orbital symmetries:
 BldTbl:  Degeneracy threshold= 1.00D-02
       Occupied  (A) (A) (A) (A) (A) (A) (A) (A) (A) (A) (A) (A)
                 (A) (A) (A) (A) (A) (A) (A) (A) (A) (A) (A) (A)
                 (A) (A) (A) (A) (A) (A) (A) (A) (A) (A) (A) (A)
                 (A) (A) (A) (A) (A) (A) (A) (A) (A) (A) (A) (A)
                 (A) (A) (A) (A) (A) (A) (A) (A) (A)
       Virtual   (A) (A) (A) (A) (A) (A) (A) (A) (A) (A) (A) (A)
                 (A) (A) (A) (A) (A) (A) (A) (A) (A) (A) (A) (A)
                 (A) (A) (A) (A) (A) (A) (A) (A) (A) (A) (A) (A)
                 (A) (A) (A) (A) (A) (A) (A) (A) (A) (A) (A) (A)
                 (A) (A) (A) (A) (A) (A) (A) (A) (A) (A) (A) (A)
                 (A) (A) (A) (A) (A) (A) (A) (A) (A) (A) (A) (A)
                 (A) (A) (A) (A) (A) (A) (A) (A) (A) (A) (A) (A)
                 (A) (A) (A) (A) (A) (A) (A) (A) (A) (A) (A) (A)
                 (A) (A) (A) (A) (A) (A) (A) (A) (A) (A) (A) (A)
                 (A) (A) (A) (A) (A) (A) (A) (A) (A) (A) (A) (A)
                 (A) (A) (A) (A) (A) (A) (A) (A) (A) (A) (A) (A)
                 (A) (A) (A) (A) (A) (A) (A) (A) (A) (A) (A) (A)
                 (A) (A) (A) (A) (A) (A) (A) (A) (A) (A) (A) (A)
                 (A) (A) (A) (A) (A) (A) (A) (A) (A) (A) (A) (A)
                 (A) (A) (A) (A) (A) (A) (A) (A) (A) (A) (A) (A)
                 (A) (A) (A)
 The electronic state is 1-A.
 Alpha  occ. eigenvalues --  -20.55517 -15.66765 -15.64320 -15.61311 -15.58353
 Alpha  occ. eigenvalues --  -11.38237 -11.29348 -11.28924 -11.28669 -11.28280
 Alpha  occ. eigenvalues --  -11.28177 -11.26698 -11.22831 -11.22428 -11.21827
 Alpha  occ. eigenvalues --   -1.41621  -1.39925  -1.35393  -1.15105  -1.12719
 Alpha  occ. eigenvalues --   -1.08351  -1.07733  -0.98899  -0.97081  -0.95673
 Alpha  occ. eigenvalues --   -0.90359  -0.86082  -0.80579  -0.79268  -0.77394
 Alpha  occ. eigenvalues --   -0.73431  -0.70880  -0.67159  -0.66582  -0.64224
 Alpha  occ. eigenvalues --   -0.62783  -0.61281  -0.59635  -0.59038  -0.58314
 Alpha  occ. eigenvalues --   -0.57351  -0.56901  -0.56655  -0.55250  -0.54057
 Alpha  occ. eigenvalues --   -0.51875  -0.51651  -0.50521  -0.46730  -0.45325
 Alpha  occ. eigenvalues --   -0.44358  -0.41082  -0.36505  -0.36250  -0.35355
 Alpha  occ. eigenvalues --   -0.33713  -0.32460
 Alpha virt. eigenvalues --    0.10461   0.11977   0.15209   0.18770   0.22964
 Alpha virt. eigenvalues --    0.23302   0.26100   0.26276   0.26651   0.27269
 Alpha virt. eigenvalues --    0.28662   0.29642   0.30659   0.30919   0.32092
 Alpha virt. eigenvalues --    0.32513   0.34348   0.34985   0.38790   0.39894
 Alpha virt. eigenvalues --    0.40421   0.40953   0.42880   0.45154   0.46243
 Alpha virt. eigenvalues --    0.49166   0.50840   0.51112   0.51727   0.54979
 Alpha virt. eigenvalues --    0.55423   0.61321   0.61667   0.63372   0.64921
 Alpha virt. eigenvalues --    0.67301   0.70515   0.70707   0.73015   0.74283
 Alpha virt. eigenvalues --    0.75511   0.75976   0.77118   0.78201   0.79666
 Alpha virt. eigenvalues --    0.80536   0.81417   0.81670   0.83373   0.85114
 Alpha virt. eigenvalues --    0.85646   0.88668   0.89032   0.90277   0.90738
 Alpha virt. eigenvalues --    0.92506   0.93063   0.94924   0.96645   0.98143
 Alpha virt. eigenvalues --    0.98591   0.99173   1.01068   1.02381   1.04457
 Alpha virt. eigenvalues --    1.04997   1.06349   1.09320   1.10110   1.10970
 Alpha virt. eigenvalues --    1.11887   1.13145   1.13770   1.14574   1.14964
 Alpha virt. eigenvalues --    1.16010   1.17799   1.18056   1.19392   1.20949
 Alpha virt. eigenvalues --    1.21258   1.22416   1.23059   1.23456   1.26075
 Alpha virt. eigenvalues --    1.27345   1.27749   1.30324   1.30514   1.36133
 Alpha virt. eigenvalues --    1.36567   1.39784   1.42044   1.45879   1.48433
 Alpha virt. eigenvalues --    1.50626   1.55004   1.56801   1.59862   1.60839
 Alpha virt. eigenvalues --    1.61067   1.61513   1.63067   1.63335   1.67045
 Alpha virt. eigenvalues --    1.68336   1.69157   1.70952   1.74718   1.76957
 Alpha virt. eigenvalues --    1.79944   1.81758   1.84472   1.86201   1.90760
 Alpha virt. eigenvalues --    1.94170   1.99240   2.05590   2.06604   2.09244
 Alpha virt. eigenvalues --    2.10063   2.11529   2.12637   2.14795   2.17148
 Alpha virt. eigenvalues --    2.18828   2.21520   2.21961   2.22956   2.23287
 Alpha virt. eigenvalues --    2.24700   2.27273   2.27900   2.30070   2.32327
 Alpha virt. eigenvalues --    2.35297   2.38817   2.41666   2.43070   2.45390
 Alpha virt. eigenvalues --    2.47221   2.47921   2.48865   2.51938   2.54605
 Alpha virt. eigenvalues --    2.56202   2.57479   2.58166   2.58562   2.60537
 Alpha virt. eigenvalues --    2.63367   2.64461   2.65944   2.67553   2.69367
 Alpha virt. eigenvalues --    2.70739   2.72506   2.78001   2.79733   2.81435
 Alpha virt. eigenvalues --    2.82539   2.87494   2.89039   2.91761   2.93219
 Alpha virt. eigenvalues --    2.97841   3.00575   3.03793   3.08022   3.10426
 Alpha virt. eigenvalues --    3.15590   3.17530   3.19591   3.22496   3.28688
 Alpha virt. eigenvalues --    3.36115   3.37947   3.43890   3.45471   3.48044
 Alpha virt. eigenvalues --    3.61713   3.70945  10.14365
          Condensed to atoms (all electrons):
               1          2          3          4          5          6
     1  C    5.139743   0.332377  -0.050612   0.002487   0.005012  -0.051934
     2  C    0.332377   4.645972   0.481283  -0.060274  -0.168576   0.560008
     3  C   -0.050612   0.481283   5.124499   0.633140  -0.045101  -0.048481
     4  C    0.002487  -0.060274   0.633140   4.642842   0.272089  -0.111097
     5  N    0.005012  -0.168576  -0.045101   0.272089   7.270799   0.263997
     6  N   -0.051934   0.560008  -0.048481  -0.111097   0.263997   6.747374
     7  C   -0.000035   0.000944   0.003662  -0.028397   0.248056  -0.031113
     8  O    0.000000  -0.000264   0.000633   0.002155  -0.090746   0.001412
     9  C   -0.000008  -0.000177  -0.000194   0.002134  -0.108814   0.004103
    10  C    0.000000   0.000022  -0.000001  -0.000050   0.003221  -0.000548
    11  C    0.000000  -0.000001   0.000000   0.000000  -0.000175   0.000043
    12  N    0.000000  -0.000001   0.000000   0.000002  -0.000172   0.000282
    13  N    0.000018   0.000083  -0.000067   0.000022   0.004600  -0.010408
    14  C    0.000000   0.000000   0.000000   0.000000   0.000005  -0.000011
    15  I    0.000000  -0.000003   0.000002  -0.000003  -0.000282   0.000020
    16  C   -0.000054   0.003446  -0.038749   0.335642  -0.040817   0.001647
    17  H    0.387775  -0.039600  -0.000234   0.000002  -0.000063   0.000331
    18  H    0.390074  -0.038947   0.002684   0.000045  -0.000154   0.002215
    19  H    0.387278  -0.039185  -0.000349  -0.000028  -0.000084   0.000203
    20  H    0.000536  -0.021448   0.373544  -0.023864   0.004109   0.003597
    21  H    0.000000   0.000000   0.000000   0.000000   0.000000   0.000000
    22  H    0.000000   0.000000   0.000000   0.000000  -0.000001   0.000001
    23  H    0.000000   0.000000   0.000000   0.000000   0.000000   0.000000
    24  H    0.000000   0.000000   0.000000   0.000000   0.000001   0.000000
    25  H    0.000002  -0.000041  -0.000198  -0.033813  -0.001912   0.000031
    26  H   -0.000004   0.000038  -0.004263  -0.041105   0.002867  -0.000077
    27  H    0.000002  -0.000063   0.000736  -0.034545  -0.002493   0.000030
               7          8          9         10         11         12
     1  C   -0.000035   0.000000  -0.000008   0.000000   0.000000   0.000000
     2  C    0.000944  -0.000264  -0.000177   0.000022  -0.000001  -0.000001
     3  C    0.003662   0.000633  -0.000194  -0.000001   0.000000   0.000000
     4  C   -0.028397   0.002155   0.002134  -0.000050   0.000000   0.000002
     5  N    0.248056  -0.090746  -0.108814   0.003221  -0.000175  -0.000172
     6  N   -0.031113   0.001412   0.004103  -0.000548   0.000043   0.000282
     7  C    4.095697   0.616808   0.367150  -0.040800   0.003807   0.002630
     8  O    0.616808   8.131995  -0.082536   0.000479   0.000202  -0.000068
     9  C    0.367150  -0.082536   4.888418   0.435344  -0.055170  -0.152733
    10  C   -0.040800   0.000479   0.435344   5.484037   0.547175  -0.055845
    11  C    0.003807   0.000202  -0.055170   0.547175   4.845676   0.339305
    12  N    0.002630  -0.000068  -0.152733  -0.055845   0.339305   6.885132
    13  N   -0.044862   0.000738   0.484490  -0.037340  -0.119228   0.309273
    14  C   -0.000072   0.000000   0.003822   0.004928  -0.038127   0.218222
    15  I    0.004674  -0.003368  -0.029793   0.202100  -0.045772   0.002681
    16  C   -0.002246  -0.006792  -0.000149  -0.000001   0.000000   0.000000
    17  H    0.000000   0.000000   0.000000   0.000000   0.000000   0.000000
    18  H   -0.000014   0.000000   0.000005   0.000000   0.000000   0.000000
    19  H    0.000003   0.000000  -0.000001   0.000000   0.000000   0.000000
    20  H   -0.000025   0.000003   0.000003   0.000000   0.000000   0.000000
    21  H    0.000003   0.000000   0.003408  -0.020055   0.380578  -0.030455
    22  H    0.000009   0.000000   0.000117  -0.000127   0.000179  -0.043190
    23  H   -0.000001   0.000000  -0.000325   0.000444  -0.001709  -0.036520
    24  H   -0.000011   0.000000   0.000309  -0.000096   0.001957  -0.037494
    25  H    0.000114   0.001334  -0.000004   0.000000   0.000000   0.000000
    26  H    0.000133   0.000477   0.000013   0.000000   0.000000   0.000000
    27  H    0.000520   0.000396  -0.000073   0.000000   0.000000   0.000000
              13         14         15         16         17         18
     1  C    0.000018   0.000000   0.000000  -0.000054   0.387775   0.390074
     2  C    0.000083   0.000000  -0.000003   0.003446  -0.039600  -0.038947
     3  C   -0.000067   0.000000   0.000002  -0.038749  -0.000234   0.002684
     4  C    0.000022   0.000000  -0.000003   0.335642   0.000002   0.000045
     5  N    0.004600   0.000005  -0.000282  -0.040817  -0.000063  -0.000154
     6  N   -0.010408  -0.000011   0.000020   0.001647   0.000331   0.002215
     7  C   -0.044862  -0.000072   0.004674  -0.002246   0.000000  -0.000014
     8  O    0.000738   0.000000  -0.003368  -0.006792   0.000000   0.000000
     9  C    0.484490   0.003822  -0.029793  -0.000149   0.000000   0.000005
    10  C   -0.037340   0.004928   0.202100  -0.000001   0.000000   0.000000
    11  C   -0.119228  -0.038127  -0.045772   0.000000   0.000000   0.000000
    12  N    0.309273   0.218222   0.002681   0.000000   0.000000   0.000000
    13  N    6.743233  -0.050247   0.001446  -0.000002   0.000000  -0.000007
    14  C   -0.050247   4.960292  -0.000095   0.000000   0.000000   0.000000
    15  I    0.001446  -0.000095   6.591197  -0.000002   0.000000   0.000000
    16  C   -0.000002   0.000000  -0.000002   5.098814  -0.000002   0.000001
    17  H    0.000000   0.000000   0.000000  -0.000002   0.522073  -0.022594
    18  H   -0.000007   0.000000   0.000000   0.000001  -0.022594   0.483597
    19  H    0.000001   0.000000   0.000000  -0.000001  -0.031572  -0.022569
    20  H    0.000000   0.000000   0.000000   0.000314   0.000300  -0.000071
    21  H    0.001640   0.000299   0.001855   0.000000   0.000000   0.000000
    22  H    0.000044   0.393098   0.000000   0.000000   0.000000   0.000000
    23  H    0.003224   0.393431  -0.000011   0.000000   0.000000   0.000000
    24  H    0.000943   0.395188   0.000003   0.000000   0.000000   0.000000
    25  H    0.000000   0.000000   0.000001   0.387697   0.000000   0.000000
    26  H    0.000000   0.000000   0.000000   0.385146   0.000000   0.000000
    27  H   -0.000001   0.000000   0.000001   0.388705   0.000000   0.000000
              19         20         21         22         23         24
     1  C    0.387278   0.000536   0.000000   0.000000   0.000000   0.000000
     2  C   -0.039185  -0.021448   0.000000   0.000000   0.000000   0.000000
     3  C   -0.000349   0.373544   0.000000   0.000000   0.000000   0.000000
     4  C   -0.000028  -0.023864   0.000000   0.000000   0.000000   0.000000
     5  N   -0.000084   0.004109   0.000000  -0.000001   0.000000   0.000001
     6  N    0.000203   0.003597   0.000000   0.000001   0.000000   0.000000
     7  C    0.000003  -0.000025   0.000003   0.000009  -0.000001  -0.000011
     8  O    0.000000   0.000003   0.000000   0.000000   0.000000   0.000000
     9  C   -0.000001   0.000003   0.003408   0.000117  -0.000325   0.000309
    10  C    0.000000   0.000000  -0.020055  -0.000127   0.000444  -0.000096
    11  C    0.000000   0.000000   0.380578   0.000179  -0.001709   0.001957
    12  N    0.000000   0.000000  -0.030455  -0.043190  -0.036520  -0.037494
    13  N    0.000001   0.000000   0.001640   0.000044   0.003224   0.000943
    14  C    0.000000   0.000000   0.000299   0.393098   0.393431   0.395188
    15  I    0.000000   0.000000   0.001855   0.000000  -0.000011   0.000003
    16  C   -0.000001   0.000314   0.000000   0.000000   0.000000   0.000000
    17  H   -0.031572   0.000300   0.000000   0.000000   0.000000   0.000000
    18  H   -0.022569  -0.000071   0.000000   0.000000   0.000000   0.000000
    19  H    0.522540   0.000257   0.000000   0.000000   0.000000   0.000000
    20  H    0.000257   0.447829   0.000000   0.000000   0.000000   0.000000
    21  H    0.000000   0.000000   0.412949   0.000048   0.000231  -0.000053
    22  H    0.000000   0.000000   0.000048   0.500561  -0.029067  -0.028727
    23  H    0.000000   0.000000   0.000231  -0.029067   0.504282  -0.022220
    24  H    0.000000   0.000000  -0.000053  -0.028727  -0.022220   0.471061
    25  H    0.000000  -0.000007   0.000000   0.000000   0.000000   0.000000
    26  H    0.000000   0.001052   0.000000   0.000000   0.000000   0.000000
    27  H    0.000000  -0.000014   0.000000   0.000000   0.000000   0.000000
              25         26         27
     1  C    0.000002  -0.000004   0.000002
     2  C   -0.000041   0.000038  -0.000063
     3  C   -0.000198  -0.004263   0.000736
     4  C   -0.033813  -0.041105  -0.034545
     5  N   -0.001912   0.002867  -0.002493
     6  N    0.000031  -0.000077   0.000030
     7  C    0.000114   0.000133   0.000520
     8  O    0.001334   0.000477   0.000396
     9  C   -0.000004   0.000013  -0.000073
    10  C    0.000000   0.000000   0.000000
    11  C    0.000000   0.000000   0.000000
    12  N    0.000000   0.000000   0.000000
    13  N    0.000000   0.000000  -0.000001
    14  C    0.000000   0.000000   0.000000
    15  I    0.000001   0.000000   0.000001
    16  C    0.387697   0.385146   0.388705
    17  H    0.000000   0.000000   0.000000
    18  H    0.000000   0.000000   0.000000
    19  H    0.000000   0.000000   0.000000
    20  H   -0.000007   0.001052  -0.000014
    21  H    0.000000   0.000000   0.000000
    22  H    0.000000   0.000000   0.000000
    23  H    0.000000   0.000000   0.000000
    24  H    0.000000   0.000000   0.000000
    25  H    0.480140  -0.024870  -0.026721
    26  H   -0.024870   0.527757  -0.025722
    27  H   -0.026721  -0.025722   0.495098
 Mulliken charges:
               1
     1  C   -0.542658
     2  C    0.344405
     3  C   -0.431930
     4  C    0.442616
     5  N   -0.615366
     6  N   -0.331626
     7  C    0.803365
     8  O   -0.572858
     9  C    0.240660
    10  C   -0.522888
    11  C    0.141262
    12  N   -0.401049
    13  N   -0.287593
    14  C   -0.280735
    15  I    0.275349
    16  C   -0.512597
    17  H    0.183584
    18  H    0.205734
    19  H    0.183507
    20  H    0.213884
    21  H    0.249550
    22  H    0.207054
    23  H    0.188242
    24  H    0.219140
    25  H    0.218248
    26  H    0.178556
    27  H    0.204145
 Sum of Mulliken charges =   0.00000
 Mulliken charges with hydrogens summed into heavy atoms:
               1
     1  C    0.030166
     2  C    0.344405
     3  C   -0.218047
     4  C    0.442616
     5  N   -0.615366
     6  N   -0.331626
     7  C    0.803365
     8  O   -0.572858
     9  C    0.240660
    10  C   -0.522888
    11  C    0.390812
    12  N   -0.401049
    13  N   -0.287593
    14  C    0.333701
    15  I    0.275349
    16  C    0.088353
 DipInt: DoE/N= T F RetVal/Mat= T F Init=T NMatP=  1 IDeriv=0 Min/MaxMlt=  0  4
 Entering OneElI...
 OneElI was handed   235760648 working-precision words.
 Multipole integrals L=0 to 4 MinM= 0 MaxM= 0.
 Requested accuracy = 0.1000D-12
 ShPair: Thresh= 1.00D-13 NBox=     0 BxSize= 0.00D+00 RnKept= 1.77D+01
         NSMCal=                 3741 NSMKep=                3148
 PrsmSu:  NPrtUS=   1 ThrOK=F IAlg=1 NPAlg=1 LenDen=           0.
 Prism:   IPart=     0 DynPar=F LinDyn=F Incr=          31.
 PRISM was handed   235480776 working-precision words and  3148 shell-pairs
 IPart=  0 NShTot=        3148 NBatch=         112 AvBLen=        28.1
 PrSmSu:  NxtVal=             32.
 Electronic moments (au):
       -114.00000000        241.71813639        -80.03929132         39.39289663
      -2711.81394726      -1468.02855075       -412.45150091       -420.25344281
        206.67728777        -71.70620405      15056.21818860      -4650.26246214
        -35.87498565       1007.86569261        636.42585101      -2231.96240690
       1700.48729954       -140.20713202       1823.07079603       1777.20581143
    -145412.41589674     -54602.60883446      -4496.93761358      -4029.83982678
      20424.43435091     -14239.01904157       4127.34536321       2973.88963285
      -1825.96712825     -21363.64145517     -15131.47849051      -6116.76899767
      -9641.05472885       -669.14538492       -215.54007519
 Electronic spatial extent (au):  <R**2>=           4592.2940
 DipInt: DoE/N= F T RetVal/Mat= T F Init=T NMatP=  1 IDeriv=0 Min/MaxMlt=  0  4
 Nuclear    moments (au):
        114.00000000       -241.97103713         81.49775530        -39.32361783
       2643.89246881       1400.72531109        331.27541159        428.69774728
       -206.85165961         69.66927336     -14862.17874887       4660.83512080
         73.52146028       -891.55288885       -675.64410130       2263.00405298
      -1621.98558275        114.85053942      -1824.18781805      -1800.69289712
     134698.34313142      50059.35129001       2969.45438878       3684.67355111
     -20316.48801933      13980.70413939      -4350.53240994      -2748.35162516
       1753.07678261      18778.48639675      12945.02794687       4990.76293517
       9677.60277023        774.28121638         49.46899212
 Total      moments (au):
          0.00000000         -0.25290074          1.45846398          0.06927881
        -67.92147846        -67.30323966        -81.17608932          8.44430447
         -0.17437183         -2.03693068        194.03943973         10.57265865
         37.64647463        116.31280375        -39.21825029         31.04164608
         78.50171679        -25.35659260         -1.11702202        -23.48708568
     -10714.07276532      -4543.25754444      -1527.48322480       -345.16627567
        107.94633158       -258.31490217       -223.18704673        225.53800769
        -72.89034564      -2585.15505842      -2186.45054364      -1126.00606250
         36.54804138        105.13583146       -166.07108308
 Traceless Quadrup. (au):
          4.21212402          4.83036282         -9.04248684          8.44430447
         -0.17437183         -2.03693068
 Charge=              0.0000 electrons
 Dipole moment (field-independent basis, Debye):
    X=             -0.6428    Y=              3.7070    Z=              0.1761  Tot=              3.7665
 Quadrupole moment (field-independent basis, Debye-Ang):
   XX=            -91.3567   YY=            -90.5252   ZZ=           -109.1846
   XY=             11.3579   XZ=             -0.2345   YZ=             -2.7397
 Traceless Quadrupole moment (field-independent basis, Debye-Ang):
   XX=              5.6655   YY=              6.4970   ZZ=            -12.1625
   XY=             11.3579   XZ=             -0.2345   YZ=             -2.7397
 Octapole moment (field-independent basis, Debye-Ang**2):
  XXX=            138.1098  YYY=              7.5252  ZZZ=             26.7953  XYY=             82.7870
  XXY=            -27.9140  XXZ=             22.0942  XZZ=             55.8745  YZZ=            -18.0478
  YYZ=             -0.7951  XYZ=            -16.7172
 Hexadecapole moment (field-independent basis, Debye-Ang**3):
 XXXX=          -4035.4333 YYYY=          -1711.2085 ZZZZ=           -575.3234 XXXY=           -130.0062
 XXXZ=             40.6578 YYYX=            -97.2938 YYYZ=            -84.0629 ZZZX=             84.9484
 ZZZY=            -27.4540 XXYY=           -973.6933 XXZZ=           -823.5221 YYZZ=           -424.1078
 XXYZ=             13.7657 YYXZ=             39.5992 ZZXY=            -62.5503
 N-N= 1.036171106563D+03 E-N=-3.678247024590D+03  KE= 6.797637216206D+02
 Entering OneElI...
 OneElI was handed   235799798 working-precision words.
 Calculate electrostatic properties
    NBasis =   240  MinDer = 0  MaxDer = 0
    NGrid  =    27  NMatD  =   1
 Requested accuracy = 0.1000D-12
 ShPair: Thresh= 1.00D-13 NBox=     0 BxSize= 0.00D+00 RnKept= 1.67D+01
         NSMCal=                 3741 NSMKep=                2806
 PrsmSu:  NPrtUS=   1 ThrOK=F IAlg=1 NPAlg=1 LenDen=           0.
 Prism:   IPart=     0 DynPar=F LinDyn=F Incr=         512.
 PRISM was handed   235548138 working-precision words and  2806 shell-pairs
 IPart=  0 NShTot=       75762 NBatch=        2894 AvBLen=        26.2
 PrSmSu:  NxtVal=            513.
 --------------------------------------------------------
       Center         ----      EFG at Nuclei      ----
                      3XX-RR        3YY-RR        3ZZ-RR
 --------------------------------------------------------
     1   Atom        0.020474     -0.005329     -0.015145
     2   Atom        0.099254      0.026469     -0.125723
     3   Atom        0.053804     -0.003302     -0.050502
     4   Atom        0.066741     -0.013023     -0.053719
     5   Atom       -0.266515     -0.037282      0.303797
     6   Atom        0.298730      0.047131     -0.345860
     7   Atom        0.068528      0.302563     -0.371091
     8   Atom        1.283647     -0.363338     -0.920309
     9   Atom        0.072269      0.039404     -0.111673
    10   Atom        0.021174     -0.037696      0.016522
    11   Atom        0.020107      0.148720     -0.168827
    12   Atom       -0.328646     -0.268659      0.597305
    13   Atom        0.470224     -0.260981     -0.209243
    14   Atom        0.155673     -0.322989      0.167316
    15   Atom       -0.009161     -0.028895      0.038056
    16   Atom        0.066325     -0.057416     -0.008909
    17   Atom        0.083194      0.026133     -0.109327
    18   Atom       -0.005893     -0.082625      0.088518
    19   Atom       -0.106420      0.066127      0.040294
    20   Atom       -0.250836      0.086139      0.164697
    21   Atom       -0.208541      0.049137      0.159404
    22   Atom        0.082165      0.054561     -0.136726
    23   Atom       -0.212872      0.065407      0.147465
    24   Atom        0.001642      0.123377     -0.125019
    25   Atom       -0.005832     -0.074152      0.079985
    26   Atom       -0.220312      0.077874      0.142438
    27   Atom        0.095335      0.112249     -0.207584
 --------------------------------------------------------
                        XY            XZ            YZ
 --------------------------------------------------------
     1   Atom        0.042181      0.029983     -0.028693
     2   Atom        0.054320     -0.100347      0.261836
     3   Atom        0.019716     -0.036303      0.079504
     4   Atom       -0.122384     -0.184432      0.244076
     5   Atom       -0.113781      0.232451     -0.594550
     6   Atom        0.758119      0.431767     -0.113042
     7   Atom        0.084977     -0.133126      0.269684
     8   Atom        1.075433     -0.379612     -0.085092
     9   Atom        0.022424      0.051072     -0.015065
    10   Atom        0.199960     -0.015546      0.071147
    11   Atom        0.151706      0.020333     -0.005417
    12   Atom       -0.146129     -0.221445      0.079975
    13   Atom       -0.723192      0.322716     -0.208647
    14   Atom        0.039075      0.004015      0.081630
    15   Atom        0.066237     -0.024399      0.031043
    16   Atom       -0.016022     -0.003094     -0.089609
    17   Atom       -0.087052      0.135816      0.171711
    18   Atom       -0.187493     -0.094709     -0.124180
    19   Atom        0.148755     -0.163103      0.088522
    20   Atom       -0.171734      0.002149     -0.014908
    21   Atom       -0.183614     -0.069551     -0.027682
    22   Atom        0.077492      0.144653     -0.146977
    23   Atom       -0.153153      0.067776      0.034771
    24   Atom        0.042163     -0.209891      0.056722
    25   Atom        0.189730     -0.104788      0.112849
    26   Atom       -0.158810     -0.050735     -0.031479
    27   Atom       -0.044348      0.148429      0.095416
 --------------------------------------------------------


 ---------------------------------------------------------------------------------
              Nuclear Quadrupole Coupling Constant in Principal Axis System
 ---------------------------------------------------------------------------------

       Atom             a.u.   MegaHertz   Gauss  10(-4) cm-1        Axes

              Baa    -0.4986     2.395     0.854     0.799 -0.2618  0.7376  0.6224
     5 N(14)  Bbb    -0.3132     1.504     0.537     0.502  0.9374  0.3478 -0.0180
              Bcc     0.8118    -3.899    -1.391    -1.300  0.2298 -0.5787  0.7825
 
              Baa    -0.8695     4.176     1.490     1.393 -0.5800  0.5534  0.5977
     6 N(14)  Bbb    -0.1242     0.596     0.213     0.199  0.2468 -0.5799  0.7764
              Bcc     0.9937    -4.772    -1.703    -1.592  0.7763  0.5979  0.1998
 
              Baa    -0.4636     2.226     0.794     0.743  0.8181  0.5606  0.1285
    12 N(14)  Bbb    -0.1973     0.947     0.338     0.316 -0.5255  0.8194 -0.2289
              Bcc     0.6608    -3.174    -1.133    -1.059 -0.2336  0.1198  0.9649
 
              Baa    -0.7059     3.390     1.210     1.131  0.5194  0.8543  0.0214
    13 N(14)  Bbb    -0.3278     1.574     0.562     0.525 -0.2630  0.1360  0.9552
              Bcc     1.0337    -4.965    -1.772    -1.656  0.8130 -0.5017  0.2953
 
              Baa    -0.0975   -16.261    -5.803    -5.424 -0.6243  0.7295 -0.2795
    15 I(127) Bbb     0.0468     7.815     2.789     2.607  0.7384  0.4343 -0.5159
              Bcc     0.0506     8.447     3.014     2.817  0.2549  0.5284  0.8098
 

 ---------------------------------------------------------------------------------

 No NMR shielding tensors so no spin-rotation constants.
 Leave Link  601 at Fri Jan 17 11:57:44 2014, MaxMem=   235929600 cpu:         0.4
 FitSet:  NAtFit=    27 NAtPot=    27 NAtFrz=     0 MDM=    31 TotChg=   0.00000
 Merz-Kollman atomic radii used.
 Read replacement radii for each type of atom:
 Rad(53) =   2.700000000000D+00
 Atom Element Radius
    1     6    1.50
    2     6    1.50
    3     6    1.50
    4     6    1.50
    5     7    1.50
    6     7    1.50
    7     6    1.50
    8     8    1.40
    9     6    1.50
   10     6    1.50
   11     6    1.50
   12     7    1.50
   13     7    1.50
   14     6    1.50
   15    53    2.70
   16     6    1.50
   17     1    1.20
   18     1    1.20
   19     1    1.20
   20     1    1.20
   21     1    1.20
   22     1    1.20
   23     1    1.20
   24     1    1.20
   25     1    1.20
   26     1    1.20
   27     1    1.20
 Generate VDW surfaces: Layer= 5 Dens= 2 Start= 1.400 Inc= 0.179

 **********************************************************************

            Electrostatic Properties Using The SCF Density

 **********************************************************************

       Atomic Center    1 is at  -4.557118  1.190546  1.797974
       Atomic Center    2 is at  -3.769611  0.299019  0.887480
       Atomic Center    3 is at  -4.221352 -0.855761  0.177402
       Atomic Center    4 is at  -3.133775 -1.340568 -0.501774
       Atomic Center    5 is at  -2.092952 -0.467329 -0.197988
       Atomic Center    6 is at  -2.490508  0.531218  0.661537
       Atomic Center    7 is at  -0.751063 -0.583319 -0.610325
       Atomic Center    8 is at  -0.334674 -1.619382 -1.096232
       Atomic Center    9 is at   0.118948  0.609820 -0.447310
       Atomic Center   10 is at   1.500014  0.627115 -0.124027
       Atomic Center   11 is at   1.874383  1.951020 -0.225976
       Atomic Center   12 is at   0.763356  2.634673 -0.613715
       Atomic Center   13 is at  -0.309555  1.843446 -0.743906
       Atomic Center   14 is at   0.621939  4.067183 -0.814269
       Atomic Center   15 is at   2.783599 -0.937538  0.452373
       Atomic Center   16 is at  -3.021702 -2.524470 -1.408340
       Atomic Center   17 is at  -4.985545  0.625817  2.634903
       Atomic Center   18 is at  -3.911745  1.975029  2.201327
       Atomic Center   19 is at  -5.390179  1.665328  1.265107
       Atomic Center   20 is at  -5.218307 -1.275141  0.168977
       Atomic Center   21 is at   2.823406  2.437570 -0.057462
       Atomic Center   22 is at   0.176130  4.537694  0.067841
       Atomic Center   23 is at   1.606706  4.500487 -1.001519
       Atomic Center   24 is at  -0.024248  4.236414 -1.677335
       Atomic Center   25 is at  -2.357692 -3.288910 -0.994677
       Atomic Center   26 is at  -4.016267 -2.956720 -1.553755
       Atomic Center   27 is at  -2.612000 -2.250562 -2.385841
      ESP Fit Center   28 is at  -3.838876  1.190546  3.771329
      ESP Fit Center   29 is at  -5.441084  2.210698  3.406667
      ESP Fit Center   30 is at  -3.421548  0.460760  3.406667
      ESP Fit Center   31 is at  -5.466444  2.765546  2.847974
      ESP Fit Center   32 is at  -6.028439  2.259524  2.847974
      ESP Fit Center   33 is at  -2.895695  0.450833  2.847974
      ESP Fit Center   34 is at  -5.123079  3.179694  2.162635
      ESP Fit Center   35 is at  -6.590001  0.810535  2.162635
      ESP Fit Center   36 is at  -6.315449  0.101834  1.433313
      ESP Fit Center   37 is at  -3.995123  2.920188  0.747974
      ESP Fit Center   38 is at  -6.028439  0.121569  0.747974
      ESP Fit Center   39 is at  -3.996368  2.418417  0.189281
      ESP Fit Center   40 is at  -3.410490 -0.322997  2.860835
      ESP Fit Center   41 is at  -3.961715 -1.037095  2.496173
      ESP Fit Center   42 is at  -3.208861 -0.928851  2.496173
      ESP Fit Center   43 is at  -3.207616 -1.430623  1.937480
      ESP Fit Center   44 is at  -3.959712  2.107710 -0.162520
      ESP Fit Center   45 is at  -3.961715  1.635134 -0.721213
      ESP Fit Center   46 is at  -4.653577  1.319171 -0.721213
      ESP Fit Center   47 is at  -4.128732  0.921035 -1.085874
      ESP Fit Center   48 is at  -4.580473 -1.477777  2.150757
      ESP Fit Center   49 is at  -3.862231 -1.477777  2.150757
      ESP Fit Center   50 is at  -5.105318 -1.875912  1.786095
      ESP Fit Center   51 is at  -4.413456 -2.191875  1.786095
      ESP Fit Center   52 is at  -3.660602 -2.083631  1.786095
      ESP Fit Center   53 is at  -3.085782 -1.585547  1.786095
      ESP Fit Center   54 is at  -4.411453 -2.664451  1.227402
      ESP Fit Center   55 is at  -3.659357 -2.585403  1.227402
      ESP Fit Center   56 is at  -5.979683  0.232952  0.542063
      ESP Fit Center   57 is at  -5.979683  0.232952 -0.187259
      ESP Fit Center   58 is at  -5.130679  0.719239 -0.872598
      ESP Fit Center   59 is at  -5.692673  0.213217 -0.872598
      ESP Fit Center   60 is at  -4.413456  0.480354 -1.431291
      ESP Fit Center   61 is at  -5.105318  0.164391 -1.431291
      ESP Fit Center   62 is at  -5.516527 -0.475463 -1.431291
      ESP Fit Center   63 is at  -4.580473 -0.233745 -1.795952
      ESP Fit Center   64 is at  -4.939594 -0.855761 -1.795952
      ESP Fit Center   65 is at  -2.774654 -1.962584  1.471581
      ESP Fit Center   66 is at  -3.325879 -2.676682  1.106919
      ESP Fit Center   67 is at  -2.573025 -2.568438  1.106919
      ESP Fit Center   68 is at  -4.043102 -2.915568  0.548226
      ESP Fit Center   69 is at  -1.916858 -2.692091  0.548226
      ESP Fit Center   70 is at  -3.325879 -0.004453 -2.110467
      ESP Fit Center   71 is at  -4.017741 -0.320416 -2.110467
      ESP Fit Center   72 is at  -4.428950 -0.960270 -2.110467
      ESP Fit Center   73 is at  -3.492896 -0.718552 -2.475128
      ESP Fit Center   74 is at  -1.733831 -1.089345  1.775367
      ESP Fit Center   75 is at  -2.285056 -1.803443  1.410705
      ESP Fit Center   76 is at  -1.532202 -1.695199  1.410705
      ESP Fit Center   77 is at  -0.957382 -1.197115  1.410705
      ESP Fit Center   78 is at  -1.530957 -2.196971  0.852012
      ESP Fit Center   79 is at  -3.564273  0.601649 -1.247988
      ESP Fit Center   80 is at  -2.285056  0.868786 -1.806681
      ESP Fit Center   81 is at  -2.976918  0.552823 -1.806681
      ESP Fit Center   82 is at  -2.452073  0.154687 -2.171342
      ESP Fit Center   83 is at  -2.092952 -0.467329 -2.297988
      ESP Fit Center   84 is at  -2.490508  0.531218  2.761537
      ESP Fit Center   85 is at  -1.772266  0.531218  2.634892
      ESP Fit Center   86 is at  -2.131387  1.153234  2.634892
      ESP Fit Center   87 is at  -2.131387 -0.090798  2.634892
      ESP Fit Center   88 is at  -1.140654  0.531218  2.270230
      ESP Fit Center   89 is at  -1.354938  1.261004  2.270230
      ESP Fit Center   90 is at  -1.929758  1.759088  2.270230
      ESP Fit Center   91 is at  -1.929758 -0.696652  2.270230
      ESP Fit Center   92 is at  -1.354938 -0.198568  2.270230
      ESP Fit Center   93 is at  -0.671854  0.531218  1.711537
      ESP Fit Center   94 is at  -0.829085  1.270931  1.711537
      ESP Fit Center   95 is at  -1.273591  1.882741  1.711537
      ESP Fit Center   96 is at  -1.928513  2.260860  1.711537
      ESP Fit Center   97 is at  -1.273591 -0.820305  1.711537
      ESP Fit Center   98 is at  -0.829085 -0.208495  1.711537
      ESP Fit Center   99 is at  -1.568678  2.382502  1.026198
      ESP Fit Center  100 is at  -2.299688  2.590492  1.026198
      ESP Fit Center  101 is at  -2.299688  2.590492  0.296876
      ESP Fit Center  102 is at  -3.056469  2.520366  0.296876
      ESP Fit Center  103 is at  -2.680609  2.339909 -0.388463
      ESP Fit Center  104 is at  -3.399835  2.106218 -0.388463
      ESP Fit Center  105 is at  -2.682612  1.867333 -0.947156
      ESP Fit Center  106 is at  -3.374474  1.551370 -0.947156
      ESP Fit Center  107 is at  -2.849629  1.153234 -1.311817
      ESP Fit Center  108 is at  -0.943167 -1.919433  0.998368
      ESP Fit Center  109 is at  -1.635029  0.436833 -2.219018
      ESP Fit Center  110 is at  -0.391942  0.038697 -2.583679
      ESP Fit Center  111 is at  -1.110184  0.038697 -2.583679
      ESP Fit Center  112 is at  -1.469305 -0.583319 -2.583679
      ESP Fit Center  113 is at  -0.751063 -0.583319 -2.710325
      ESP Fit Center  114 is at  -1.027639 -2.819632  0.289697
      ESP Fit Center  115 is at  -0.523954 -3.420266 -0.346172
      ESP Fit Center  116 is at  -0.153828 -3.571021 -1.096232
      ESP Fit Center  117 is at  -0.523954 -3.420266 -1.846291
      ESP Fit Center  118 is at   0.224895 -3.341559 -1.846291
      ESP Fit Center  119 is at   0.358291 -0.419132 -2.482161
      ESP Fit Center  120 is at  -1.027639 -2.819632 -2.482161
      ESP Fit Center  121 is at  -0.334674 -3.005311 -2.482161
      ESP Fit Center  122 is at   0.358291 -2.819632 -2.482161
      ESP Fit Center  123 is at   0.415386 -1.619382 -2.907036
      ESP Fit Center  124 is at   0.040356 -0.969811 -2.907036
      ESP Fit Center  125 is at  -0.709704 -0.969811 -2.907036
      ESP Fit Center  126 is at  -1.084733 -1.619382 -2.907036
      ESP Fit Center  127 is at  -0.709704 -2.268953 -2.907036
      ESP Fit Center  128 is at   0.040356 -2.268953 -2.907036
      ESP Fit Center  129 is at  -0.334674 -1.619382 -3.056232
      ESP Fit Center  130 is at  -0.240173  1.231836  1.526045
      ESP Fit Center  131 is at   0.837190  0.609820 -2.420664
      ESP Fit Center  132 is at  -0.599294  0.609820 -2.420664
      ESP Fit Center  133 is at   0.478069 -0.012196 -2.420664
      ESP Fit Center  134 is at   0.118948  0.609820 -2.547310
      ESP Fit Center  135 is at   2.233504  2.573036  1.747379
      ESP Fit Center  136 is at   1.515262  2.573036  1.747379
      ESP Fit Center  137 is at   1.682279  3.287134  1.382717
      ESP Fit Center  138 is at   3.009953  2.680806 -1.834669
      ESP Fit Center  139 is at   2.435133  3.178890 -1.834669
      ESP Fit Center  140 is at   2.592626  1.951020 -2.199330
      ESP Fit Center  141 is at   2.233504  2.573036 -2.199330
      ESP Fit Center  142 is at   1.874383  1.951020 -2.325976
      ESP Fit Center  143 is at   0.763356  2.634673  1.486285
      ESP Fit Center  144 is at   1.122477  3.256689  1.359640
      ESP Fit Center  145 is at   0.404235  3.256689  1.359640
      ESP Fit Center  146 is at   0.045114  2.634673  1.359640
      ESP Fit Center  147 is at   0.404235  2.012657  1.359640
      ESP Fit Center  148 is at  -0.531819  3.014971  0.994978
      ESP Fit Center  149 is at   2.113210  2.634673 -2.222408
      ESP Fit Center  150 is at   1.324106  1.406803 -2.222408
      ESP Fit Center  151 is at   1.481599  2.634673 -2.587069
      ESP Fit Center  152 is at   1.122477  2.012657 -2.587069
      ESP Fit Center  153 is at   0.763356  2.634673 -2.713715
      ESP Fit Center  154 is at  -0.309555  1.843446  1.356094
      ESP Fit Center  155 is at  -0.668676  2.465462  1.229449
      ESP Fit Center  156 is at  -1.193521  2.863598  0.864787
      ESP Fit Center  157 is at  -1.218881  3.418446  0.306094
      ESP Fit Center  158 is at  -1.780876  2.912424  0.306094
      ESP Fit Center  159 is at  -1.555861  3.493822 -0.379245
      ESP Fit Center  160 is at  -2.067886  2.932158 -0.379245
      ESP Fit Center  161 is at  -1.555861  3.493822 -1.108567
      ESP Fit Center  162 is at  -2.067886  2.932158 -1.108567
      ESP Fit Center  163 is at  -2.342438  2.223458 -1.108567
      ESP Fit Center  164 is at  -1.780876  2.912424 -1.793906
      ESP Fit Center  165 is at  -2.088466  2.221565 -1.793906
      ESP Fit Center  166 is at  -2.088466  1.465327 -1.793906
      ESP Fit Center  167 is at  -1.193521  2.863598 -2.352599
      ESP Fit Center  168 is at  -1.604730  2.223744 -2.352599
      ESP Fit Center  169 is at  -1.604730  1.463148 -2.352599
      ESP Fit Center  170 is at  -1.193521  0.823294 -2.352599
      ESP Fit Center  171 is at   0.408688  1.843446 -2.717260
      ESP Fit Center  172 is at   0.049566  2.465462 -2.717260
      ESP Fit Center  173 is at  -0.668676  2.465462 -2.717260
      ESP Fit Center  174 is at  -1.027797  1.843446 -2.717260
      ESP Fit Center  175 is at  -0.668676  1.221430 -2.717260
      ESP Fit Center  176 is at   0.049566  1.221430 -2.717260
      ESP Fit Center  177 is at  -0.309555  1.843446 -2.843906
      ESP Fit Center  178 is at   1.971793  4.067183  0.794424
      ESP Fit Center  179 is at   1.757509  4.796969  0.794424
      ESP Fit Center  180 is at   0.812759  6.126457 -0.449608
      ESP Fit Center  181 is at  -1.410944  3.687171 -0.449608
      ESP Fit Center  182 is at   0.812759  6.126457 -1.178930
      ESP Fit Center  183 is at   0.055978  6.056331 -1.178930
      ESP Fit Center  184 is at   0.431838  5.875874 -1.864269
      ESP Fit Center  185 is at   1.182689  5.295053 -2.422962
      ESP Fit Center  186 is at   1.757509  3.337397 -2.422962
      ESP Fit Center  187 is at   1.340182  4.067183 -2.787623
      ESP Fit Center  188 is at   0.981060  3.445167 -2.787623
      ESP Fit Center  189 is at   2.783599 -0.937538  4.232373
      ESP Fit Center  190 is at   3.521041 -0.937538  4.159741
      ESP Fit Center  191 is at   3.152320 -0.298895  4.159741
      ESP Fit Center  192 is at   2.414878 -0.298895  4.159741
      ESP Fit Center  193 is at   2.046158 -0.937538  4.159741
      ESP Fit Center  194 is at   2.414878 -1.576181  4.159741
      ESP Fit Center  195 is at   3.152320 -1.576181  4.159741
      ESP Fit Center  196 is at   4.230142 -0.937538  3.944638
      ESP Fit Center  197 is at   4.036342 -0.214266  3.944638
      ESP Fit Center  198 is at   3.506871  0.315205  3.944638
      ESP Fit Center  199 is at   2.783599  0.509005  3.944638
      ESP Fit Center  200 is at   2.060327  0.315205  3.944638
      ESP Fit Center  201 is at   1.530856 -0.214266  3.944638
      ESP Fit Center  202 is at   1.337056 -0.937538  3.944638
      ESP Fit Center  203 is at   1.530856 -1.660810  3.944638
      ESP Fit Center  204 is at   2.060327 -2.190281  3.944638
      ESP Fit Center  205 is at   2.783599 -2.384082  3.944638
      ESP Fit Center  206 is at   3.506871 -2.190281  3.944638
      ESP Fit Center  207 is at   4.036342 -1.660810  3.944638
      ESP Fit Center  208 is at   4.883655 -0.937538  3.595328
      ESP Fit Center  209 is at   4.757006 -0.219277  3.595328
      ESP Fit Center  210 is at   4.392335  0.412351  3.595328
      ESP Fit Center  211 is at   3.833627  0.881163  3.595328
      ESP Fit Center  212 is at   3.148270  1.130613  3.595328
      ESP Fit Center  213 is at   2.418928  1.130613  3.595328
      ESP Fit Center  214 is at   1.733571  0.881163  3.595328
      ESP Fit Center  215 is at   1.174863  0.412351  3.595328
      ESP Fit Center  216 is at   0.810192 -0.219277  3.595328
      ESP Fit Center  217 is at   0.683544 -0.937538  3.595328
      ESP Fit Center  218 is at   0.810192 -1.655799  3.595328
      ESP Fit Center  219 is at   1.174863 -2.287428  3.595328
      ESP Fit Center  220 is at   1.733571 -2.756240  3.595328
      ESP Fit Center  221 is at   2.418928 -3.005689  3.595328
      ESP Fit Center  222 is at   3.148270 -3.005689  3.595328
      ESP Fit Center  223 is at   3.833627 -2.756240  3.595328
      ESP Fit Center  224 is at   4.392335 -2.287428  3.595328
      ESP Fit Center  225 is at   4.757006 -1.655799  3.595328
      ESP Fit Center  226 is at   5.456463 -0.937538  3.125237
      ESP Fit Center  227 is at   5.357346 -0.216408  3.125237
      ESP Fit Center  228 is at   5.067346  0.451239  3.125237
      ESP Fit Center  229 is at   4.607971  1.015887  3.125237
      ESP Fit Center  230 is at   4.013290  1.435658  3.125237
      ESP Fit Center  231 is at   3.327409  1.679420  3.125237
      ESP Fit Center  232 is at   2.601196  1.729094  3.125237
      ESP Fit Center  233 is at   1.888512  1.580997  3.125237
      ESP Fit Center  234 is at   1.242211  1.246111  3.125237
      ESP Fit Center  235 is at   0.710229  0.749274  3.125237
      ESP Fit Center  236 is at   0.332018  0.127334  3.125237
      ESP Fit Center  237 is at   0.135631 -0.573583  3.125237
      ESP Fit Center  238 is at   0.135631 -1.301493  3.125237
      ESP Fit Center  239 is at   0.332018 -2.002410  3.125237
      ESP Fit Center  240 is at   0.710229 -2.624350  3.125237
      ESP Fit Center  241 is at   1.242211 -3.121187  3.125237
      ESP Fit Center  242 is at   1.888512 -3.456073  3.125237
      ESP Fit Center  243 is at   2.601196 -3.604171  3.125237
      ESP Fit Center  244 is at   3.327409 -3.554496  3.125237
      ESP Fit Center  245 is at   4.013290 -3.310734  3.125237
      ESP Fit Center  246 is at   4.607971 -2.890963  3.125237
      ESP Fit Center  247 is at   5.067346 -2.326315  3.125237
      ESP Fit Center  248 is at   5.357346 -1.658668  3.125237
      ESP Fit Center  249 is at   5.926554 -0.937538  2.552429
      ESP Fit Center  250 is at   5.841835 -0.212723  2.552429
      ESP Fit Center  251 is at   5.592246  0.473018  2.552429
      ESP Fit Center  252 is at   5.191242  1.082714  2.552429
      ESP Fit Center  253 is at   4.660442  1.583499  2.552429
      ESP Fit Center  254 is at   4.028460  1.948374  2.552429
      ESP Fit Center  255 is at   3.329368  2.157668  2.552429
      ESP Fit Center  256 is at   2.600852  2.200100  2.552429
      ESP Fit Center  257 is at   1.882189  2.073380  2.552429
      ESP Fit Center  258 is at   1.212122  1.784341  2.552429
      ESP Fit Center  259 is at   0.626772  1.348565  2.552429
      ESP Fit Center  260 is at   0.157698  0.789544  2.552429
      ESP Fit Center  261 is at  -0.169813  0.137416  2.552429
      ESP Fit Center  262 is at  -0.338105 -0.572663  2.552429
      ESP Fit Center  263 is at  -0.338105 -1.302413  2.552429
      ESP Fit Center  264 is at  -0.169813 -2.012492  2.552429
      ESP Fit Center  265 is at   0.157698 -2.664620  2.552429
      ESP Fit Center  266 is at   0.626772 -3.223641  2.552429
      ESP Fit Center  267 is at   1.212122 -3.659417  2.552429
      ESP Fit Center  268 is at   1.882189 -3.948456  2.552429
      ESP Fit Center  269 is at   2.600852 -4.075176  2.552429
      ESP Fit Center  270 is at   3.329368 -4.032745  2.552429
      ESP Fit Center  271 is at   4.028460 -3.823450  2.552429
      ESP Fit Center  272 is at   4.660442 -3.458575  2.552429
      ESP Fit Center  273 is at   5.191242 -2.957791  2.552429
      ESP Fit Center  274 is at   5.592246 -2.348094  2.552429
      ESP Fit Center  275 is at   5.841835 -1.662353  2.552429
      ESP Fit Center  276 is at   6.275864 -0.937538  1.898916
      ESP Fit Center  277 is at   6.199549 -0.211456  1.898916
      ESP Fit Center  278 is at   5.973942  0.482894  1.898916
      ESP Fit Center  279 is at   5.608901  1.115164  1.898916
      ESP Fit Center  280 is at   5.120380  1.657720  1.898916
      ESP Fit Center  281 is at   4.529731  2.086852  1.898916
      ESP Fit Center  282 is at   3.862768  2.383803  1.898916
      ESP Fit Center  283 is at   3.148640  2.535595  1.898916
      ESP Fit Center  284 is at   2.418558  2.535595  1.898916
      ESP Fit Center  285 is at   1.704430  2.383803  1.898916
      ESP Fit Center  286 is at   1.037467  2.086852  1.898916
      ESP Fit Center  287 is at   0.446818  1.657720  1.898916
      ESP Fit Center  288 is at  -0.041702  1.115164  1.898916
      ESP Fit Center  289 is at  -0.406743  0.482894  1.898916
      ESP Fit Center  290 is at  -0.632351 -0.211456  1.898916
      ESP Fit Center  291 is at  -0.708666 -0.937538  1.898916
      ESP Fit Center  292 is at  -0.632351 -1.663621  1.898916
      ESP Fit Center  293 is at  -0.406743 -2.357970  1.898916
      ESP Fit Center  294 is at  -0.041702 -2.990240  1.898916
      ESP Fit Center  295 is at   0.446818 -3.532797  1.898916
      ESP Fit Center  296 is at   1.037467 -3.961928  1.898916
      ESP Fit Center  297 is at   1.704430 -4.258879  1.898916
      ESP Fit Center  298 is at   2.418558 -4.410672  1.898916
      ESP Fit Center  299 is at   3.148640 -4.410672  1.898916
      ESP Fit Center  300 is at   3.862768 -4.258879  1.898916
      ESP Fit Center  301 is at   4.529731 -3.961928  1.898916
      ESP Fit Center  302 is at   5.120380 -3.532797  1.898916
      ESP Fit Center  303 is at   5.608901 -2.990240  1.898916
      ESP Fit Center  304 is at   5.973942 -2.357970  1.898916
      ESP Fit Center  305 is at   6.199549 -1.663621  1.898916
      ESP Fit Center  306 is at   6.490967 -0.937538  1.189815
      ESP Fit Center  307 is at   6.419731 -0.214266  1.189815
      ESP Fit Center  308 is at   6.208761  0.481210  1.189815
      ESP Fit Center  309 is at   5.866163  1.122165  1.189815
      ESP Fit Center  310 is at   5.405104  1.683967  1.189815
      ESP Fit Center  311 is at   4.843303  2.145026  1.189815
      ESP Fit Center  312 is at   4.202348  2.487624  1.189815
      ESP Fit Center  313 is at  -0.852533 -1.660810  1.189815
      ESP Fit Center  314 is at  -0.641563 -2.356287  1.189815
      ESP Fit Center  315 is at  -0.298965 -2.997242  1.189815
      ESP Fit Center  316 is at   0.162094 -3.559043  1.189815
      ESP Fit Center  317 is at   0.723896 -4.020102  1.189815
      ESP Fit Center  318 is at   1.364851 -4.362700  1.189815
      ESP Fit Center  319 is at   2.060327 -4.573670  1.189815
      ESP Fit Center  320 is at   2.783599 -4.644907  1.189815
      ESP Fit Center  321 is at   3.506871 -4.573670  1.189815
      ESP Fit Center  322 is at   4.202348 -4.362700  1.189815
      ESP Fit Center  323 is at   4.843303 -4.020102  1.189815
      ESP Fit Center  324 is at   5.405104 -3.559043  1.189815
      ESP Fit Center  325 is at   5.866163 -2.997242  1.189815
      ESP Fit Center  326 is at   6.208761 -2.356287  1.189815
      ESP Fit Center  327 is at   6.419731 -1.660810  1.189815
      ESP Fit Center  328 is at   6.563599 -0.937538  0.452373
      ESP Fit Center  329 is at   6.495290 -0.222168  0.452373
      ESP Fit Center  330 is at   6.292830  0.467346  0.452373
      ESP Fit Center  331 is at   5.963537  1.106084  0.452373
      ESP Fit Center  332 is at   5.519314  1.670961  0.452373
      ESP Fit Center  333 is at   4.976214  2.141559  0.452373
      ESP Fit Center  334 is at  -0.187682 -3.274179  0.452373
      ESP Fit Center  335 is at   0.308226 -3.794272  0.452373
      ESP Fit Center  336 is at   0.893599 -4.211114  0.452373
      ESP Fit Center  337 is at   1.547282 -4.509641  0.452373
      ESP Fit Center  338 is at   2.245649 -4.679063  0.452373
      ESP Fit Center  339 is at   2.963459 -4.713257  0.452373
      ESP Fit Center  340 is at   3.674768 -4.610986  0.452373
      ESP Fit Center  341 is at   4.353868 -4.375947  0.452373
      ESP Fit Center  342 is at   4.976214 -4.016635  0.452373
      ESP Fit Center  343 is at   5.519314 -3.546037  0.452373
      ESP Fit Center  344 is at   5.963537 -2.981160  0.452373
      ESP Fit Center  345 is at   6.292830 -2.342422  0.452373
      ESP Fit Center  346 is at   6.495290 -1.652908  0.452373
      ESP Fit Center  347 is at   6.490967 -0.937538 -0.285068
      ESP Fit Center  348 is at   6.419731 -0.214266 -0.285068
      ESP Fit Center  349 is at   6.208761  0.481210 -0.285068
      ESP Fit Center  350 is at   5.866163  1.122165 -0.285068
      ESP Fit Center  351 is at   5.405104  1.683967 -0.285068
      ESP Fit Center  352 is at   4.843303  2.145026 -0.285068
      ESP Fit Center  353 is at   0.162094 -3.559043 -0.285068
      ESP Fit Center  354 is at   0.723896 -4.020102 -0.285068
      ESP Fit Center  355 is at   1.364851 -4.362700 -0.285068
      ESP Fit Center  356 is at   2.060327 -4.573670 -0.285068
      ESP Fit Center  357 is at   2.783599 -4.644907 -0.285068
      ESP Fit Center  358 is at   3.506871 -4.573670 -0.285068
      ESP Fit Center  359 is at   4.202348 -4.362700 -0.285068
      ESP Fit Center  360 is at   4.843303 -4.020102 -0.285068
      ESP Fit Center  361 is at   5.405104 -3.559043 -0.285068
      ESP Fit Center  362 is at   5.866163 -2.997242 -0.285068
      ESP Fit Center  363 is at   6.208761 -2.356287 -0.285068
      ESP Fit Center  364 is at   6.419731 -1.660810 -0.285068
      ESP Fit Center  365 is at   6.275864 -0.937538 -0.994170
      ESP Fit Center  366 is at   6.199549 -0.211456 -0.994170
      ESP Fit Center  367 is at   5.973942  0.482894 -0.994170
      ESP Fit Center  368 is at   5.608901  1.115164 -0.994170
      ESP Fit Center  369 is at   5.120380  1.657720 -0.994170
      ESP Fit Center  370 is at   4.529731  2.086852 -0.994170
      ESP Fit Center  371 is at   0.446818 -3.532797 -0.994170
      ESP Fit Center  372 is at   1.037467 -3.961928 -0.994170
      ESP Fit Center  373 is at   1.704430 -4.258879 -0.994170
      ESP Fit Center  374 is at   2.418558 -4.410672 -0.994170
      ESP Fit Center  375 is at   3.148640 -4.410672 -0.994170
      ESP Fit Center  376 is at   3.862768 -4.258879 -0.994170
      ESP Fit Center  377 is at   4.529731 -3.961928 -0.994170
      ESP Fit Center  378 is at   5.120380 -3.532797 -0.994170
      ESP Fit Center  379 is at   5.608901 -2.990240 -0.994170
      ESP Fit Center  380 is at   5.973942 -2.357970 -0.994170
      ESP Fit Center  381 is at   6.199549 -1.663621 -0.994170
      ESP Fit Center  382 is at   5.926554 -0.937538 -1.647682
      ESP Fit Center  383 is at   5.841835 -0.212723 -1.647682
      ESP Fit Center  384 is at   5.592246  0.473018 -1.647682
      ESP Fit Center  385 is at   5.191242  1.082714 -1.647682
      ESP Fit Center  386 is at   4.660442  1.583499 -1.647682
      ESP Fit Center  387 is at   4.028460  1.948374 -1.647682
      ESP Fit Center  388 is at   1.212122 -3.659417 -1.647682
      ESP Fit Center  389 is at   1.882189 -3.948456 -1.647682
      ESP Fit Center  390 is at   2.600852 -4.075176 -1.647682
      ESP Fit Center  391 is at   3.329368 -4.032745 -1.647682
      ESP Fit Center  392 is at   4.028460 -3.823450 -1.647682
      ESP Fit Center  393 is at   4.660442 -3.458575 -1.647682
      ESP Fit Center  394 is at   5.191242 -2.957791 -1.647682
      ESP Fit Center  395 is at   5.592246 -2.348094 -1.647682
      ESP Fit Center  396 is at   5.841835 -1.662353 -1.647682
      ESP Fit Center  397 is at   5.456463 -0.937538 -2.220491
      ESP Fit Center  398 is at   5.357346 -0.216408 -2.220491
      ESP Fit Center  399 is at   5.067346  0.451239 -2.220491
      ESP Fit Center  400 is at   4.607971  1.015887 -2.220491
      ESP Fit Center  401 is at   4.013290  1.435658 -2.220491
      ESP Fit Center  402 is at   3.327409  1.679420 -2.220491
      ESP Fit Center  403 is at   2.601196  1.729094 -2.220491
      ESP Fit Center  404 is at   1.242211  1.246111 -2.220491
      ESP Fit Center  405 is at   1.242211 -3.121187 -2.220491
      ESP Fit Center  406 is at   1.888512 -3.456073 -2.220491
      ESP Fit Center  407 is at   2.601196 -3.604171 -2.220491
      ESP Fit Center  408 is at   3.327409 -3.554496 -2.220491
      ESP Fit Center  409 is at   4.013290 -3.310734 -2.220491
      ESP Fit Center  410 is at   4.607971 -2.890963 -2.220491
      ESP Fit Center  411 is at   5.067346 -2.326315 -2.220491
      ESP Fit Center  412 is at   5.357346 -1.658668 -2.220491
      ESP Fit Center  413 is at   4.883655 -0.937538 -2.690582
      ESP Fit Center  414 is at   4.757006 -0.219277 -2.690582
      ESP Fit Center  415 is at   4.392335  0.412351 -2.690582
      ESP Fit Center  416 is at   3.833627  0.881163 -2.690582
      ESP Fit Center  417 is at   3.148270  1.130613 -2.690582
      ESP Fit Center  418 is at   2.418928  1.130613 -2.690582
      ESP Fit Center  419 is at   1.733571  0.881163 -2.690582
      ESP Fit Center  420 is at   1.174863  0.412351 -2.690582
      ESP Fit Center  421 is at   0.810192 -0.219277 -2.690582
      ESP Fit Center  422 is at   0.683544 -0.937538 -2.690582
      ESP Fit Center  423 is at   0.810192 -1.655799 -2.690582
      ESP Fit Center  424 is at   1.174863 -2.287428 -2.690582
      ESP Fit Center  425 is at   1.733571 -2.756240 -2.690582
      ESP Fit Center  426 is at   2.418928 -3.005689 -2.690582
      ESP Fit Center  427 is at   3.148270 -3.005689 -2.690582
      ESP Fit Center  428 is at   3.833627 -2.756240 -2.690582
      ESP Fit Center  429 is at   4.392335 -2.287428 -2.690582
      ESP Fit Center  430 is at   4.757006 -1.655799 -2.690582
      ESP Fit Center  431 is at   4.230142 -0.937538 -3.039892
      ESP Fit Center  432 is at   4.036342 -0.214266 -3.039892
      ESP Fit Center  433 is at   3.506871  0.315205 -3.039892
      ESP Fit Center  434 is at   2.783599  0.509005 -3.039892
      ESP Fit Center  435 is at   2.060327  0.315205 -3.039892
      ESP Fit Center  436 is at   1.530856 -0.214266 -3.039892
      ESP Fit Center  437 is at   1.337056 -0.937538 -3.039892
      ESP Fit Center  438 is at   1.530856 -1.660810 -3.039892
      ESP Fit Center  439 is at   2.060327 -2.190281 -3.039892
      ESP Fit Center  440 is at   2.783599 -2.384082 -3.039892
      ESP Fit Center  441 is at   3.506871 -2.190281 -3.039892
      ESP Fit Center  442 is at   4.036342 -1.660810 -3.039892
      ESP Fit Center  443 is at   3.521041 -0.937538 -3.254995
      ESP Fit Center  444 is at   3.152320 -0.298895 -3.254995
      ESP Fit Center  445 is at   2.414878 -0.298895 -3.254995
      ESP Fit Center  446 is at   2.046158 -0.937538 -3.254995
      ESP Fit Center  447 is at   2.414878 -1.576181 -3.254995
[...]
 3866 Fit      -0.009565
 3867 Fit      -0.009423
 3868 Fit      -0.009169
 3869 Fit      -0.008734
 3870 Fit      -0.008138
 3871 Fit      -0.007427
 3872 Fit      -0.006654
 3873 Fit      -0.005865
 3874 Fit      -0.005099
 3875 Fit      -0.004389
 3876 Fit      -0.003758
 3877 Fit      -0.003220
 3878 Fit      -0.002779
 3879 Fit      -0.002432
 3880 Fit      -0.002163
 3881 Fit      -0.001948
 3882 Fit      -0.001756
 3883 Fit      -0.001549
 3884 Fit      -0.001315
 3885 Fit      -0.000905
 3886 Fit      -0.000334
 3887 Fit       0.000451
 3888 Fit       0.001504
 3889 Fit       0.002879
 3890 Fit       0.004629
 3891 Fit       0.006793
 3892 Fit       0.009375
 3893 Fit       0.012292
 3894 Fit       0.015301
 3895 Fit       0.017965
 3896 Fit       0.019762
 3897 Fit      -0.009212
 3898 Fit      -0.009391
 3899 Fit      -0.009715
 3900 Fit      -0.009778
 3901 Fit      -0.009518
 3902 Fit      -0.009002
 3903 Fit      -0.008318
 3904 Fit      -0.007537
 3905 Fit      -0.006719
 3906 Fit      -0.005908
 3907 Fit      -0.005138
 3908 Fit      -0.004437
 3909 Fit      -0.003821
 3910 Fit      -0.003299
 3911 Fit      -0.002874
 3912 Fit      -0.002536
 3913 Fit      -0.002268
 3914 Fit      -0.002047
 3915 Fit      -0.001841
 3916 Fit      -0.001611
 3917 Fit      -0.001433
 3918 Fit      -0.000969
 3919 Fit      -0.000325
 3920 Fit       0.000557
 3921 Fit       0.001742
 3922 Fit       0.003304
 3923 Fit       0.005323
 3924 Fit       0.007885
 3925 Fit       0.011061
 3926 Fit       0.014849
 3927 Fit       0.019074
 3928 Fit       0.023280
 3929 Fit      -0.009822
 3930 Fit      -0.010359
 3931 Fit      -0.010240
 3932 Fit      -0.009724
 3933 Fit      -0.008987
 3934 Fit      -0.008143
 3935 Fit      -0.007263
 3936 Fit      -0.006396
 3937 Fit      -0.005579
 3938 Fit      -0.004837
 3939 Fit      -0.004185
 3940 Fit      -0.003633
 3941 Fit      -0.003180
 3942 Fit      -0.002816
 3943 Fit      -0.002523
 3944 Fit      -0.002275
 3945 Fit      -0.002038
 3946 Fit      -0.001773
 3947 Fit      -0.001634
 3948 Fit      -0.001116
 3949 Fit      -0.000410
 3950 Fit       0.000548
 3951 Fit       0.001830
 3952 Fit       0.003521
 3953 Fit       0.005723
 3954 Fit       0.008561
 3955 Fit       0.012167
 3956 Fit       0.016649
 3957 Fit       0.022008
 3958 Fit      -0.011112
 3959 Fit      -0.011112
 3960 Fit      -0.010557
 3961 Fit      -0.009747
 3962 Fit      -0.008830
 3963 Fit      -0.007888
 3964 Fit      -0.006972
 3965 Fit      -0.006114
 3966 Fit      -0.005338
 3967 Fit      -0.004657
 3968 Fit      -0.004077
 3969 Fit      -0.003596
 3970 Fit      -0.003204
 3971 Fit      -0.002881
 3972 Fit      -0.002600
 3973 Fit      -0.002326
 3974 Fit      -0.002020
 3975 Fit      -0.001912
 3976 Fit      -0.001347
 3977 Fit      -0.000593
 3978 Fit       0.000413
 3979 Fit       0.001744
 3980 Fit       0.003487
 3981 Fit       0.005751
 3982 Fit       0.008671
 3983 Fit       0.012408
 3984 Fit       0.017142
 3985 Fit       0.023077
 3986 Fit      -0.012227
 3987 Fit      -0.012172
 3988 Fit      -0.011496
 3989 Fit      -0.010578
 3990 Fit      -0.009578
 3991 Fit      -0.008576
 3992 Fit      -0.007616
 3993 Fit      -0.006726
 3994 Fit      -0.005924
 3995 Fit      -0.005219
 3996 Fit      -0.004615
 3997 Fit      -0.004107
 3998 Fit      -0.003685
 3999 Fit      -0.003328
 4000 Fit      -0.003009
 4001 Fit      -0.002695
 4002 Fit      -0.002344
 4003 Fit      -0.002260
 4004 Fit      -0.001629
 4005 Fit      -0.000799
 4006 Fit       0.000296
 4007 Fit       0.001733
 4008 Fit       0.003602
 4009 Fit       0.006016
 4010 Fit       0.009112
 4011 Fit       0.013056
 4012 Fit       0.018047
 4013 Fit      -0.013768
 4014 Fit      -0.013107
 4015 Fit      -0.012084
 4016 Fit      -0.010956
 4017 Fit      -0.009832
 4018 Fit      -0.008761
 4019 Fit      -0.007769
 4020 Fit      -0.006874
 4021 Fit      -0.006083
 4022 Fit      -0.005401
 4023 Fit      -0.004821
 4024 Fit      -0.004331
 4025 Fit      -0.003911
 4026 Fit      -0.003534
 4027 Fit      -0.003162
 4028 Fit      -0.002754
 4029 Fit      -0.002674
 4030 Fit      -0.001985
 4031 Fit      -0.001098
 4032 Fit       0.000050
 4033 Fit       0.001532
 4034 Fit       0.003428
 4035 Fit       0.005830
 4036 Fit       0.008839
 4037 Fit       0.012555
 4038 Fit       0.017099
 4039 Fit      -0.015872
 4040 Fit      -0.015002
 4041 Fit      -0.013777
 4042 Fit      -0.012470
 4043 Fit      -0.011195
 4044 Fit      -0.009997
 4045 Fit      -0.008898
 4046 Fit      -0.007908
 4047 Fit      -0.007031
 4048 Fit      -0.006269
 4049 Fit      -0.005614
 4050 Fit      -0.005054
 4051 Fit      -0.004567
 4052 Fit      -0.004126
 4053 Fit      -0.003693
 4054 Fit      -0.003226
 4055 Fit      -0.003148
 4056 Fit      -0.002396
 4057 Fit      -0.001451
 4058 Fit      -0.000250
 4059 Fit       0.001266
 4060 Fit       0.003157
 4061 Fit       0.005475
 4062 Fit       0.008245
 4063 Fit       0.011444
 4064 Fit       0.014973
 4065 Fit      -0.017699
 4066 Fit      -0.016132
 4067 Fit      -0.014538
 4068 Fit      -0.013021
 4069 Fit      -0.011620
 4070 Fit      -0.010349
 4071 Fit      -0.009210
 4072 Fit      -0.008201
 4073 Fit      -0.007320
 4074 Fit      -0.006558
 4075 Fit      -0.005900
 4076 Fit      -0.005326
 4077 Fit      -0.004805
 4078 Fit      -0.004299
 4079 Fit      -0.003764
 4080 Fit      -0.003679
 4081 Fit      -0.002859
 4082 Fit      -0.001852
 4083 Fit      -0.000605
 4084 Fit       0.000923
 4085 Fit       0.002751
 4086 Fit       0.004853
 4087 Fit       0.007130
 4088 Fit       0.009352
 4089 Fit       0.011065
 4090 Fit      -0.019236
 4091 Fit      -0.017371
 4092 Fit      -0.015513
 4093 Fit      -0.013797
 4094 Fit      -0.012253
 4095 Fit      -0.010879
 4096 Fit      -0.009668
 4097 Fit      -0.008609
 4098 Fit      -0.007691
 4099 Fit      -0.006896
 4100 Fit      -0.006203
 4101 Fit      -0.005578
 4102 Fit      -0.004983
 4103 Fit      -0.004368
 4104 Fit      -0.004266
 4105 Fit      -0.003397
 4106 Fit      -0.002364
 4107 Fit      -0.001136
 4108 Fit       0.000289
 4109 Fit       0.001863
 4110 Fit       0.003454
 4111 Fit       0.004811
 4112 Fit       0.005536
 4113 Fit       0.005127
 4114 Fit       0.003192
 4115 Fit      -0.012091
 4116 Fit      -0.020060
 4117 Fit      -0.019575
 4118 Fit      -0.017975
 4119 Fit      -0.016115
 4120 Fit      -0.014327
 4121 Fit      -0.012707
 4122 Fit      -0.011272
 4123 Fit      -0.010015
 4124 Fit      -0.008922
 4125 Fit      -0.007974
 4126 Fit      -0.007147
 4127 Fit      -0.006409
 4128 Fit      -0.005717
 4129 Fit      -0.005022
 4130 Fit      -0.004915
 4131 Fit      -0.003990
 4132 Fit      -0.002941
 4133 Fit      -0.001773
 4134 Fit      -0.000549
 4135 Fit       0.000570
 4136 Fit       0.001314
 4137 Fit       0.001317
 4138 Fit       0.000227
 4139 Fit      -0.002102
 4140 Fit      -0.005419
 4141 Fit      -0.008783
 4142 Fit      -0.011019
 4143 Fit      -0.012251
 4144 Fit      -0.013701
 4145 Fit      -0.015791
 4146 Fit      -0.017799
 4147 Fit      -0.018715
 4148 Fit      -0.018180
 4149 Fit      -0.016745
 4150 Fit      -0.015028
 4151 Fit      -0.013347
 4152 Fit      -0.011819
 4153 Fit      -0.010469
 4154 Fit      -0.009294
 4155 Fit      -0.008272
 4156 Fit      -0.007372
 4157 Fit      -0.006550
 4158 Fit      -0.005750
 4159 Fit      -0.005630
 4160 Fit      -0.004680
 4161 Fit      -0.003685
 4162 Fit      -0.002712
 4163 Fit      -0.001930
 4164 Fit      -0.001611
 4165 Fit      -0.002071
 4166 Fit      -0.003509
 4167 Fit      -0.005805
 4168 Fit      -0.008411
 4169 Fit      -0.010678
 4170 Fit      -0.012579
 4171 Fit      -0.014466
 4172 Fit      -0.016111
 4173 Fit      -0.016850
 4174 Fit      -0.016429
 4175 Fit      -0.015210
 4176 Fit      -0.013687
 4177 Fit      -0.012160
 4178 Fit      -0.010760
 4179 Fit      -0.009520
 4180 Fit      -0.008430
 4181 Fit      -0.007455
 4182 Fit      -0.006541
 4183 Fit      -0.006425
 4184 Fit      -0.005447
 4185 Fit      -0.004587
 4186 Fit      -0.004050
 4187 Fit      -0.004156
 4188 Fit      -0.005177
 4189 Fit      -0.007060
 4190 Fit      -0.009331
 4191 Fit      -0.011498
 4192 Fit      -0.013376
 4193 Fit      -0.014625
 4194 Fit      -0.014793
 4195 Fit      -0.013958
 4196 Fit      -0.012606
 4197 Fit      -0.011148
 4198 Fit      -0.009780
 4199 Fit      -0.008556
 4200 Fit      -0.007454
 4201 Fit      -0.007313
 4202 Fit      -0.006384
 4203 Fit      -0.005981
 4204 Fit      -0.006507
 4205 Fit      -0.008081
 4206 Fit      -0.010178
 4207 Fit      -0.012026
 4208 Fit      -0.012921
 4209 Fit      -0.012538
 4210 Fit      -0.011318
 4211 Fit      -0.009868
 4212 Fit      -0.008502
 4213 Fit      -0.008310
 4214 Fit      -0.007761
 4215 Fit      -0.008873
 4216 Fit      -0.010678
 4217 Fit      -0.011020
 4218 Fit      -0.009758
 4219 Fit      -0.009431
 4220 Fit      -0.006512
 4221 Fit      -0.002300
 4222 Fit      -0.003316
 4223 Fit       0.001330
 4224 Fit      -0.000481
 4225 Fit      -0.001835
 4226 Fit       0.000372
 4227 Fit      -0.001021
 4228 Fit       0.000123
 4229 Fit      -0.000058
 4230 Fit       0.000481
 4231 Fit      -0.001357
 4232 Fit      -0.003309
 4233 Fit       0.001382
 4234 Fit      -0.000545
 4235 Fit      -0.002563
 4236 Fit      -0.005092
 4237 Fit      -0.008836
 4238 Fit      -0.014638
 4239 Fit      -0.004097
 4240 Fit      -0.002190
 4241 Fit       0.000156
 4242 Fit      -0.000602
 4243 Fit      -0.002729
 4244 Fit      -0.005474
 4245 Fit      -0.009387
 4246 Fit      -0.014872
 4247 Fit      -0.001691
 4248 Fit      -0.000397
 4249 Fit       0.000973
 4250 Fit       0.000874
 4251 Fit      -0.000670
 4252 Fit      -0.002644
 4253 Fit      -0.005213
 4254 Fit       0.000533
 4255 Fit       0.000581
 4256 Fit      -0.000256
 4257 Fit       0.001508
 4258 Fit      -0.000352
 4259 Fit       0.000686
 4260 Fit       0.002116
 4261 Fit       0.002839
 4262 Fit       0.002272
 4263 Fit       0.000579
 4264 Fit       0.002808
 4265 Fit       0.003541
 4266 Fit       0.003795
 4267 Fit       0.003266
 4268 Fit       0.001773
 4269 Fit      -0.000383
 4270 Fit      -0.002340
 4271 Fit       0.003864
 4272 Fit       0.004325
 4273 Fit       0.004459
 4274 Fit       0.004030
 4275 Fit       0.002818
 4276 Fit       0.000804
 4277 Fit      -0.001712
 4278 Fit      -0.004263
 4279 Fit       0.004267
 4280 Fit       0.004702
 4281 Fit       0.004978
 4282 Fit       0.004891
 4283 Fit       0.004160
 4284 Fit       0.002537
 4285 Fit       0.000023
 4286 Fit      -0.003013
 4287 Fit      -0.006145
 4288 Fit       0.005280
 4289 Fit       0.005635
 4290 Fit       0.005541
 4291 Fit       0.004434
 4292 Fit       0.001770
 4293 Fit       0.006675
 4294 Fit       0.007190
 4295 Fit      -0.002671
 4296 Fit      -0.000593
 4297 Fit       0.000643
 4298 Fit      -0.005376
 4299 Fit      -0.002394
 4300 Fit       0.000024
 4301 Fit       0.001215
 4302 Fit      -0.009528
 4303 Fit      -0.005373
 4304 Fit      -0.001768
 4305 Fit       0.000486
 4306 Fit       0.001566
 4307 Fit       0.001975
 4308 Fit      -0.012308
 4309 Fit      -0.009999
 4310 Fit      -0.004617
 4311 Fit      -0.001074
 4312 Fit       0.000831
 4313 Fit       0.001694
 4314 Fit       0.002040
 4315 Fit      -0.007918
 4316 Fit      -0.002669
 4317 Fit      -0.000071
 4318 Fit       0.001076
 4319 Fit       0.001580
 4320 Fit      -0.005378
 4321 Fit      -0.001848
 4322 Fit      -0.000267
 4323 Fit       0.000561
 4324 Fit      -0.009803
 4325 Fit      -0.004795
 4326 Fit      -0.002388
 4327 Fit       0.003533
 4328 Fit       0.004112
 4329 Fit       0.004523
 4330 Fit       0.004858
 4331 Fit       0.002408
 4332 Fit       0.003425
 4333 Fit       0.004189
 4334 Fit       0.004714
 4335 Fit       0.005076
 4336 Fit       0.005440
 4337 Fit       0.000319
 4338 Fit       0.002064
 4339 Fit       0.003323
 4340 Fit       0.004214
 4341 Fit       0.004814
 4342 Fit       0.005230
 4343 Fit       0.005664
 4344 Fit       0.006500
 4345 Fit      -0.000077
 4346 Fit       0.001901
 4347 Fit       0.003239
 4348 Fit       0.004132
 4349 Fit       0.004716
 4350 Fit       0.005161
 4351 Fit       0.005767
 4352 Fit       0.007154
 4353 Fit      -0.001218
 4354 Fit       0.001284
 4355 Fit       0.002801
 4356 Fit       0.003685
 4357 Fit       0.004192
 4358 Fit       0.004630
 4359 Fit      -0.006438
 4360 Fit      -0.001611
 4361 Fit       0.000944
 4362 Fit       0.002077
 4363 Fit       0.002132
 4364 Fit      -0.002111
 4365 Fit      -0.000984
 4366 Fit       0.006088
 4367 Fit       0.003530
 4368 Fit       0.007797
 4369 Fit       0.006856
 4370 Fit       0.005253
 4371 Fit       0.002726
 4372 Fit       0.008369
 4373 Fit       0.008300
 4374 Fit       0.007947
 4375 Fit       0.007153
 4376 Fit       0.005793
 4377 Fit       0.003730
 4378 Fit       0.007944
 4379 Fit       0.008259
 4380 Fit       0.008445
 4381 Fit       0.008293
 4382 Fit       0.007719
 4383 Fit       0.006678
 4384 Fit       0.005089
 4385 Fit       0.006808
 4386 Fit       0.007635
 4387 Fit       0.008223
 4388 Fit       0.008471
 4389 Fit       0.008394
 4390 Fit       0.008091
 4391 Fit       0.004101
 4392 Fit       0.005794
 4393 Fit       0.007040
 4394 Fit       0.007895
 4395 Fit       0.008478
 4396 Fit       0.009081
 4397 Fit       0.003540
 4398 Fit       0.005641
 4399 Fit       0.007144
 4400 Fit       0.008589
 4401 Fit       0.005147
 4402 Fit       0.007149
 4403 Fit       0.009727
 4404 Fit       0.010628
 4405 Fit       0.008839
 4406 Fit       0.005015
 4407 Fit       0.002108
 4408 Fit       0.005256
 4409 Fit       0.013207
 4410 Fit       0.013706
 4411 Fit       0.013005
 4412 Fit       0.011613
 4413 Fit       0.009291
 4414 Fit       0.005589
 4415 Fit       0.000179
 4416 Fit      -0.005032
 4417 Fit       0.015986
 4418 Fit       0.014795
 4419 Fit       0.013518
 4420 Fit       0.011887
 4421 Fit       0.009596
 4422 Fit       0.006242
 4423 Fit       0.001174
 4424 Fit      -0.006552
 4425 Fit       0.016088
 4426 Fit       0.014727
 4427 Fit       0.013213
 4428 Fit       0.011299
 4429 Fit       0.008690
 4430 Fit       0.004935
 4431 Fit      -0.000823
 4432 Fit      -0.010258
 4433 Fit       0.016314
 4434 Fit       0.014645
 4435 Fit       0.012726
 4436 Fit       0.010244
 4437 Fit       0.006746
 4438 Fit       0.001397
 4439 Fit      -0.007572
 4440 Fit       0.013676
 4441 Fit       0.011011
 4442 Fit       0.022598
 4443 Fit       0.020448
 4444 Fit       0.023123
 4445 Fit       0.020940
 4446 Fit       0.019795
 4447 Fit       0.019321
 4448 Fit       0.022360
 4449 Fit       0.020605
 4450 Fit       0.019616
 4451 Fit       0.019124
 4452 Fit       0.022852
 4453 Fit       0.020972
 4454 Fit       0.019840
 4455 Fit       0.019137
 4456 Fit       0.018765
 4457 Fit       0.018793
 4458 Fit       0.019970
 4459 Fit       0.019319
 4460 Fit       0.018785
 4461 Fit       0.018399
 4462 Fit       0.018218
 4463 Fit       0.017492
 4464 Fit       0.017653
 4465 Fit       0.017564
 4466 Fit       0.017495
 4467 Fit       0.015542
 4468 Fit       0.016268
 4469 Fit       0.016534
 4470 Fit       0.005492
 4471 Fit      -0.001077
 4472 Fit       0.012767
 4473 Fit       0.009825
 4474 Fit       0.005985
 4475 Fit       0.000573
 4476 Fit      -0.007495
 4477 Fit       0.015416
 4478 Fit       0.013557
 4479 Fit       0.011381
 4480 Fit       0.008619
 4481 Fit       0.004920
 4482 Fit      -0.000163
 4483 Fit      -0.007068
 4484 Fit       0.015232
 4485 Fit       0.013899
 4486 Fit       0.012174
 4487 Fit       0.009862
 4488 Fit       0.006696
 4489 Fit       0.002429
 4490 Fit      -0.002860
 4491 Fit       0.013018
 4492 Fit       0.013019
 4493 Fit       0.011876
 4494 Fit       0.009750
 4495 Fit       0.006534
 4496 Fit       0.002458
 4497 Fit      -0.001017
 4498 Fit      -0.001364
 4499 Fit       0.002032
 4500 Fit       0.009151
 4501 Fit       0.010597
 4502 Fit       0.009329
 4503 Fit       0.006239
 4504 Fit       0.003854
 4505 Fit       0.005530
 4506 Fit       0.007669
 4507 Fit      -0.007027
 4508 Fit      -0.009038
 4509 Fit      -0.005196
 4510 Fit      -0.007972
 4511 Fit      -0.002815
 4512 Fit      -0.004433
 4513 Fit      -0.007244
 4514 Fit      -0.002039
 4515 Fit      -0.003675
 4516 Fit      -0.006199
 4517 Fit      -0.001969
 4518 Fit      -0.003911
 4519 Fit      -0.006857
 4520 Fit      -0.001869
 4521 Fit      -0.003993
 4522 Fit      -0.007097
 4523 Fit      -0.012008
 4524 Fit      -0.003696
 4525 Fit      -0.006696
 4526 Fit      -0.011261
 4527 Fit      -0.013469
 4528 Fit       0.003920
 4529 Fit       0.001728
 4530 Fit       0.007978
 4531 Fit       0.005658
 4532 Fit       0.003773
 4533 Fit       0.002026
 4534 Fit       0.008313
 4535 Fit       0.006640
 4536 Fit       0.005089
 4537 Fit       0.003516
 4538 Fit       0.001899
 4539 Fit       0.007213
 4540 Fit       0.006852
 4541 Fit       0.005995
 4542 Fit       0.004868
 4543 Fit       0.003523
 4544 Fit       0.002012
 4545 Fit       0.002526
 4546 Fit       0.004661
 4547 Fit       0.005420
 4548 Fit       0.005315
 4549 Fit       0.004670
 4550 Fit       0.003644
 4551 Fit       0.002332
 4552 Fit       0.002931
 4553 Fit       0.003956
 4554 Fit       0.004037
 4555 Fit       0.003405
 4556 Fit       0.002258
 4557 Fit       0.002206
 4558 Fit       0.002784
 4559 Fit       0.002308
 4560 Fit      -0.006293
 4561 Fit      -0.005276
 4562 Fit      -0.018011
 4563 Fit      -0.016719
 4564 Fit      -0.014934
 4565 Fit      -0.010372
 4566 Fit      -0.006591
 4567 Fit      -0.004492
 4568 Fit      -0.003092
 4569 Fit      -0.001786
 4570 Fit      -0.006327
 4571 Fit      -0.010356
 4572 Fit      -0.014493
 4573 Fit      -0.009423
 4574 Fit      -0.007925
 4575 Fit      -0.005061
 4576 Fit      -0.002910
 4577 Fit      -0.001469
 4578 Fit      -0.000433
 4579 Fit      -0.000005
 4580 Fit      -0.000586
 4581 Fit      -0.002286
 4582 Fit      -0.004952
 4583 Fit      -0.007929
 4584 Fit      -0.005098
 4585 Fit      -0.003767
 4586 Fit      -0.001889
 4587 Fit      -0.001019
 4588 Fit      -0.001673
 4589 Fit      -0.003731
 4590 Fit      -0.002520
 -----------------------------------------------------------------
 Leave Link  602 at Fri Jan 17 11:57:46 2014, MaxMem=   235929600 cpu:         1.8

 Test job not archived.
 1\1\GINC-G42\SP\RHF\Gen\C10H11I1N4O1\KOLAR\17-Jan-2014\0\\# hf/gen pse
 udo=read pop=(mk, readradii) iop(6/33=2,6/41=5,6/42=2)\\na resp\\0,1\C
 ,0,-4.557118,1.190546,1.797974\C,0,-3.769611,0.299019,0.88748\C,0,-4.2
 21352,-0.855761,0.177402\C,0,-3.133775,-1.340568,-0.501774\N,0,-2.0929
 52,-0.467329,-0.197988\N,0,-2.490508,0.531218,0.661537\C,0,-0.751063,-
 0.583319,-0.610325\O,0,-0.334674,-1.619382,-1.096232\C,0,0.118948,0.60
 982,-0.44731\C,0,1.500014,0.627115,-0.124027\C,0,1.874383,1.95102,-0.2
 25976\N,0,0.763356,2.634673,-0.613715\N,0,-0.309555,1.843446,-0.743906
 \C,0,0.621939,4.067183,-0.814269\I,0,2.783599,-0.937538,0.452373\C,0,-
 3.021702,-2.52447,-1.40834\H,0,-4.985545,0.625817,2.634903\H,0,-3.9117
 45,1.975029,2.201327\H,0,-5.390179,1.665328,1.265107\H,0,-5.218307,-1.
 275141,0.168977\H,0,2.823406,2.43757,-0.057462\H,0,0.17613,4.537694,0.
 067841\H,0,1.606706,4.500487,-1.001519\H,0,-0.024248,4.236414,-1.67733
 5\H,0,-2.357692,-3.28891,-0.994677\H,0,-4.016267,-2.95672,-1.553755\H,
 0,-2.612,-2.250562,-2.385841\\Version=AM64L-G09RevD.01\State=1-A\HF=-6
 88.842873\RMSD=8.074e-09\Dipole=-0.2529008,1.458464,0.0692788\Quadrupo
 le=4.2121232,4.8303636,-9.0424868,8.4443044,-0.1743717,-2.0369307\PG=C
 01 [X(C10H11I1N4O1)]\\@


 WHEN HAVING A MEETING OF THE MINDS,
 MAKE SURE YOU HAVE THE EQUIPMENT FOR IT.
 Job cpu time:       0 days  0 hours  3 minutes 14.2 seconds.
 File lengths (MBytes):  RWF=     33 Int=      0 D2E=      0 Chk=      3 Scr=      1
 Normal termination of Gaussian 09 at Fri Jan 17 11:57:46 2014.
193.85user 0.40system 3:14.59elapsed 99%CPU (0avgtext+0avgdata 603440maxresident)k
8inputs+155336outputs (0major+171653minor)pagefaults 0swaps
