Linux g30 2.6.38.6-client #1 SMP Tue Jun 12 11:27:21 CEST 2012 x86_64 GNU/Linux
Thu Jan 16 21:46:46 CET 2014

 Entering Gaussian System, Link 0=/usr/local/programs/common/gaussian/gaussian09_d01/arch/amd64-pgi_10.4.0-acml/g09/g09
 Initial command:
 /usr/local/programs/common/gaussian/gaussian09_d01/arch/amd64-pgi_10.4.0-acml/g09/l1.exe "/scratch/kolar/g09_17308/Gau-2997.inp" -scrdir="/scratch/kolar/g09_17308/"
 Entering Link 1 = /usr/local/programs/common/gaussian/gaussian09_d01/arch/amd64-pgi_10.4.0-acml/g09/l1.exe PID=      2999.
  
 Copyright (c) 1988,1990,1992,1993,1995,1998,2003,2009,2013,
            Gaussian, Inc.  All Rights Reserved.
  
 This is part of the Gaussian(R) 09 program.  It is based on
 the Gaussian(R) 03 system (copyright 2003, Gaussian, Inc.),
 the Gaussian(R) 98 system (copyright 1998, Gaussian, Inc.),
 the Gaussian(R) 94 system (copyright 1995, Gaussian, Inc.),
 the Gaussian 92(TM) system (copyright 1992, Gaussian, Inc.),
 the Gaussian 90(TM) system (copyright 1990, Gaussian, Inc.),
 the Gaussian 88(TM) system (copyright 1988, Gaussian, Inc.),
 the Gaussian 86(TM) system (copyright 1986, Carnegie Mellon
 University), and the Gaussian 82(TM) system (copyright 1983,
 Carnegie Mellon University). Gaussian is a federally registered
 trademark of Gaussian, Inc.
  
 This software contains proprietary and confidential information,
 including trade secrets, belonging to Gaussian, Inc.
  
 This software is provided under written license and may be
 used, copied, transmitted, or stored only in accord with that
 written license.
  
 The following legend is applicable only to US Government
 contracts under FAR:
  
                    RESTRICTED RIGHTS LEGEND
  
 Use, reproduction and disclosure by the US Government is
 subject to restrictions as set forth in subparagraphs (a)
 and (c) of the Commercial Computer Software - Restricted
 Rights clause in FAR 52.227-19.
  
 Gaussian, Inc.
 340 Quinnipiac St., Bldg. 40, Wallingford CT 06492
  
  
 ---------------------------------------------------------------
 Warning -- This program may not be used in any manner that
 competes with the business of Gaussian, Inc. or will provide
 assistance to any competitor of Gaussian, Inc.  The licensee
 of this program is prohibited from giving any competitor of
 Gaussian, Inc. access to this program.  By using this program,
 the user acknowledges that Gaussian, Inc. is engaged in the
 business of creating and licensing software in the field of
 computational chemistry and represents and warrants to the
 licensee that it is not a competitor of Gaussian, Inc. and that
 it will not use this program in any manner prohibited above.
 ---------------------------------------------------------------
  

 Cite this work as:
 Gaussian 09, Revision D.01,
 M. J. Frisch, G. W. Trucks, H. B. Schlegel, G. E. Scuseria, 
 M. A. Robb, J. R. Cheeseman, G. Scalmani, V. Barone, B. Mennucci, 
 G. A. Petersson, H. Nakatsuji, M. Caricato, X. Li, H. P. Hratchian, 
 A. F. Izmaylov, J. Bloino, G. Zheng, J. L. Sonnenberg, M. Hada, 
 M. Ehara, K. Toyota, R. Fukuda, J. Hasegawa, M. Ishida, T. Nakajima, 
 Y. Honda, O. Kitao, H. Nakai, T. Vreven, J. A. Montgomery, Jr., 
 J. E. Peralta, F. Ogliaro, M. Bearpark, J. J. Heyd, E. Brothers, 
 K. N. Kudin, V. N. Staroverov, T. Keith, R. Kobayashi, J. Normand, 
 K. Raghavachari, A. Rendell, J. C. Burant, S. S. Iyengar, J. Tomasi, 
 M. Cossi, N. Rega, J. M. Millam, M. Klene, J. E. Knox, J. B. Cross, 
 V. Bakken, C. Adamo, J. Jaramillo, R. Gomperts, R. E. Stratmann, 
 O. Yazyev, A. J. Austin, R. Cammi, C. Pomelli, J. W. Ochterski, 
 R. L. Martin, K. Morokuma, V. G. Zakrzewski, G. A. Voth, 
 P. Salvador, J. J. Dannenberg, S. Dapprich, A. D. Daniels, 
 O. Farkas, J. B. Foresman, J. V. Ortiz, J. Cioslowski, 
 and D. J. Fox, Gaussian, Inc., Wallingford CT, 2013.
 
 ******************************************
 Gaussian 09:  AM64L-G09RevD.01 24-Apr-2013
                16-Jan-2014 
 ******************************************
 %mem=1800mb
 -----------------------------------------
 # hf/gen pop=mk iop(6/33=2,6/41=5,6/42=2)
 -----------------------------------------
 1/38=1/1;
 2/12=2,17=6,18=5,40=1/2;
 3/5=7,11=9,16=1,25=1,30=1/1,2,3;
 4//1;
 5/5=2,38=5/2;
 6/7=2,8=2,9=2,10=2,15=8,20=1,28=1,33=2,41=5,42=2/1,2;
 99/5=1,9=1/99;
 -------
 na resp
 -------
 Symbolic Z-matrix:
 Charge =  0 Multiplicity = 1
 6                     2.5498   -1.6142    0.90286 
 6                     3.60731  -1.50196  -0.00444 
 6                     3.57635  -0.50924  -0.98338 
 6                     2.49242   0.36757  -1.05183 
 6                     1.42788   0.25766  -0.14856 
 6                     1.46477  -0.74322   0.83374 
 6                     0.26453   1.21134  -0.27892 
 17                    0.02083   2.21102   1.24552 
 6                    -1.06347   0.53636  -0.65319 
 8                    -1.53479   0.78742  -1.77005 
 7                    -1.5722   -0.31006   0.29621 
 6                    -2.7338   -0.87027   0.09942 
 8                    -3.18861  -1.63599   1.10977 
 7                    -3.49939  -0.77708  -1.01009 
 1                     0.46469   1.94085  -1.06217 
 1                     4.45167  -2.18376   0.05489 
 1                     4.39543  -0.41145  -1.69083 
 1                     2.4735    1.14426  -1.8126 
 1                     0.63908  -0.83175   1.5306 
 1                     2.57104  -2.38467   1.66911 
 1                    -4.48912  -0.98031  -0.98802 
 1                    -3.96615  -2.14494   0.82781 
 1                    -3.12073  -0.14134  -1.71757 
 
                          Input orientation:                          
 ---------------------------------------------------------------------
 Center     Atomic      Atomic             Coordinates (Angstroms)
 Number     Number       Type             X           Y           Z
 ---------------------------------------------------------------------
      1          6           0        2.549799   -1.614197    0.902855
      2          6           0        3.607312   -1.501959   -0.004435
      3          6           0        3.576347   -0.509236   -0.983378
      4          6           0        2.492420    0.367568   -1.051832
      5          6           0        1.427884    0.257657   -0.148561
      6          6           0        1.464767   -0.743215    0.833744
      7          6           0        0.264530    1.211341   -0.278920
      8         17           0        0.020833    2.211020    1.245523
      9          6           0       -1.063465    0.536357   -0.653187
     10          8           0       -1.534791    0.787415   -1.770045
     11          7           0       -1.572204   -0.310056    0.296214
     12          6           0       -2.733796   -0.870274    0.099417
     13          8           0       -3.188609   -1.635986    1.109774
     14          7           0       -3.499390   -0.777078   -1.010093
     15          1           0        0.464688    1.940853   -1.062171
     16          1           0        4.451671   -2.183758    0.054885
     17          1           0        4.395431   -0.411449   -1.690828
     18          1           0        2.473498    1.144264   -1.812602
     19          1           0        0.639079   -0.831745    1.530600
     20          1           0        2.571036   -2.384669    1.669108
     21          1           0       -4.489119   -0.980309   -0.988021
     22          1           0       -3.966146   -2.144935    0.827806
     23          1           0       -3.120734   -0.141343   -1.717573
 ---------------------------------------------------------------------
                    Distance matrix (angstroms):
                    1          2          3          4          5
     1  C    0.000000
     2  C    1.397894   0.000000
     3  C    2.415081   1.394556   0.000000
     4  C    2.784149   2.415607   1.395840   0.000000
     5  C    2.422397   2.804804   2.429185   1.400434   0.000000
     6  C    1.393083   2.422547   2.795612   2.417707   1.402864
     7  C    3.821349   4.314108   3.797997   2.504564   1.509933
     8  Cl   4.598410   5.311444   5.000947   3.845113   2.781886
     9  C    4.483506   5.137292   4.767614   3.582140   2.557174
    10  O    5.440222   5.899139   5.331405   4.112241   3.418669
    11  N    4.365742   5.323383   5.308918   4.335617   3.085555
    12  C    5.395860   6.373340   6.412542   5.492810   4.318947
    13  O    5.742179   6.887958   7.170459   6.400067   5.145998
    14  N    6.399439   7.214015   7.080855   6.100307   5.107929
    15  H    4.565895   4.779942   3.961258   2.566521   2.143730
    16  H    2.158835   1.086881   2.155970   3.401875   3.891682
    17  H    3.402962   2.157375   1.086714   2.153285   3.410664
    18  H    3.871516   3.399632   2.153590   1.087376   2.156018
    19  H    2.158042   3.408215   3.879644   3.397378   2.151416
    20  H    1.086840   2.157265   3.400527   3.870982   3.404791
    21  H    7.315982   8.172622   8.079212   7.110748   6.103128
    22  H    6.537955   7.646130   7.927490   7.180445   5.985090
    23  H    6.418013   7.074795   6.747243   5.675359   4.828139
                    6          7          8          9         10
     6  C    0.000000
     7  C    2.549290   0.000000
     8  Cl   3.313912   1.839204   0.000000
     9  C    3.200035   1.535985   2.754142   0.000000
    10  O    4.256747   2.375021   3.679710   1.237962   0.000000
    11  N    3.114443   2.453369   3.129661   1.369888   2.339929
    12  C    4.264189   3.669635   4.289046   2.309768   2.771360
    13  O    4.746277   4.686140   5.011826   3.513309   4.111124
    14  N    5.295634   4.319203   5.138920   2.790381   2.623893
    15  H    3.434949   1.088914   2.365470   2.115450   2.414419
    16  H    3.406374   5.400951   6.353268   6.190082   6.927912
    17  H    3.882309   4.657389   5.885287   5.636895   6.050709
    18  H    3.403419   2.690022   4.062716   3.771459   4.024367
    19  H    1.084069   2.754787   3.117999   3.088573   4.271024
    20  H    2.148496   4.695324   5.272885   5.209131   6.224766
    21  H    6.230875   5.282361   5.959276   3.761316   3.530505
    22  H    5.608892   5.512536   5.919868   4.219979   4.610748
    23  H    5.281883   3.919118   4.917621   2.413411   1.838630
                   11         12         13         14         15
    11  N    0.000000
    12  C    1.304557   0.000000
    13  O    2.243376   1.346845   0.000000
    14  N    2.374572   1.351234   2.308277   0.000000
    15  H    3.325768   4.413844   5.554971   4.806639   0.000000
    16  H    6.313166   7.304667   7.732187   8.144464   5.844336
    17  H    6.290571   7.364874   8.176829   7.932546   4.623773
    18  H    4.788513   5.901702   6.951944   6.325422   2.287579
    19  H    2.585661   3.664158   3.933840   4.856443   3.800023
    20  H    4.832732   5.735727   5.834971   6.827338   5.532335
    21  H    3.256822   2.067798   2.553817   1.010620   5.751425
    22  H    3.062732   1.916768   0.971133   2.338112   6.316484
    23  H    2.545928   1.995624   3.198821   1.023752   4.197659
                   16         17         18         19         20
    16  H    0.000000
    17  H    2.488324   0.000000
    18  H    4.298419   2.475661   0.000000
    19  H    4.305988   4.966329   4.294963   0.000000
    20  H    2.486538   4.302463   4.958345   2.482582   0.000000
    21  H    9.081501   8.930441   7.326103   5.715237   7.673223
    22  H    8.453316   8.903059   7.698026   4.840091   6.595454
    23  H    8.040795   7.521064   5.740840   5.016321   6.992737
                   21         22         23
    21  H    0.000000
    22  H    2.219703   0.000000
    23  H    1.763119   3.347844   0.000000
 Stoichiometry    C9H9ClN2O2
 Framework group  C1[X(C9H9ClN2O2)]
 Deg. of freedom    63
 Full point group                 C1      NOp   1
 Largest Abelian subgroup         C1      NOp   1
 Largest concise Abelian subgroup C1      NOp   1
                         Standard orientation:                         
 ---------------------------------------------------------------------
 Center     Atomic      Atomic             Coordinates (Angstroms)
 Number     Number       Type             X           Y           Z
 ---------------------------------------------------------------------
      1          6           0       -2.549799   -1.614197   -0.902855
      2          6           0       -3.607312   -1.501959    0.004435
      3          6           0       -3.576347   -0.509236    0.983378
      4          6           0       -2.492420    0.367568    1.051832
      5          6           0       -1.427884    0.257657    0.148561
      6          6           0       -1.464767   -0.743215   -0.833744
      7          6           0       -0.264530    1.211341    0.278920
      8         17           0       -0.020833    2.211020   -1.245523
      9          6           0        1.063465    0.536357    0.653187
     10          8           0        1.534791    0.787415    1.770045
     11          7           0        1.572204   -0.310056   -0.296214
     12          6           0        2.733796   -0.870274   -0.099417
     13          8           0        3.188609   -1.635986   -1.109774
     14          7           0        3.499390   -0.777078    1.010093
     15          1           0       -0.464688    1.940853    1.062171
     16          1           0       -4.451671   -2.183758   -0.054885
     17          1           0       -4.395431   -0.411449    1.690828
     18          1           0       -2.473498    1.144264    1.812602
     19          1           0       -0.639079   -0.831745   -1.530600
     20          1           0       -2.571036   -2.384669   -1.669108
     21          1           0        4.489119   -0.980309    0.988021
     22          1           0        3.966146   -2.144935   -0.827806
     23          1           0        3.120734   -0.141343    1.717573
 ---------------------------------------------------------------------
 Rotational constants (GHZ):      0.8991956      0.3808744      0.3417891
 General basis read from cards:  (5D, 7F)
 There are   232 symmetry adapted cartesian basis functions of A   symmetry.
 There are   218 symmetry adapted basis functions of A   symmetry.
   218 basis functions,   452 primitive gaussians,   232 cartesian basis functions
    55 alpha electrons       55 beta electrons
       nuclear repulsion energy       956.0259496100 Hartrees.
 NAtoms=   23 NActive=   23 NUniq=   23 SFac= 1.00D+00 NAtFMM=   60 NAOKFM=F Big=F
 Integral buffers will be    131072 words long.
 Raffenetti 1 integral format.
 Two-electron integral symmetry is turned on.
 One-electron integrals computed using PRISM.
 NBasis=   218 RedAO= T EigKep=  4.83D-04  NBF=   218
 NBsUse=   218 1.00D-06 EigRej= -1.00D+00 NBFU=   218
 ExpMin= 1.43D-01 ExpMax= 2.52D+04 ExpMxC= 3.78D+03 IAcc=1 IRadAn=         1 AccDes= 0.00D+00
 Harris functional with IExCor=  205 and IRadAn=       1 diagonalized for initial guess.
 HarFok:  IExCor=  205 AccDes= 0.00D+00 IRadAn=         1 IDoV= 1 UseB2=F ITyADJ=14
 ICtDFT=  3500011 ScaDFX=  1.000000  1.000000  1.000000  1.000000
 FoFCou: FMM=F IPFlag=           0 FMFlag=      100000 FMFlg1=           0
         NFxFlg=           0 DoJE=T BraDBF=F KetDBF=T FulRan=T
         wScrn=  0.000000 ICntrl=     500 IOpCl=  0 I1Cent=   200000004 NGrid=           0
         NMat0=    1 NMatS0=      1 NMatT0=    0 NMatD0=    1 NMtDS0=    0 NMtDT0=    0
 Petite list used in FoFCou.
 Requested convergence on RMS density matrix=1.00D-08 within 128 cycles.
 Requested convergence on MAX density matrix=1.00D-06.
 Requested convergence on             energy=1.00D-06.
 No special actions if energy rises.
 Integral accuracy reduced to 1.0D-05 until final iterations.
 Initial convergence to 1.0D-05 achieved.  Increase integral accuracy.
 SCF Done:  E(RHF) =  -1064.16342997     A.U. after   16 cycles
            NFock= 16  Conv=0.89D-08     -V/T= 2.0008

 **********************************************************************

            Population analysis using the SCF density.

 **********************************************************************

 Orbital symmetries:
 BldTbl:  Degeneracy threshold= 1.00D-02
       Occupied  (A) (A) (A) (A) (A) (A) (A) (A) (A) (A) (A) (A)
                 (A) (A) (A) (A) (A) (A) (A) (A) (A) (A) (A) (A)
                 (A) (A) (A) (A) (A) (A) (A) (A) (A) (A) (A) (A)
                 (A) (A) (A) (A) (A) (A) (A) (A) (A) (A) (A) (A)
                 (A) (A) (A) (A) (A) (A) (A)
       Virtual   (A) (A) (A) (A) (A) (A) (A) (A) (A) (A) (A) (A)
                 (A) (A) (A) (A) (A) (A) (A) (A) (A) (A) (A) (A)
                 (A) (A) (A) (A) (A) (A) (A) (A) (A) (A) (A) (A)
                 (A) (A) (A) (A) (A) (A) (A) (A) (A) (A) (A) (A)
                 (A) (A) (A) (A) (A) (A) (A) (A) (A) (A) (A) (A)
                 (A) (A) (A) (A) (A) (A) (A) (A) (A) (A) (A) (A)
                 (A) (A) (A) (A) (A) (A) (A) (A) (A) (A) (A) (A)
                 (A) (A) (A) (A) (A) (A) (A) (A) (A) (A) (A) (A)
                 (A) (A) (A) (A) (A) (A) (A) (A) (A) (A) (A) (A)
                 (A) (A) (A) (A) (A) (A) (A) (A) (A) (A) (A) (A)
                 (A) (A) (A) (A) (A) (A) (A) (A) (A) (A) (A) (A)
                 (A) (A) (A) (A) (A) (A) (A) (A) (A) (A) (A) (A)
                 (A) (A) (A) (A) (A) (A) (A) (A) (A) (A) (A) (A)
                 (A) (A) (A) (A) (A) (A) (A)
 The electronic state is 1-A.
 Alpha  occ. eigenvalues -- -104.79531 -20.64139 -20.55068 -15.61535 -15.54816
 Alpha  occ. eigenvalues --  -11.42786 -11.36813 -11.30288 -11.24610 -11.23699
 Alpha  occ. eigenvalues --  -11.23435 -11.23171 -11.23007 -11.22859 -10.53356
 Alpha  occ. eigenvalues --   -8.00201  -7.99881  -7.99870  -1.47264  -1.39347
 Alpha  occ. eigenvalues --   -1.27170  -1.20190  -1.15869  -1.11388  -1.02304
 Alpha  occ. eigenvalues --   -1.00935  -0.95144  -0.89584  -0.82468  -0.81661
 Alpha  occ. eigenvalues --   -0.79627  -0.77434  -0.72416  -0.70122  -0.66899
 Alpha  occ. eigenvalues --   -0.65793  -0.64485  -0.63762  -0.61015  -0.60581
 Alpha  occ. eigenvalues --   -0.58686  -0.58090  -0.56101  -0.52964  -0.50750
 Alpha  occ. eigenvalues --   -0.49535  -0.48904  -0.48248  -0.46642  -0.43845
 Alpha  occ. eigenvalues --   -0.42563  -0.41208  -0.39305  -0.33031  -0.32458
 Alpha virt. eigenvalues --    0.10234   0.14022   0.15131   0.17132   0.21082
 Alpha virt. eigenvalues --    0.23664   0.24398   0.26753   0.28016   0.30731
 Alpha virt. eigenvalues --    0.31490   0.31960   0.34434   0.34967   0.36559
 Alpha virt. eigenvalues --    0.40690   0.41252   0.44262   0.46538   0.48011
 Alpha virt. eigenvalues --    0.48859   0.51172   0.52101   0.53058   0.58363
 Alpha virt. eigenvalues --    0.59746   0.64927   0.65339   0.66812   0.68397
 Alpha virt. eigenvalues --    0.70597   0.72749   0.73881   0.74995   0.75245
 Alpha virt. eigenvalues --    0.76588   0.76687   0.78677   0.79268   0.80526
 Alpha virt. eigenvalues --    0.81552   0.83944   0.84244   0.85144   0.85585
 Alpha virt. eigenvalues --    0.87326   0.87871   0.89000   0.90483   0.92443
 Alpha virt. eigenvalues --    0.94265   0.95568   0.98340   1.00082   1.01367
 Alpha virt. eigenvalues --    1.02667   1.06598   1.07477   1.09066   1.10140
 Alpha virt. eigenvalues --    1.11420   1.12134   1.12828   1.14109   1.14493
 Alpha virt. eigenvalues --    1.17287   1.17435   1.18849   1.19619   1.19898
 Alpha virt. eigenvalues --    1.21645   1.22239   1.22867   1.23430   1.24720
 Alpha virt. eigenvalues --    1.28284   1.29349   1.30961   1.33635   1.35762
 Alpha virt. eigenvalues --    1.38510   1.38802   1.40848   1.41723   1.42548
 Alpha virt. eigenvalues --    1.47004   1.48690   1.50719   1.52985   1.55016
 Alpha virt. eigenvalues --    1.56692   1.61386   1.65155   1.69339   1.69821
 Alpha virt. eigenvalues --    1.70672   1.72000   1.73927   1.76427   1.77158
 Alpha virt. eigenvalues --    1.77802   1.78985   1.79709   1.88434   1.93943
 Alpha virt. eigenvalues --    1.94948   1.98996   2.01889   2.05547   2.06185
 Alpha virt. eigenvalues --    2.09998   2.10669   2.12286   2.12797   2.14334
 Alpha virt. eigenvalues --    2.16879   2.17702   2.21004   2.23812   2.24457
 Alpha virt. eigenvalues --    2.26602   2.28486   2.31330   2.32907   2.37910
 Alpha virt. eigenvalues --    2.40919   2.41523   2.46174   2.46632   2.48819
 Alpha virt. eigenvalues --    2.49358   2.51535   2.55766   2.58249   2.60838
 Alpha virt. eigenvalues --    2.63444   2.63930   2.66119   2.70922   2.72100
 Alpha virt. eigenvalues --    2.76491   2.78919   2.83242   2.86184   2.91742
 Alpha virt. eigenvalues --    2.92086   2.93663   2.98594   2.99751   3.04958
 Alpha virt. eigenvalues --    3.05835   3.07953   3.10616   3.11154   3.15113
 Alpha virt. eigenvalues --    3.18824   3.22217   3.25876   3.33534   3.43564
 Alpha virt. eigenvalues --    3.47192   3.67941   3.79224
          Condensed to atoms (all electrons):
               1          2          3          4          5          6
     1  C    4.916203   0.541247  -0.041768  -0.036623  -0.039797   0.539697
     2  C    0.541247   4.891913   0.552999  -0.043666  -0.030496  -0.043019
     3  C   -0.041768   0.552999   4.900106   0.539953  -0.040645  -0.035268
     4  C   -0.036623  -0.043666   0.539953   4.908994   0.559878  -0.037919
     5  C   -0.039797  -0.030496  -0.040645   0.559878   4.915558   0.551415
     6  C    0.539697  -0.043019  -0.035268  -0.037919   0.551415   4.914825
     7  C    0.002418   0.000135   0.003018  -0.035810   0.265996  -0.046060
     8  Cl  -0.000045   0.000014  -0.000072   0.000912  -0.075976  -0.004021
     9  C    0.000038   0.000014  -0.000113  -0.000066  -0.035480  -0.004881
    10  O    0.000001   0.000000  -0.000001  -0.000170   0.001709   0.000055
    11  N   -0.000143   0.000010  -0.000007   0.000318   0.002648  -0.007383
    12  C   -0.000005   0.000000   0.000000  -0.000001  -0.000016  -0.000041
    13  O    0.000000   0.000000   0.000000   0.000000   0.000005  -0.000014
    14  N    0.000000   0.000000   0.000000   0.000000   0.000001  -0.000004
    15  H   -0.000038  -0.000007   0.000327  -0.000736  -0.044502   0.002804
    16  H   -0.030232   0.382394  -0.030504   0.002515   0.000208   0.002296
    17  H    0.002339  -0.029805   0.382561  -0.030434   0.002263   0.000224
    18  H    0.000117   0.002321  -0.027578   0.379355  -0.033109   0.002690
    19  H   -0.027108   0.002083   0.000080   0.002511  -0.023219   0.374438
    20  H    0.382994  -0.030803   0.002354   0.000292   0.001837  -0.029063
    21  H    0.000000   0.000000   0.000000   0.000000   0.000000   0.000000
    22  H    0.000000   0.000000   0.000000   0.000000   0.000000   0.000000
    23  H    0.000000   0.000000   0.000000   0.000000  -0.000034  -0.000001
               7          8          9         10         11         12
     1  C    0.002418  -0.000045   0.000038   0.000001  -0.000143  -0.000005
     2  C    0.000135   0.000014   0.000014   0.000000   0.000010   0.000000
     3  C    0.003018  -0.000072  -0.000113  -0.000001  -0.000007   0.000000
     4  C   -0.035810   0.000912  -0.000066  -0.000170   0.000318  -0.000001
     5  C    0.265996  -0.075976  -0.035480   0.001709   0.002648  -0.000016
     6  C   -0.046060  -0.004021  -0.004881   0.000055  -0.007383  -0.000041
     7  C    5.382177   0.249150   0.333136  -0.068458  -0.115289   0.003919
     8  Cl   0.249150  17.013886  -0.067898   0.002015   0.001342  -0.001088
     9  C    0.333136  -0.067898   4.247985   0.516276   0.353678  -0.039750
    10  O   -0.068458   0.002015   0.516276   8.277309  -0.091411  -0.000234
    11  N   -0.115289   0.001342   0.353678  -0.091411   7.118114   0.554359
    12  C    0.003919  -0.001088  -0.039750  -0.000234   0.554359   3.893195
    13  O   -0.000054  -0.000002   0.000142  -0.000051  -0.070756   0.324204
    14  N   -0.000634   0.000042  -0.005816  -0.033383  -0.088105   0.338706
    15  H    0.397168  -0.041227  -0.044103   0.005205   0.003838  -0.000082
    16  H    0.000006   0.000000   0.000000   0.000000   0.000000   0.000000
    17  H   -0.000118   0.000002   0.000001   0.000000   0.000000   0.000000
    18  H   -0.002621   0.000012   0.000125  -0.000016  -0.000001   0.000000
    19  H   -0.003121   0.000060   0.000172   0.000039   0.006741   0.000275
    20  H   -0.000106   0.000002   0.000000   0.000000  -0.000006   0.000000
    21  H    0.000016   0.000000   0.000238   0.000768   0.002333  -0.022543
    22  H    0.000005  -0.000002  -0.000048   0.000028   0.004638  -0.024621
    23  H    0.000775  -0.000078  -0.006829   0.048739  -0.006420  -0.012860
              13         14         15         16         17         18
     1  C    0.000000   0.000000  -0.000038  -0.030232   0.002339   0.000117
     2  C    0.000000   0.000000  -0.000007   0.382394  -0.029805   0.002321
     3  C    0.000000   0.000000   0.000327  -0.030504   0.382561  -0.027578
     4  C    0.000000   0.000000  -0.000736   0.002515  -0.030434   0.379355
     5  C    0.000005   0.000001  -0.044502   0.000208   0.002263  -0.033109
     6  C   -0.000014  -0.000004   0.002804   0.002296   0.000224   0.002690
     7  C   -0.000054  -0.000634   0.397168   0.000006  -0.000118  -0.002621
     8  Cl  -0.000002   0.000042  -0.041227   0.000000   0.000002   0.000012
     9  C    0.000142  -0.005816  -0.044103   0.000000   0.000001   0.000125
    10  O   -0.000051  -0.033383   0.005205   0.000000   0.000000  -0.000016
    11  N   -0.070756  -0.088105   0.003838   0.000000   0.000000  -0.000001
    12  C    0.324204   0.338706  -0.000082   0.000000   0.000000   0.000000
    13  O    8.304218  -0.088340   0.000000   0.000000   0.000000   0.000000
    14  N   -0.088340   7.273627   0.000011   0.000000   0.000000   0.000000
    15  H    0.000000   0.000011   0.455032   0.000000  -0.000010   0.002843
    16  H    0.000000   0.000000   0.000000   0.471019  -0.001455  -0.000102
    17  H    0.000000   0.000000  -0.000010  -0.001455   0.470464  -0.001440
    18  H    0.000000   0.000000   0.002843  -0.000102  -0.001440   0.467031
    19  H    0.000019   0.000019  -0.000017  -0.000084   0.000008  -0.000096
    20  H    0.000000   0.000000   0.000001  -0.001417  -0.000104   0.000009
    21  H    0.000908   0.313553   0.000000   0.000000   0.000000   0.000000
    22  H    0.258717   0.000505   0.000000   0.000000   0.000000   0.000000
    23  H    0.001514   0.265155  -0.000003   0.000000   0.000000   0.000000
              19         20         21         22         23
     1  C   -0.027108   0.382994   0.000000   0.000000   0.000000
     2  C    0.002083  -0.030803   0.000000   0.000000   0.000000
     3  C    0.000080   0.002354   0.000000   0.000000   0.000000
     4  C    0.002511   0.000292   0.000000   0.000000   0.000000
     5  C   -0.023219   0.001837   0.000000   0.000000  -0.000034
     6  C    0.374438  -0.029063   0.000000   0.000000  -0.000001
     7  C   -0.003121  -0.000106   0.000016   0.000005   0.000775
     8  Cl   0.000060   0.000002   0.000000  -0.000002  -0.000078
     9  C    0.000172   0.000000   0.000238  -0.000048  -0.006829
    10  O    0.000039   0.000000   0.000768   0.000028   0.048739
    11  N    0.006741  -0.000006   0.002333   0.004638  -0.006420
    12  C    0.000275   0.000000  -0.022543  -0.024621  -0.012860
    13  O    0.000019   0.000000   0.000908   0.258717   0.001514
    14  N    0.000019   0.000000   0.313553   0.000505   0.265155
    15  H   -0.000017   0.000001   0.000000   0.000000  -0.000003
    16  H   -0.000084  -0.001417   0.000000   0.000000   0.000000
    17  H    0.000008  -0.000104   0.000000   0.000000   0.000000
    18  H   -0.000096   0.000009   0.000000   0.000000   0.000000
    19  H    0.407903  -0.001129   0.000000   0.000000   0.000000
    20  H   -0.001129   0.468861   0.000000   0.000000   0.000000
    21  H    0.000000   0.000000   0.312851   0.002459  -0.007410
    22  H    0.000000   0.000000   0.002459   0.285527   0.000271
    23  H    0.000000   0.000000  -0.007410   0.000271   0.223985
 Mulliken charges:
               1
     1  C   -0.209296
     2  C   -0.195332
     3  C   -0.205442
     4  C   -0.209302
     5  C    0.021757
     6  C   -0.180771
     7  C   -0.365648
     8  Cl  -0.077029
     9  C    0.753178
    10  O   -0.658419
    11  N   -0.668498
    12  C    0.986583
    13  O   -0.730512
    14  N   -0.975338
    15  H    0.263496
    16  H    0.205357
    17  H    0.205505
    18  H    0.210460
    19  H    0.260429
    20  H    0.206278
    21  H    0.396827
    22  H    0.472520
    23  H    0.493197
 Sum of Mulliken charges =   0.00000
 Mulliken charges with hydrogens summed into heavy atoms:
               1
     1  C   -0.003018
     2  C    0.010025
     3  C    0.000064
     4  C    0.001157
     5  C    0.021757
     6  C    0.079658
     7  C   -0.102152
     8  Cl  -0.077029
     9  C    0.753178
    10  O   -0.658419
    11  N   -0.668498
    12  C    0.986583
    13  O   -0.257992
    14  N   -0.085314
 DipInt: DoE/N= T F RetVal/Mat= T F Init=T NMatP=  1 IDeriv=0 Min/MaxMlt=  0  4
 Entering OneElI...
 OneElI was handed   235789257 working-precision words.
 Multipole integrals L=0 to 4 MinM= 0 MaxM= 0.
 Requested accuracy = 0.1000D-12
 ShPair: Thresh= 1.00D-13 NBox=     0 BxSize= 0.00D+00 RnKept= 1.72D+01
         NSMCal=                 2850 NSMKep=                2430
 PrsmSu:  NPrtUS=   1 ThrOK=F IAlg=1 NPAlg=1 LenDen=           0.
 Prism:   IPart=     0 DynPar=F LinDyn=F Incr=          24.
 PRISM was handed   235558823 working-precision words and  2430 shell-pairs
 IPart=  0 NShTot=        2430 NBatch=          89 AvBLen=        27.3
 PrSmSu:  NxtVal=             25.
 Electronic moments (au):
       -110.00000000          1.49397964         -1.38154183          0.63469353
      -2216.31821359       -731.07721663       -465.12983632         -6.42320884
         -0.22120273          2.70088611        654.91601935       -577.62578817
       -165.57606789        162.36948120       3630.10146373       -977.53663687
       -190.88062224       -272.04233829        891.34815564       -108.20829354
     -87642.99966462     -10805.61510732      -4176.08002606       -250.88593789
       3361.15338482       -698.88024113       1570.56432600       -441.91114073
        -80.36569885     -12430.68913629      -8678.78275544      -3538.32517674
      -2372.01309876         81.17353368         92.31470729
 Electronic spatial extent (au):  <R**2>=           3412.5253
 DipInt: DoE/N= F T RetVal/Mat= T F Init=T NMatP=  1 IDeriv=0 Min/MaxMlt=  0  4
 Nuclear    moments (au):
        110.00000000          0.00000000          0.00000000          0.00000000
       2176.84100616        666.62904372        395.61094391          0.00000000
          0.00003057         -0.00002698       -418.58426826        551.50693595
        158.19495389       -129.32810903      -3724.24470745       1014.74598322
        191.69501336        269.45411305       -895.12764703         92.23107845
      82096.21931536       8331.88108710       2595.20399469       -296.87362359
      -3350.08048703        518.43825477      -1484.13052992        442.75315605
         74.75491605      11048.89690187       7169.91928286       2866.70626298
       2427.15993610        -96.06374974       -127.29554095
 Total      moments (au):
          0.00000000          1.49397964         -1.38154183          0.63469353
        -39.47720744        -64.44817291        -69.51889241         -6.42320884
         -0.22117217          2.70085913        236.33175110        -26.11885222
         -7.38111400         33.04137217        -94.14324372         37.20934635
          0.81439112         -2.58822524         -3.77949139        -15.97721509
      -5546.78034926      -2473.73402022      -1580.87603138       -547.75956148
         11.07289779       -180.44198636         86.43379608          0.84201531
         -5.61078280      -1381.79223442      -1508.86347257       -671.61891376
         55.14683735        -14.89021606        -34.98083366
 Traceless Quadrup. (au):
         18.33755015         -6.63341533        -11.70413482         -6.42320884
         -0.22117217          2.70085913
 Charge=              0.0000 electrons
 Dipole moment (field-independent basis, Debye):
    X=              3.7973    Y=             -3.5115    Z=              1.6132  Tot=              5.4178
 Quadrupole moment (field-independent basis, Debye-Ang):
   XX=            -53.0982   YY=            -86.6850   ZZ=            -93.5053
   XY=             -8.6394   XZ=             -0.2975   YZ=              3.6327
 Traceless Quadrupole moment (field-independent basis, Debye-Ang):
   XX=             24.6646   YY=             -8.9222   ZZ=            -15.7425
   XY=             -8.6394   XZ=             -0.2975   YZ=              3.6327
 Octapole moment (field-independent basis, Debye-Ang**2):
  XXX=            168.2118  YYY=            -18.5904  ZZZ=             -5.2536  XYY=             23.5176
  XXY=            -67.0075  XXZ=             26.4842  XZZ=              0.5797  YZZ=             -1.8422
  YYZ=             -2.6901  XYZ=            -11.3720
 Hexadecapole moment (field-independent basis, Debye-Ang**3):
 XXXX=          -2089.1833 YYYY=           -931.7268 ZZZZ=           -595.4337 XXXY=           -206.3125
 XXXZ=              4.1706 YYYX=            -67.9631 YYYZ=             32.5551 ZZZX=              0.3171
 ZZZY=             -2.1133 XXYY=           -520.4492 XXZZ=           -568.3103 YYZZ=           -252.9639
 XXYZ=             20.7709 YYXZ=             -5.6084 ZZXY=            -13.1755
 N-N= 9.560259496100D+02 E-N=-4.423405429975D+03  KE= 1.063363763517D+03
 Entering OneElI...
 OneElI was handed   235821792 working-precision words.
 Calculate electrostatic properties
    NBasis =   218  MinDer = 0  MaxDer = 0
    NGrid  =    23  NMatD  =   1
 Requested accuracy = 0.1000D-12
 PrtBox:  NBox=     1 Levels=  1 BoxLen=   32.45 SMaxX=       16.90
          Shift=            8.412439            4.506371            3.154157
 Box      1 Number                   0 centers from      1 to     75:
 ShPair: Thresh= 1.00D-13 NBox=     1 BxSize= 3.24D+01 RnKept= 1.72D+01
         NSMCal=                 2850 NSMKep=                2191
 PrsmSu:  NPrtUS=   1 ThrOK=F IAlg=1 NPAlg=1 LenDen=           0.
 Prism:   IPart=     0 DynPar=F LinDyn=F Incr=         503.
 PRISM was handed   235611921 working-precision words and  2191 shell-pairs
 IPart=  0 NShTot=       50393 NBatch=        2192 AvBLen=        23.0
 PrSmSu:  NxtVal=            504.
 --------------------------------------------------------
       Center         ----      EFG at Nuclei      ----
                      3XX-RR        3YY-RR        3ZZ-RR
 --------------------------------------------------------
     1   Atom        0.079246     -0.040154     -0.039093
     2   Atom        0.047119     -0.039591     -0.007528
     3   Atom        0.040665     -0.010166     -0.030499
     4   Atom        0.081159     -0.034129     -0.047030
     5   Atom       -0.007326     -0.033515      0.040841
     6   Atom        0.083115     -0.045336     -0.037779
     7   Atom        0.188064      0.045225     -0.233289
     8   Atom        1.723092      0.139454     -1.862546
     9   Atom        0.086665     -0.241344      0.154679
    10   Atom        0.589419      0.210787     -0.800206
    11   Atom       -0.253331     -0.241717      0.495048
    12   Atom        0.259403     -0.237059     -0.022344
    13   Atom       -0.159348      0.061337      0.098011
    14   Atom       -0.427144      0.617173     -0.190029
    15   Atom        0.129192     -0.052994     -0.076198
    16   Atom       -0.124800     -0.025945      0.150746
    17   Atom       -0.108984      0.148559     -0.039574
    18   Atom        0.145315     -0.078130     -0.067185
    19   Atom       -0.102410      0.143018     -0.040608
    20   Atom        0.147895     -0.075423     -0.072472
    21   Atom       -0.373936      0.198067      0.175869
    22   Atom       -0.194957      0.051523      0.143434
    23   Atom        0.096397      0.001126     -0.097523
 --------------------------------------------------------
                        XY            XZ            YZ
 --------------------------------------------------------
     1   Atom        0.153324     -0.149496      0.171835
     2   Atom        0.129765     -0.165760      0.216596
     3   Atom        0.148838     -0.116706      0.196361
     4   Atom        0.166797     -0.148684      0.170039
     5   Atom        0.041835     -0.142848      0.178404
     6   Atom        0.170847     -0.168943      0.208060
     7   Atom       -0.019696      0.061582      0.335871
     8   Atom       -0.369877      0.505995      2.524780
     9   Atom       -0.357368      0.198613      0.245286
    10   Atom       -1.202355     -0.387834      0.257437
    11   Atom        0.398647      0.427491     -0.012059
    12   Atom       -0.302205      0.193674      0.150426
    13   Atom        1.444543      0.194217     -0.688724
    14   Atom        0.280298     -0.304867     -0.376308
    15   Atom        0.054129      0.062930     -0.206674
    16   Atom       -0.226941     -0.012917     -0.023794
    17   Atom        0.023627      0.228948     -0.035761
    18   Atom       -0.014057      0.002197     -0.233517
    19   Atom        0.022913      0.225816     -0.035045
    20   Atom       -0.013351      0.000214     -0.235139
    21   Atom        0.128986      0.010287     -0.032908
    22   Atom        0.288788     -0.159369      0.079614
    23   Atom        0.103041      0.087806     -0.229816
 --------------------------------------------------------


 ---------------------------------------------------------------------------------
              Nuclear Quadrupole Coupling Constant in Principal Axis System
 ---------------------------------------------------------------------------------

       Atom             a.u.   MegaHertz   Gauss  10(-4) cm-1        Axes

              Baa    -3.6505   -70.035   -24.990   -23.361 -0.1158 -0.5585  0.8214
     8 Cl(35) Bbb     1.7890    34.322    12.247    11.449  0.9435  0.1966  0.2667
              Bcc     1.8615    35.713    12.743    11.912 -0.3104  0.8059  0.5042
 
              Baa    -0.7328     3.519     1.256     1.174  0.7453 -0.6116 -0.2655
    11 N(14)  Bbb     0.0157    -0.075    -0.027    -0.025  0.4851  0.7706 -0.4133
              Bcc     0.7170    -3.444    -1.229    -1.149  0.4574  0.1792  0.8710
 
              Baa    -0.6361     3.055     1.090     1.019  0.8334 -0.0206  0.5523
    14 N(14)  Bbb    -0.2382     1.144     0.408     0.382 -0.4763  0.4801  0.7366
              Bcc     0.8743    -4.199    -1.498    -1.401  0.2803  0.8769 -0.3904
 

 ---------------------------------------------------------------------------------

 No NMR shielding tensors so no spin-rotation constants.
 Leave Link  601 at Thu Jan 16 21:49:17 2014, MaxMem=   235929600 cpu:         0.3
 FitSet:  NAtFit=    23 NAtPot=    23 NAtFrz=     0 MDM=    27 TotChg=   0.00000
 Merz-Kollman atomic radii used.
 Atom Element Radius
    1     6    1.50
    2     6    1.50
    3     6    1.50
    4     6    1.50
    5     6    1.50
    6     6    1.50
    7     6    1.50
    8    17    1.70
    9     6    1.50
   10     8    1.40
   11     7    1.50
   12     6    1.50
   13     8    1.40
   14     7    1.50
   15     1    1.20
   16     1    1.20
   17     1    1.20
   18     1    1.20
   19     1    1.20
   20     1    1.20
   21     1    1.20
   22     1    1.20
   23     1    1.20
 Generate VDW surfaces: Layer= 5 Dens= 2 Start= 1.400 Inc= 0.179

 **********************************************************************

            Electrostatic Properties Using The SCF Density

 **********************************************************************

       Atomic Center    1 is at  -2.549799 -1.614197 -0.902855
       Atomic Center    2 is at  -3.607312 -1.501959  0.004435
       Atomic Center    3 is at  -3.576347 -0.509236  0.983378
       Atomic Center    4 is at  -2.492420  0.367568  1.051832
       Atomic Center    5 is at  -1.427884  0.257657  0.148561
       Atomic Center    6 is at  -1.464767 -0.743215 -0.833744
       Atomic Center    7 is at  -0.264530  1.211341  0.278920
       Atomic Center    8 is at  -0.020833  2.211020 -1.245523
       Atomic Center    9 is at   1.063465  0.536357  0.653187
       Atomic Center   10 is at   1.534791  0.787415  1.770045
       Atomic Center   11 is at   1.572204 -0.310056 -0.296214
       Atomic Center   12 is at   2.733796 -0.870274 -0.099417
       Atomic Center   13 is at   3.188609 -1.635986 -1.109774
       Atomic Center   14 is at   3.499390 -0.777078  1.010093
       Atomic Center   15 is at  -0.464688  1.940853  1.062171
       Atomic Center   16 is at  -4.451671 -2.183758 -0.054885
       Atomic Center   17 is at  -4.395431 -0.411449  1.690828
       Atomic Center   18 is at  -2.473498  1.144264  1.812602
       Atomic Center   19 is at  -0.639079 -0.831745 -1.530600
       Atomic Center   20 is at  -2.571036 -2.384669 -1.669108
       Atomic Center   21 is at   4.489119 -0.980309  0.988021
       Atomic Center   22 is at   3.966146 -2.144935 -0.827806
       Atomic Center   23 is at   3.120734 -0.141343  1.717573
      ESP Fit Center   24 is at  -1.989049 -2.842067  0.705838
      ESP Fit Center   25 is at  -1.414230 -2.343983  0.705838
      ESP Fit Center   26 is at  -2.739900 -3.422888  0.147145
      ESP Fit Center   27 is at  -1.987804 -3.343839  0.147145
      ESP Fit Center   28 is at  -1.332882 -2.965720  0.147145
      ESP Fit Center   29 is at  -3.115760 -3.603345 -0.538194
      ESP Fit Center   30 is at  -2.358979 -3.673471 -0.538194
      ESP Fit Center   31 is at  -1.627969 -3.465481 -0.538194
      ESP Fit Center   32 is at  -1.021457 -3.007464 -0.538194
      ESP Fit Center   33 is at  -1.021457 -3.007464 -1.267516
      ESP Fit Center   34 is at  -3.459126 -0.039197 -1.952855
      ESP Fit Center   35 is at  -4.021121 -0.545219 -1.952855
      ESP Fit Center   36 is at  -4.328710 -1.236078 -1.952855
      ESP Fit Center   37 is at  -4.328710 -1.992316 -1.952855
      ESP Fit Center   38 is at  -2.741903 -0.278083 -2.511548
      ESP Fit Center   39 is at  -3.433765 -0.594045 -2.511548
      ESP Fit Center   40 is at  -3.844974 -1.233899 -2.511548
      ESP Fit Center   41 is at  -2.190678 -0.992181 -2.876210
      ESP Fit Center   42 is at  -2.908920 -0.992181 -2.876210
      ESP Fit Center   43 is at  -4.491278 -2.522110  1.613128
      ESP Fit Center   44 is at  -3.799416 -2.838073  1.613128
      ESP Fit Center   45 is at  -3.046562 -2.729829  1.613128
      ESP Fit Center   46 is at  -2.471743 -2.231745  1.613128
      ESP Fit Center   47 is at  -3.797413 -3.310649  1.054435
      ESP Fit Center   48 is at  -3.045317 -3.231601  1.054435
      ESP Fit Center   49 is at  -2.390395 -2.853482  1.054435
      ESP Fit Center   50 is at  -1.945890 -2.241672  1.054435
      ESP Fit Center   51 is at  -3.416492 -3.561233  0.369096
      ESP Fit Center   52 is at  -2.685482 -3.353243  0.369096
      ESP Fit Center   53 is at  -5.365643 -0.413247 -0.360226
      ESP Fit Center   54 is at  -3.416492 -3.561233 -0.360226
      ESP Fit Center   55 is at  -3.797413  0.306732 -1.045565
      ESP Fit Center   56 is at  -4.516639  0.073041 -1.045565
      ESP Fit Center   57 is at  -5.078634 -0.432981 -1.045565
      ESP Fit Center   58 is at  -5.386223 -1.123840 -1.045565
      ESP Fit Center   59 is at  -4.491278 -0.481807 -1.604258
      ESP Fit Center   60 is at  -4.902487 -1.121661 -1.604258
      ESP Fit Center   61 is at  -2.858105 -0.509236  2.956732
      ESP Fit Center   62 is at  -3.217226 -1.131252  2.956732
      ESP Fit Center   63 is at  -3.768451 -1.845350  2.592071
      ESP Fit Center   64 is at  -3.015597 -1.737106  2.592071
      ESP Fit Center   65 is at  -2.440778 -1.239022  2.592071
      ESP Fit Center   66 is at  -4.485674 -2.084236  2.033378
      ESP Fit Center   67 is at  -3.766448 -2.317926  2.033378
      ESP Fit Center   68 is at  -3.014352 -2.238878  2.033378
      ESP Fit Center   69 is at  -2.359430 -1.860759  2.033378
      ESP Fit Center   70 is at  -4.822654  1.141141  0.618717
      ESP Fit Center   71 is at  -5.334678  0.579476  0.618717
      ESP Fit Center   72 is at  -5.609230 -0.889248  0.618717
      ESP Fit Center   73 is at  -4.485674  1.065764 -0.066622
      ESP Fit Center   74 is at  -5.047669  0.559742 -0.066622
      ESP Fit Center   75 is at  -5.355258 -0.131117 -0.066622
      ESP Fit Center   76 is at  -3.768451  0.826878 -0.625315
      ESP Fit Center   77 is at  -4.460313  0.510916 -0.625315
      ESP Fit Center   78 is at  -2.851541 -0.254448  3.025186
      ESP Fit Center   79 is at  -2.133299 -0.254448  3.025186
      ESP Fit Center   80 is at  -1.142566  0.367568  2.660525
      ESP Fit Center   81 is at  -1.931670 -0.860302  2.660525
      ESP Fit Center   82 is at  -1.356851 -0.362218  2.660525
      ESP Fit Center   83 is at  -1.930425 -1.362074  2.101832
      ESP Fit Center   84 is at  -1.275503 -0.983955  2.101832
      ESP Fit Center   85 is at  -0.830998 -0.372145  2.101832
      ESP Fit Center   86 is at  -4.250751  1.456280  1.416493
      ESP Fit Center   87 is at  -1.570590 -1.483716  1.416493
      ESP Fit Center   88 is at  -2.301600  2.426842  0.687171
      ESP Fit Center   89 is at  -3.058381  2.356716  0.687171
      ESP Fit Center   90 is at  -3.738726  2.017945  0.687171
      ESP Fit Center   91 is at  -2.682521  2.176259  0.001832
      ESP Fit Center   92 is at  -3.401747  1.942568  0.001832
      ESP Fit Center   93 is at  -3.963742  1.436546  0.001832
      ESP Fit Center   94 is at  -3.376386  1.387720 -0.556861
      ESP Fit Center   95 is at  -0.867134 -0.970213  1.757254
      ESP Fit Center   96 is at  -1.617985 -1.551034  1.198561
      ESP Fit Center   97 is at  -0.865889 -1.471985  1.198561
      ESP Fit Center   98 is at  -0.210967 -1.093866  1.198561
      ESP Fit Center   99 is at  -2.899206  1.326635 -0.901439
      ESP Fit Center  100 is at  -2.311850  1.277809 -1.460132
      ESP Fit Center  101 is at  -0.904017 -1.971085  0.774949
      ESP Fit Center  102 is at  -0.329198 -1.473001  0.774949
      ESP Fit Center  103 is at  -0.902772 -2.472857  0.216256
      ESP Fit Center  104 is at  -0.247850 -2.094738  0.216256
      ESP Fit Center  105 is at  -0.542937 -2.594499 -0.469083
      ESP Fit Center  106 is at   0.063575 -2.136482 -0.469083
      ESP Fit Center  107 is at  -0.542937 -2.594499 -1.198405
      ESP Fit Center  108 is at  -2.374094  0.831785 -1.883744
      ESP Fit Center  109 is at  -2.936089  0.325763 -1.883744
      ESP Fit Center  110 is at  -0.902772 -2.472857 -1.883744
      ESP Fit Center  111 is at  -1.656871  0.592899 -2.442437
      ESP Fit Center  112 is at  -2.348733  0.276937 -2.442437
      ESP Fit Center  113 is at  -1.823888 -0.121199 -2.807099
      ESP Fit Center  114 is at  -2.183009 -0.743215 -2.807099
      ESP Fit Center  115 is at  -0.623651  0.589325  2.252274
      ESP Fit Center  116 is at   1.190675  2.910484  0.679937
      ESP Fit Center  117 is at   0.678631  3.422528  0.679937
      ESP Fit Center  118 is at  -0.020833  3.609949  0.679937
      ESP Fit Center  119 is at   1.758060  2.947862  0.153406
      ESP Fit Center  120 is at   1.340673  3.572526  0.153406
      ESP Fit Center  121 is at   0.716009  3.989914  0.153406
      ESP Fit Center  122 is at  -0.020833  4.136480  0.153406
      ESP Fit Center  123 is at  -0.757675  3.989914  0.153406
      ESP Fit Center  124 is at  -1.382339  3.572526  0.153406
      ESP Fit Center  125 is at  -1.799727  2.947862  0.153406
      ESP Fit Center  126 is at   2.242681  2.211020 -0.510063
      ESP Fit Center  127 is at   2.120038  2.945982 -0.510063
      ESP Fit Center  128 is at   1.765398  3.601299 -0.510063
      ESP Fit Center  129 is at   1.217192  4.105959 -0.510063
      ESP Fit Center  130 is at   0.534827  4.405272 -0.510063
      ESP Fit Center  131 is at  -0.207753  4.466804 -0.510063
      ESP Fit Center  132 is at  -0.930076  4.283886 -0.510063
      ESP Fit Center  133 is at  -1.553870  3.876342 -0.510063
      ESP Fit Center  134 is at  -2.011535  3.288334 -0.510063
      ESP Fit Center  135 is at  -2.253476  2.583582 -0.510063
      ESP Fit Center  136 is at   2.359167  2.211020 -1.245523
      ESP Fit Center  137 is at   2.253430  2.912537 -1.245523
      ESP Fit Center  138 is at   1.945615  3.551722 -1.245523
      ESP Fit Center  139 is at   1.463073  4.071779 -1.245523
      ESP Fit Center  140 is at   0.848679  4.426500 -1.245523
      ESP Fit Center  141 is at   0.157025  4.584365 -1.245523
      ESP Fit Center  142 is at  -0.550433  4.531348 -1.245523
      ESP Fit Center  143 is at  -1.210833  4.272161 -1.245523
      ESP Fit Center  144 is at  -1.765496  3.829831 -1.245523
      ESP Fit Center  145 is at  -2.165139  3.243663 -1.245523
      ESP Fit Center  146 is at  -2.374250  2.565741 -1.245523
      ESP Fit Center  147 is at  -2.374250  1.856299 -1.245523
      ESP Fit Center  148 is at   2.253430  1.509503 -1.245523
      ESP Fit Center  149 is at   2.242681  2.211020 -1.980984
      ESP Fit Center  150 is at   2.120038  2.945982 -1.980984
      ESP Fit Center  151 is at   1.765398  3.601299 -1.980984
      ESP Fit Center  152 is at   1.217192  4.105959 -1.980984
      ESP Fit Center  153 is at   0.534827  4.405272 -1.980984
      ESP Fit Center  154 is at  -0.207753  4.466804 -1.980984
      ESP Fit Center  155 is at  -0.930076  4.283886 -1.980984
      ESP Fit Center  156 is at  -1.553870  3.876342 -1.980984
      ESP Fit Center  157 is at  -2.011535  3.288334 -1.980984
      ESP Fit Center  158 is at  -2.253476  2.583582 -1.980984
      ESP Fit Center  159 is at  -2.253476  1.838458 -1.980984
      ESP Fit Center  160 is at  -2.011535  1.133706 -1.980984
      ESP Fit Center  161 is at   2.120038  1.476058 -1.980984
      ESP Fit Center  162 is at   1.904627  2.211020 -2.644452
      ESP Fit Center  163 is at   1.758060  2.947862 -2.644452
      ESP Fit Center  164 is at   1.340673  3.572526 -2.644452
      ESP Fit Center  165 is at   0.716009  3.989914 -2.644452
      ESP Fit Center  166 is at  -0.020833  4.136480 -2.644452
      ESP Fit Center  167 is at  -0.757675  3.989914 -2.644452
      ESP Fit Center  168 is at  -1.382339  3.572526 -2.644452
      ESP Fit Center  169 is at  -1.799727  2.947862 -2.644452
      ESP Fit Center  170 is at  -1.946293  2.211020 -2.644452
      ESP Fit Center  171 is at  -1.799727  1.474178 -2.644452
      ESP Fit Center  172 is at  -1.382339  0.849514 -2.644452
      ESP Fit Center  173 is at  -0.757675  0.432127 -2.644452
      ESP Fit Center  174 is at  -0.020833  0.285560 -2.644452
      ESP Fit Center  175 is at   0.716009  0.432127 -2.644452
      ESP Fit Center  176 is at   1.340673  0.849514 -2.644452
      ESP Fit Center  177 is at   1.758060  1.474178 -2.644452
      ESP Fit Center  178 is at   1.378096  2.211020 -3.170984
      ESP Fit Center  179 is at   1.190675  2.910484 -3.170984
      ESP Fit Center  180 is at   0.678631  3.422528 -3.170984
      ESP Fit Center  181 is at  -0.020833  3.609949 -3.170984
      ESP Fit Center  182 is at  -0.720297  3.422528 -3.170984
      ESP Fit Center  183 is at  -1.232341  2.910484 -3.170984
      ESP Fit Center  184 is at  -1.419762  2.211020 -3.170984
      ESP Fit Center  185 is at  -1.232341  1.511556 -3.170984
      ESP Fit Center  186 is at  -0.720297  0.999512 -3.170984
      ESP Fit Center  187 is at  -0.020833  0.812091 -3.170984
      ESP Fit Center  188 is at   0.678631  0.999512 -3.170984
      ESP Fit Center  189 is at   1.190675  1.511556 -3.170984
      ESP Fit Center  190 is at   0.714627  2.211020 -3.509038
      ESP Fit Center  191 is at   0.346897  2.847947 -3.509038
      ESP Fit Center  192 is at  -0.388563  2.847947 -3.509038
      ESP Fit Center  193 is at  -0.756293  2.211020 -3.509038
      ESP Fit Center  194 is at  -0.388563  1.574093 -3.509038
      ESP Fit Center  195 is at   0.346897  1.574093 -3.509038
      ESP Fit Center  196 is at  -0.020833  2.211020 -3.625523
      ESP Fit Center  197 is at   0.154138 -1.038643  1.703187
      ESP Fit Center  198 is at   0.873364 -1.272334  1.703187
      ESP Fit Center  199 is at   1.254285  2.595631  1.017848
      ESP Fit Center  200 is at   2.991907  1.283440  0.288526
      ESP Fit Center  201 is at   2.591807  1.929624  0.288526
      ESP Fit Center  202 is at   1.985295  2.387641  0.288526
      ESP Fit Center  203 is at   2.280382  1.887880 -0.396813
      ESP Fit Center  204 is at   1.534791  0.787415  3.730045
      ESP Fit Center  205 is at   2.284850  0.787415  3.580849
      ESP Fit Center  206 is at   1.909821  1.436986  3.580849
      ESP Fit Center  207 is at   1.159761  1.436986  3.580849
      ESP Fit Center  208 is at   0.784731  0.787415  3.580849
      ESP Fit Center  209 is at   1.159761  0.137844  3.580849
      ESP Fit Center  210 is at   1.909821  0.137844  3.580849
      ESP Fit Center  211 is at   2.920720  0.787415  3.155974
      ESP Fit Center  212 is at   2.735041  1.480380  3.155974
      ESP Fit Center  213 is at   2.227756  1.987665  3.155974
      ESP Fit Center  214 is at   1.534791  2.173344  3.155974
      ESP Fit Center  215 is at   0.841826  1.987665  3.155974
      ESP Fit Center  216 is at   0.334541  1.480380  3.155974
      ESP Fit Center  217 is at   0.148862  0.787415  3.155974
      ESP Fit Center  218 is at   0.334541  0.094450  3.155974
      ESP Fit Center  219 is at   0.841826 -0.412835  3.155974
      ESP Fit Center  220 is at   1.534791 -0.598514  3.155974
      ESP Fit Center  221 is at   2.227756 -0.412835  3.155974
      ESP Fit Center  222 is at   3.189043  1.523935  2.520104
      ESP Fit Center  223 is at   2.746455  2.133105  2.520104
      ESP Fit Center  224 is at   2.094360  2.509592  2.520104
      ESP Fit Center  225 is at   1.345510  2.588299  2.520104
      ESP Fit Center  226 is at   0.629389  2.355617  2.520104
      ESP Fit Center  227 is at  -0.236443  0.410928  2.520104
      ESP Fit Center  228 is at   0.069820 -0.276949  2.520104
      ESP Fit Center  229 is at   0.629389 -0.780787  2.520104
      ESP Fit Center  230 is at   1.345510 -1.013469  2.520104
      ESP Fit Center  231 is at   2.983248  2.107858  1.770045
      ESP Fit Center  232 is at   2.408438  2.541935  1.770045
      ESP Fit Center  233 is at   1.715637  2.739054  1.770045
      ESP Fit Center  234 is at   0.998412  2.672593  1.770045
      ESP Fit Center  235 is at   3.189043  1.523935  1.019985
      ESP Fit Center  236 is at   2.746455  2.133105  1.019985
      ESP Fit Center  237 is at   2.094360  2.509592  1.019985
      ESP Fit Center  238 is at   1.345510  2.588299  1.019985
      ESP Fit Center  239 is at   1.380100 -1.646170  1.312479
      ESP Fit Center  240 is at   0.100882 -1.379034  0.753786
      ESP Fit Center  241 is at   0.662877 -1.885056  0.753786
      ESP Fit Center  242 is at   0.325898 -1.960432  0.068447
      ESP Fit Center  243 is at   1.006243 -2.299204  0.068447
      ESP Fit Center  244 is at   2.494034  1.541228 -0.660875
      ESP Fit Center  245 is at   0.325898 -1.960432 -0.660875
      ESP Fit Center  246 is at   1.006243 -2.299204 -0.660875
      ESP Fit Center  247 is at   2.789121  1.041467 -1.346214
      ESP Fit Center  248 is at   0.662877 -1.885056 -1.346214
      ESP Fit Center  249 is at   2.707773  0.419730 -1.904907
      ESP Fit Center  250 is at   2.132954  0.917814 -1.904907
      ESP Fit Center  251 is at   1.380100 -1.646170 -1.904907
      ESP Fit Center  252 is at   2.290446 -0.310056 -2.269569
      ESP Fit Center  253 is at   1.931325  0.311960 -2.269569
      ESP Fit Center  254 is at   1.213083  0.311960 -2.269569
      ESP Fit Center  255 is at   0.853962 -0.310056 -2.269569
      ESP Fit Center  256 is at   1.213083 -0.932072 -2.269569
      ESP Fit Center  257 is at   1.572204 -0.310056 -2.396214
      ESP Fit Center  258 is at   1.824469 -2.445274  0.950583
      ESP Fit Center  259 is at   2.543695 -2.678965  0.950583
      ESP Fit Center  260 is at   1.487489 -2.520650  0.265244
      ESP Fit Center  261 is at   2.167835 -2.859422  0.265244
      ESP Fit Center  262 is at   4.262138  0.522993 -0.464078
      ESP Fit Center  263 is at   3.655626  0.981010 -0.464078
      ESP Fit Center  264 is at   1.487489 -2.520650 -0.464078
      ESP Fit Center  265 is at   3.950713  0.481249 -1.149417
      ESP Fit Center  266 is at   3.295791  0.859368 -1.149417
      ESP Fit Center  267 is at   3.294546  0.357596 -1.708110
      ESP Fit Center  268 is at   1.723638 -2.700350 -0.359715
      ESP Fit Center  269 is at   2.283207 -3.204188 -0.359715
      ESP Fit Center  270 is at   2.999328 -3.436870 -0.359715
      ESP Fit Center  271 is at   4.637066 -0.315543 -1.109774
      ESP Fit Center  272 is at   1.522183 -2.667793 -1.109774
      ESP Fit Center  273 is at   2.007445 -3.200100 -1.109774
      ESP Fit Center  274 is at   2.652229 -3.521164 -1.109774
      ESP Fit Center  275 is at   4.842861 -0.899466 -1.859834
      ESP Fit Center  276 is at   4.400273 -0.290296 -1.859834
      ESP Fit Center  277 is at   3.748178  0.086191 -1.859834
      ESP Fit Center  278 is at   1.417375 -2.012473 -1.859834
      ESP Fit Center  279 is at   1.723638 -2.700350 -1.859834
      ESP Fit Center  280 is at   2.283207 -3.204188 -1.859834
      ESP Fit Center  281 is at   2.999328 -3.436870 -1.859834
      ESP Fit Center  282 is at   4.574538 -1.635986 -2.495703
      ESP Fit Center  283 is at   4.388859 -0.943021 -2.495703
      ESP Fit Center  284 is at   3.881574 -0.435736 -2.495703
      ESP Fit Center  285 is at   3.188609 -0.250057 -2.495703
      ESP Fit Center  286 is at   2.495644 -0.435736 -2.495703
      ESP Fit Center  287 is at   1.988359 -0.943021 -2.495703
      ESP Fit Center  288 is at   1.802680 -1.635986 -2.495703
      ESP Fit Center  289 is at   1.988359 -2.328951 -2.495703
      ESP Fit Center  290 is at   2.495644 -2.836236 -2.495703
      ESP Fit Center  291 is at   3.188609 -3.021915 -2.495703
      ESP Fit Center  292 is at   3.881574 -2.836236 -2.495703
      ESP Fit Center  293 is at   4.388859 -2.328951 -2.495703
      ESP Fit Center  294 is at   3.938668 -1.635986 -2.920578
      ESP Fit Center  295 is at   3.563639 -0.986415 -2.920578
      ESP Fit Center  296 is at   2.813579 -0.986415 -2.920578
      ESP Fit Center  297 is at   2.438549 -1.635986 -2.920578
      ESP Fit Center  298 is at   2.813579 -2.285557 -2.920578
      ESP Fit Center  299 is at   3.563639 -2.285557 -2.920578
      ESP Fit Center  300 is at   3.188609 -1.635986 -3.069774
      ESP Fit Center  301 is at   4.217632 -0.777078  2.983447
      ESP Fit Center  302 is at   3.140269 -1.399094  2.983447
      ESP Fit Center  303 is at   3.858511 -1.399094  2.983447
      ESP Fit Center  304 is at   4.849244 -0.777078  2.618786
      ESP Fit Center  305 is at   4.634959 -0.047292  2.618786
      ESP Fit Center  306 is at   2.615424 -1.797230  2.618786
      ESP Fit Center  307 is at   3.307286 -2.113192  2.618786
      ESP Fit Center  308 is at   4.060140 -2.004948  2.618786
      ESP Fit Center  309 is at   4.634959 -1.506864  2.618786
      ESP Fit Center  310 is at   4.716307  0.574445  2.060093
      ESP Fit Center  311 is at   1.720479 -1.155197  2.060093
      ESP Fit Center  312 is at   2.028068 -1.846056  2.060093
      ESP Fit Center  313 is at   2.590063 -2.352078  2.060093
      ESP Fit Center  314 is at   3.309289 -2.585769  2.060093
      ESP Fit Center  315 is at   4.061385 -2.506720  2.060093
      ESP Fit Center  316 is at   5.027732  0.616189  1.374754
      ESP Fit Center  317 is at   4.421220  1.074206  1.374754
      ESP Fit Center  318 is at   2.253083 -2.427454  1.374754
      ESP Fit Center  319 is at   2.933429 -2.766226  1.374754
      ESP Fit Center  320 is at   3.690210 -2.836352  1.374754
      ESP Fit Center  321 is at   4.421220 -2.628362  1.374754
      ESP Fit Center  322 is at   5.027732  0.616189  0.645432
      ESP Fit Center  323 is at   4.421220  1.074206  0.645432
      ESP Fit Center  324 is at   3.690210  1.282196  0.645432
      ESP Fit Center  325 is at   4.716307  0.574445 -0.039907
      ESP Fit Center  326 is at   4.061385  0.952564 -0.039907
      ESP Fit Center  327 is at   4.634959 -0.047292 -0.598600
      ESP Fit Center  328 is at  -0.464688  1.940853  2.742171
      ESP Fit Center  329 is at  -0.100226  2.572120  2.575799
      ESP Fit Center  330 is at  -0.829150  2.572120  2.575799
      ESP Fit Center  331 is at  -1.193613  1.940853  2.575799
      ESP Fit Center  332 is at  -0.829150  1.309586  2.575799
      ESP Fit Center  333 is at   0.597937  2.712895  2.109634
      ESP Fit Center  334 is at  -0.058801  3.190044  2.109634
      ESP Fit Center  335 is at  -0.870575  3.190044  2.109634
      ESP Fit Center  336 is at  -1.527313  2.712895  2.109634
      ESP Fit Center  337 is at   0.985582  2.702013  1.436006
      ESP Fit Center  338 is at   0.465733  3.288801  1.436006
      ESP Fit Center  339 is at  -0.267264  3.566790  1.436006
      ESP Fit Center  340 is at  -1.045488  3.472296  1.436006
      ESP Fit Center  341 is at  -1.690658  3.026968  1.436006
      ESP Fit Center  342 is at  -1.045488  3.472296  0.688336
      ESP Fit Center  343 is at  -1.690658  3.026968  0.688336
      ESP Fit Center  344 is at  -5.180596 -2.183758  1.458743
      ESP Fit Center  345 is at  -4.816133 -2.815025  1.458743
      ESP Fit Center  346 is at  -5.765148 -2.183758  0.992578
      ESP Fit Center  347 is at  -5.514296 -2.955800  0.992578
      ESP Fit Center  348 is at  -4.857558 -3.432949  0.992578
      ESP Fit Center  349 is at  -4.045784 -3.432949  0.992578
      ESP Fit Center  350 is at  -5.677641 -1.097643  0.318950
      ESP Fit Center  351 is at  -6.041956 -1.791788  0.318950
      ESP Fit Center  352 is at  -6.041956 -2.575728  0.318950
      ESP Fit Center  353 is at  -5.677641 -3.269873  0.318950
      ESP Fit Center  354 is at  -5.032471 -3.715201  0.318950
      ESP Fit Center  355 is at  -4.254247 -3.809695  0.318950
      ESP Fit Center  356 is at  -5.677641 -1.097643 -0.428720
      ESP Fit Center  357 is at  -6.041956 -1.791788 -0.428720
      ESP Fit Center  358 is at  -6.041956 -2.575728 -0.428720
      ESP Fit Center  359 is at  -5.677641 -3.269873 -0.428720
      ESP Fit Center  360 is at  -5.032471 -3.715201 -0.428720
      ESP Fit Center  361 is at  -4.254247 -3.809695 -0.428720
      ESP Fit Center  362 is at  -5.514296 -1.411716 -1.102348
      ESP Fit Center  363 is at  -5.765148 -2.183758 -1.102348
      ESP Fit Center  364 is at  -5.514296 -2.955800 -1.102348
      ESP Fit Center  365 is at  -4.857558 -3.432949 -1.102348
      ESP Fit Center  366 is at  -4.045784 -3.432949 -1.102348
      ESP Fit Center  367 is at  -5.180596 -2.183758 -1.568513
      ESP Fit Center  368 is at  -4.816133 -2.815025 -1.568513
      ESP Fit Center  369 is at  -4.395431 -0.411449  3.370828
      ESP Fit Center  370 is at  -3.666506 -0.411449  3.204456
      ESP Fit Center  371 is at  -4.030969  0.219818  3.204456
      ESP Fit Center  372 is at  -4.759893  0.219818  3.204456
      ESP Fit Center  373 is at  -5.124356 -0.411449  3.204456
      ESP Fit Center  374 is at  -4.759893 -1.042716  3.204456
      ESP Fit Center  375 is at  -4.030969 -1.042716  3.204456
      ESP Fit Center  376 is at  -3.989544  0.837742  2.738291
      ESP Fit Center  377 is at  -4.801318  0.837742  2.738291
      ESP Fit Center  378 is at  -5.458056  0.360593  2.738291
      ESP Fit Center  379 is at  -5.708908 -0.411449  2.738291
      ESP Fit Center  380 is at  -5.458056 -1.183491  2.738291
      ESP Fit Center  381 is at  -4.801318 -1.660640  2.738291
      ESP Fit Center  382 is at  -3.989544 -1.660640  2.738291
      ESP Fit Center  383 is at  -4.198007  1.214488  2.064663
      ESP Fit Center  384 is at  -4.976231  1.119994  2.064663
      ESP Fit Center  385 is at  -5.621401  0.674666  2.064663
      ESP Fit Center  386 is at  -5.985716 -0.019479  2.064663
      ESP Fit Center  387 is at  -5.985716 -0.803419  2.064663
      ESP Fit Center  388 is at  -5.621401 -1.497564  2.064663
      ESP Fit Center  389 is at  -4.976231 -1.942892  2.064663
      ESP Fit Center  390 is at  -4.976231  1.119994  1.316993
      ESP Fit Center  391 is at  -5.621401  0.674666  1.316993
      ESP Fit Center  392 is at  -5.985716 -0.019479  1.316993
      ESP Fit Center  393 is at  -5.985716 -0.803419  1.316993
      ESP Fit Center  394 is at  -5.621401 -1.497564  1.316993
      ESP Fit Center  395 is at  -5.458056  0.360593  0.643365
      ESP Fit Center  396 is at  -5.708908 -0.411449  0.643365
      ESP Fit Center  397 is at  -2.473498  1.144264  3.492602
      ESP Fit Center  398 is at  -1.744573  1.144264  3.326230
      ESP Fit Center  399 is at  -2.109036  1.775531  3.326230
      ESP Fit Center  400 is at  -2.837960  1.775531  3.326230
      ESP Fit Center  401 is at  -3.202423  1.144264  3.326230
      ESP Fit Center  402 is at  -2.837960  0.512997  3.326230
      ESP Fit Center  403 is at  -2.109036  0.512997  3.326230
      ESP Fit Center  404 is at  -1.160021  1.144264  2.860065
      ESP Fit Center  405 is at  -1.410873  1.916306  2.860065
      ESP Fit Center  406 is at  -2.067611  2.393455  2.860065
      ESP Fit Center  407 is at  -2.879385  2.393455  2.860065
      ESP Fit Center  408 is at  -3.536123  1.916306  2.860065
      ESP Fit Center  409 is at  -3.786975  1.144264  2.860065
      ESP Fit Center  410 is at  -1.410873  0.372222  2.860065
      ESP Fit Center  411 is at  -2.276074  2.770201  2.186437
      ESP Fit Center  412 is at  -3.054298  2.675707  2.186437
      ESP Fit Center  413 is at  -3.699468  2.230379  2.186437
      ESP Fit Center  414 is at  -4.063783  1.536234  2.186437
      ESP Fit Center  415 is at  -2.276074  2.770201  1.438767
      ESP Fit Center  416 is at  -3.054298  2.675707  1.438767
      ESP Fit Center  417 is at  -3.699468  2.230379  1.438767
      ESP Fit Center  418 is at   0.291342 -2.179693 -1.156765
      ESP Fit Center  419 is at  -0.441655 -2.457682 -1.904435
      ESP Fit Center  420 is at   0.291342 -2.179693 -1.904435
      ESP Fit Center  421 is at   0.811191 -1.592905 -1.904435
      ESP Fit Center  422 is at   0.674398 -0.831745 -2.578063
      ESP Fit Center  423 is at   0.423546 -0.059703 -2.578063
      ESP Fit Center  424 is at  -1.044966  0.417446 -2.578063
      ESP Fit Center  425 is at  -1.044966 -2.080936 -2.578063
      ESP Fit Center  426 is at  -0.233192 -2.080936 -2.578063
      ESP Fit Center  427 is at   0.423546 -1.603787 -2.578063
      ESP Fit Center  428 is at   0.089846 -0.831745 -3.044228
      ESP Fit Center  429 is at  -0.274617 -0.200478 -3.044228
      ESP Fit Center  430 is at  -1.003541 -0.200478 -3.044228
      ESP Fit Center  431 is at  -1.368004 -0.831745 -3.044228
      ESP Fit Center  432 is at  -1.003541 -1.463012 -3.044228
      ESP Fit Center  433 is at  -0.274617 -1.463012 -3.044228
      ESP Fit Center  434 is at  -0.639079 -0.831745 -3.210600
      ESP Fit Center  435 is at  -3.797006 -3.470784 -1.295273
      ESP Fit Center  436 is at  -3.151836 -3.916112 -1.295273
      ESP Fit Center  437 is at  -2.373612 -4.010606 -1.295273
      ESP Fit Center  438 is at  -1.640615 -3.732617 -1.295273
      ESP Fit Center  439 is at  -1.120766 -3.145829 -1.295273
      ESP Fit Center  440 is at  -4.161321 -2.776639 -2.042943
      ESP Fit Center  441 is at  -3.797006 -3.470784 -2.042943
      ESP Fit Center  442 is at  -3.151836 -3.916112 -2.042943
      ESP Fit Center  443 is at  -2.373612 -4.010606 -2.042943
      ESP Fit Center  444 is at  -1.640615 -3.732617 -2.042943
      ESP Fit Center  445 is at  -1.120766 -3.145829 -2.042943
      ESP Fit Center  446 is at  -1.257559 -2.384669 -2.716571
      ESP Fit Center  447 is at  -3.633661 -1.612627 -2.716571
      ESP Fit Center  448 is at  -3.884513 -2.384669 -2.716571
      ESP Fit Center  449 is at  -3.633661 -3.156711 -2.716571
      ESP Fit Center  450 is at  -2.976923 -3.633860 -2.716571
      ESP Fit Center  451 is at  -2.165149 -3.633860 -2.716571
      ESP Fit Center  452 is at  -1.508411 -3.156711 -2.716571
      ESP Fit Center  453 is at  -1.842111 -2.384669 -3.182736
      ESP Fit Center  454 is at  -2.206574 -1.753402 -3.182736
      ESP Fit Center  455 is at  -2.935498 -1.753402 -3.182736
      ESP Fit Center  456 is at  -3.299961 -2.384669 -3.182736
      ESP Fit Center  457 is at  -2.935498 -3.015936 -3.182736
      ESP Fit Center  458 is at  -2.206574 -3.015936 -3.182736
      ESP Fit Center  459 is at  -2.571036 -2.384669 -3.349108
      ESP Fit Center  460 is at   5.218044 -0.980309  2.501649
      ESP Fit Center  461 is at   4.853581 -1.611576  2.501649
      ESP Fit Center  462 is at   5.802596 -0.980309  2.035484
      ESP Fit Center  463 is at   5.551744 -0.208267  2.035484
      ESP Fit Center  464 is at   4.895006 -2.229500  2.035484
      ESP Fit Center  465 is at   5.551744 -1.752351  2.035484
      ESP Fit Center  466 is at   6.126998 -0.980309  1.361856
      ESP Fit Center  467 is at   5.939389 -0.219149  1.361856
      ESP Fit Center  468 is at   5.419540  0.367639  1.361856
      ESP Fit Center  469 is at   4.686543 -2.606246  1.361856
      ESP Fit Center  470 is at   5.419540 -2.328257  1.361856
      ESP Fit Center  471 is at   5.939389 -1.741469  1.361856
      ESP Fit Center  472 is at   6.126998 -0.980309  0.614186
      ESP Fit Center  473 is at   5.939389 -0.219149  0.614186
      ESP Fit Center  474 is at   5.419540  0.367639  0.614186
      ESP Fit Center  475 is at   5.419540 -2.328257  0.614186
      ESP Fit Center  476 is at   5.939389 -1.741469  0.614186
      ESP Fit Center  477 is at   5.802596 -0.980309 -0.059442
      ESP Fit Center  478 is at   5.551744 -0.208267 -0.059442
      ESP Fit Center  479 is at   5.551744 -1.752351 -0.059442
      ESP Fit Center  480 is at   5.218044 -0.980309 -0.525607
      ESP Fit Center  481 is at   4.330608 -2.776202  0.685822
      ESP Fit Center  482 is at   3.560259 -3.394126  0.219657
      ESP Fit Center  483 is at   4.372033 -3.394126  0.219657
      ESP Fit Center  484 is at   5.028771 -2.916977  0.219657
      ESP Fit Center  485 is at   5.604025 -2.144935 -0.453971
      ESP Fit Center  486 is at   5.416416 -1.383775 -0.453971
      ESP Fit Center  487 is at   3.385346 -3.676378 -0.453971
      ESP Fit Center  488 is at   4.163570 -3.770872 -0.453971
      ESP Fit Center  489 is at   4.896567 -3.492883 -0.453971
      ESP Fit Center  490 is at   5.416416 -2.906095 -0.453971
      ESP Fit Center  491 is at   5.604025 -2.144935 -1.201641
      ESP Fit Center  492 is at   5.416416 -1.383775 -1.201641
      ESP Fit Center  493 is at   3.385346 -3.676378 -1.201641
      ESP Fit Center  494 is at   4.163570 -3.770872 -1.201641
      ESP Fit Center  495 is at   4.896567 -3.492883 -1.201641
      ESP Fit Center  496 is at   5.416416 -2.906095 -1.201641
      ESP Fit Center  497 is at   5.279623 -2.144935 -1.875269
      ESP Fit Center  498 is at   5.028771 -1.372893 -1.875269
      ESP Fit Center  499 is at   4.372033 -3.394126 -1.875269
      ESP Fit Center  500 is at   5.028771 -2.916977 -1.875269
      ESP Fit Center  501 is at   4.695071 -2.144935 -2.341434
      ESP Fit Center  502 is at   4.330608 -2.776202 -2.341434
      ESP Fit Center  503 is at   3.120734 -0.141343  3.397573
      ESP Fit Center  504 is at   3.849659 -0.141343  3.231201
      ESP Fit Center  505 is at   3.485196  0.489924  3.231201
      ESP Fit Center  506 is at   2.756272 -0.772610  3.231201
      ESP Fit Center  507 is at   3.485196 -0.772610  3.231201
      ESP Fit Center  508 is at   4.183359  0.630699  2.765036
      ESP Fit Center  509 is at   3.526621  1.107848  2.765036
      ESP Fit Center  510 is at   2.058109 -0.913385  2.765036
      ESP Fit Center  511 is at   4.051155  1.206605  2.091408
      ESP Fit Center  512 is at   3.318158  1.484594  1.343738
      ESP Fit Center  513 is at  -1.378717 -2.366806  1.013163
      ESP Fit Center  514 is at  -1.816571 -3.384366  0.489213
      ESP Fit Center  515 is at  -1.194970 -2.969026  0.489213
      ESP Fit Center  516 is at  -2.735802 -3.858918 -0.171001
      ESP Fit Center  517 is at  -1.996864 -3.797688 -0.171001
      ESP Fit Center  518 is at  -1.317845 -3.499842 -0.171001
      ESP Fit Center  519 is at  -0.772328 -2.997658 -0.171001
      ESP Fit Center  520 is at  -1.157731 -3.530215 -0.902855
      ESP Fit Center  521 is at  -0.633781 -3.006265 -0.902855
      ESP Fit Center  522 is at  -3.454583  0.448504 -1.634709
      ESP Fit Center  523 is at  -0.772328 -2.997658 -1.634709
      ESP Fit Center  524 is at  -3.283027  0.155973 -2.294923
      ESP Fit Center  525 is at  -3.904628 -0.259368 -2.294923
      ESP Fit Center  526 is at  -4.319969 -0.880969 -2.294923
      ESP Fit Center  527 is at  -4.465817 -1.614197 -2.294923
      ESP Fit Center  528 is at  -2.747911 -0.236298 -2.818873
      ESP Fit Center  529 is at  -3.461410 -0.562142 -2.818873
      ESP Fit Center  530 is at  -3.885479 -1.222006 -2.818873
      ESP Fit Center  531 is at  -2.183872 -0.980393 -3.155269
      ESP Fit Center  532 is at  -2.915726 -0.980393 -3.155269
      ESP Fit Center  533 is at  -4.518923 -2.554014  1.920453
      ESP Fit Center  534 is at  -3.805424 -2.879858  1.920453
      ESP Fit Center  535 is at  -3.029026 -2.768229  1.920453
      ESP Fit Center  536 is at  -3.607312 -3.417977  1.396503
      ESP Fit Center  537 is at  -2.874084 -3.272128  1.396503
      ESP Fit Center  538 is at  -2.252483 -2.856788  1.396503
      ESP Fit Center  539 is at  -1.837142 -2.235187  1.396503
      ESP Fit Center  540 is at  -3.054377 -3.685450  0.736289
      ESP Fit Center  541 is at  -2.375358 -3.387604  0.736289
      ESP Fit Center  542 is at  -5.859726 -0.770105  0.004435
      ESP Fit Center  543 is at  -5.132831  0.155196 -0.727419
      ESP Fit Center  544 is at  -5.588251 -0.429928 -0.727419
      ESP Fit Center  545 is at  -4.340540  0.268211 -1.387633
      ESP Fit Center  546 is at  -4.962141 -0.147130 -1.387633
      ESP Fit Center  547 is at  -5.377482 -0.768731 -1.387633
      ESP Fit Center  548 is at  -4.518923 -0.449904 -1.911583
      ESP Fit Center  549 is at  -4.942992 -1.109768 -1.911583
      ESP Fit Center  550 is at  -4.942992 -1.894150 -1.911583
      ESP Fit Center  551 is at  -2.844493 -0.509236  3.235792
      ESP Fit Center  552 is at  -3.210420 -1.143040  3.235792
      ESP Fit Center  553 is at  -3.774459 -1.887135  2.899396
      ESP Fit Center  554 is at  -2.998061 -1.775506  2.899396
      ESP Fit Center  555 is at  -2.405265 -1.261845  2.899396
      ESP Fit Center  556 is at  -4.309575 -2.279405  2.375446
      ESP Fit Center  557 is at  -3.576347 -2.425254  2.375446
      ESP Fit Center  558 is at  -2.843119 -2.279405  2.375446
      ESP Fit Center  559 is at  -2.221518 -1.864065  2.375446
      ESP Fit Center  560 is at  -4.481131  1.553465  1.715232
      ESP Fit Center  561 is at  -1.798876 -1.892697  1.715232
      ESP Fit Center  562 is at  -4.968415  1.406782  0.983378
      ESP Fit Center  563 is at  -4.481131  1.553465  0.251524
      ESP Fit Center  564 is at  -5.101865  1.147919  0.251524
      ESP Fit Center  565 is at  -5.557286  0.562795  0.251524
      ESP Fit Center  566 is at  -5.798041 -0.138501  0.251524
      ESP Fit Center  567 is at  -4.309575  1.260934 -0.408690
      ESP Fit Center  568 is at  -4.931176  0.845593 -0.408690
      ESP Fit Center  569 is at  -5.346517  0.223992 -0.408690
      ESP Fit Center  570 is at  -3.774459  0.868663 -0.932640
      ESP Fit Center  571 is at  -4.487958  0.542819 -0.932640
      ESP Fit Center  572 is at  -2.858347 -0.266236  3.304246
      ESP Fit Center  573 is at  -2.126493 -0.266236  3.304246
      ESP Fit Center  574 is at  -1.100352  0.367568  2.967850
      ESP Fit Center  575 is at  -1.914134 -0.898702  2.967850
      ESP Fit Center  576 is at  -1.321338 -0.385041  2.967850
      ESP Fit Center  577 is at  -1.759192 -1.402601  2.443900
      ESP Fit Center  578 is at  -1.137591 -0.987261  2.443900
      ESP Fit Center  579 is at  -0.722250 -0.365660  2.443900
      ESP Fit Center  580 is at  -1.260466 -1.518077  1.783686
      ESP Fit Center  581 is at  -3.884488  2.283586  1.051832
      ESP Fit Center  582 is at  -4.408438  1.759636  1.051832
      ESP Fit Center  583 is at  -2.678423  2.612289  0.319978
      ESP Fit Center  584 is at  -3.397204  2.430269  0.319978
      ESP Fit Center  585 is at  -4.017938  2.024723  0.319978
      ESP Fit Center  586 is at  -3.225648  2.137738 -0.340236
      ESP Fit Center  587 is at  -3.847249  1.722397 -0.340236
      ESP Fit Center  588 is at  -3.404031  1.419623 -0.864186
      ESP Fit Center  589 is at  -0.849598 -1.008613  2.064579
      ESP Fit Center  590 is at  -0.694656 -1.512513  1.540629
      ESP Fit Center  591 is at  -2.782713  1.612486 -1.243507
      ESP Fit Center  592 is at  -3.198054  0.990885 -1.243507
      ESP Fit Center  593 is at  -0.886481 -2.009485  1.082274
      ESP Fit Center  594 is at  -0.731539 -2.513385  0.558324
      ESP Fit Center  595 is at  -0.109938 -2.098044  0.558324
      ESP Fit Center  596 is at  -0.232813 -2.628860 -0.101890
      ESP Fit Center  597 is at  -0.072699 -2.659233 -0.833744
      ESP Fit Center  598 is at  -2.990285  0.913940 -1.565598
      ESP Fit Center  599 is at  -2.819596  0.611614 -2.225812
      ESP Fit Center  600 is at  -1.662879  0.634684 -2.749762
      ESP Fit Center  601 is at  -2.376378  0.308840 -2.749762
      ESP Fit Center  602 is at  -1.830694 -0.109411 -3.086158
      ESP Fit Center  603 is at  -2.196621 -0.743215 -3.086158
      ESP Fit Center  604 is at  -0.630457  0.577537  2.531334
      ESP Fit Center  605 is at   1.235888  2.936588  1.012490
      ESP Fit Center  606 is at   0.704735  3.467741  1.012490
      ESP Fit Center  607 is at   1.870698  2.943803  0.512192
      ESP Fit Center  608 is at   1.478255  3.577619  0.512192
      ESP Fit Center  609 is at   0.883352  4.026869  0.512192
      ESP Fit Center  610 is at   0.166334  4.230878  0.512192
      ESP Fit Center  611 is at  -0.575962  4.162094  0.512192
      ESP Fit Center  612 is at  -1.243284  3.829807  0.512192
      ESP Fit Center  613 is at  -1.745508  3.278894  0.512192
      ESP Fit Center  614 is at   2.301217  2.965500 -0.130505
      ESP Fit Center  615 is at   1.954421  3.646126 -0.130505
      ESP Fit Center  616 is at   1.414273  4.186274 -0.130505
      ESP Fit Center  617 is at   0.733647  4.533070 -0.130505
      ESP Fit Center  618 is at  -0.020833  4.652568 -0.130505
      ESP Fit Center  619 is at  -0.775313  4.533070 -0.130505
      ESP Fit Center  620 is at  -1.455939  4.186274 -0.130505
      ESP Fit Center  621 is at  -1.996087  3.646126 -0.130505
      ESP Fit Center  622 is at  -2.342883  2.965500 -0.130505
      ESP Fit Center  623 is at   2.635952  2.211020 -0.863535
      ESP Fit Center  624 is at   2.528333  2.959523 -0.863535
      ESP Fit Center  625 is at   2.214197  3.647386 -0.863535
      ESP Fit Center  626 is at   1.718991  4.218884 -0.863535
      ESP Fit Center  627 is at   1.082835  4.627717 -0.863535
      ESP Fit Center  628 is at   0.357267  4.840763 -0.863535
      ESP Fit Center  629 is at  -0.398933  4.840763 -0.863535
      ESP Fit Center  630 is at  -1.124501  4.627717 -0.863535
      ESP Fit Center  631 is at  -1.760657  4.218884 -0.863535
      ESP Fit Center  632 is at  -2.255863  3.647386 -0.863535
      ESP Fit Center  633 is at  -2.569999  2.959523 -0.863535
      ESP Fit Center  634 is at  -2.677618  2.211020 -0.863535
      ESP Fit Center  635 is at   2.635952  2.211020 -1.627511
      ESP Fit Center  636 is at   2.528333  2.959523 -1.627511
[...]
 2408 Fit      -0.007631
 2409 Fit      -0.000652
 2410 Fit      -0.000226
 2411 Fit      -0.008559
 2412 Fit      -0.004820
 2413 Fit      -0.001324
 2414 Fit       0.002386
 2415 Fit      -0.015186
 2416 Fit      -0.011035
 2417 Fit      -0.007134
 2418 Fit      -0.003430
 2419 Fit      -0.023240
 2420 Fit      -0.018372
 2421 Fit      -0.013855
 2422 Fit      -0.009587
 2423 Fit      -0.005551
 2424 Fit      -0.016411
 2425 Fit      -0.011822
 2426 Fit      -0.007496
 2427 Fit      -0.003528
 2428 Fit      -0.000149
 2429 Fit      -0.000871
 2430 Fit      -0.004137
 2431 Fit      -0.004359
 2432 Fit      -0.007127
 2433 Fit      -0.008499
 2434 Fit      -0.003003
 2435 Fit      -0.006434
 2436 Fit      -0.009298
 2437 Fit      -0.011378
 2438 Fit      -0.000108
 2439 Fit      -0.003780
 2440 Fit      -0.007449
 2441 Fit      -0.010617
 2442 Fit      -0.013067
 2443 Fit       0.002972
 2444 Fit      -0.016418
 2445 Fit      -0.001927
 2446 Fit      -0.005356
 2447 Fit      -0.003755
 2448 Fit      -0.010461
 2449 Fit      -0.008589
 2450 Fit      -0.006592
 2451 Fit      -0.004443
 2452 Fit      -0.002090
 2453 Fit      -0.015268
 2454 Fit      -0.012804
 2455 Fit      -0.010483
 2456 Fit      -0.008109
 2457 Fit      -0.017918
 2458 Fit      -0.014960
 2459 Fit      -0.012232
 2460 Fit      -0.023666
 2461 Fit      -0.019765
 2462 Fit      -0.005173
 2463 Fit       0.000582
 2464 Fit      -0.003020
 2465 Fit      -0.005815
 2466 Fit      -0.009641
 2467 Fit      -0.009279
 2468 Fit      -0.010179
 2469 Fit      -0.012021
 2470 Fit      -0.013094
 2471 Fit      -0.015312
 2472 Fit      -0.014361
 2473 Fit      -0.014573
 2474 Fit      -0.016194
 2475 Fit       0.002269
 2476 Fit      -0.016205
 2477 Fit      -0.001853
 2478 Fit      -0.005163
 2479 Fit      -0.005813
 2480 Fit      -0.006125
 2481 Fit      -0.006063
 2482 Fit      -0.010733
 2483 Fit      -0.010642
 2484 Fit      -0.010642
 2485 Fit      -0.015755
 2486 Fit      -0.015170
 2487 Fit      -0.020347
 2488 Fit      -0.019397
 2489 Fit      -0.024210
 2490 Fit      -0.015523
 2491 Fit      -0.026193
 2492 Fit      -0.016157
 2493 Fit      -0.014955
 2494 Fit      -0.012673
 2495 Fit      -0.012236
 2496 Fit      -0.023989
 2497 Fit      -0.023264
 2498 Fit      -0.020722
 2499 Fit      -0.017485
 2500 Fit      -0.017403
 2501 Fit      -0.016687
 2502 Fit      -0.012659
 2503 Fit      -0.013624
 2504 Fit      -0.010108
 2505 Fit      -0.016727
 2506 Fit      -0.015220
 2507 Fit      -0.013964
 2508 Fit      -0.012636
 2509 Fit      -0.011086
 2510 Fit      -0.009227
 2511 Fit      -0.006995
 2512 Fit      -0.004342
 2513 Fit      -0.013971
 2514 Fit      -0.014746
 2515 Fit      -0.014927
 2516 Fit      -0.014709
 2517 Fit      -0.014199
 2518 Fit      -0.013453
 2519 Fit      -0.012493
 2520 Fit      -0.011348
 2521 Fit      -0.010108
 2522 Fit      -0.009080
 2523 Fit      -0.009688
 2524 Fit      -0.012580
 2525 Fit      -0.014234
 2526 Fit      -0.015101
 2527 Fit      -0.015474
 2528 Fit      -0.015539
 2529 Fit      -0.015409
 2530 Fit      -0.015146
 2531 Fit      -0.014784
 2532 Fit      -0.014360
 2533 Fit      -0.013964
 2534 Fit      -0.013840
 2535 Fit      -0.014596
 2536 Fit      -0.006626
 2537 Fit      -0.010262
 2538 Fit      -0.012700
 2539 Fit      -0.014234
 2540 Fit      -0.015132
 2541 Fit      -0.015620
 2542 Fit      -0.015870
 2543 Fit      -0.015997
 2544 Fit      -0.016068
 2545 Fit      -0.016118
 2546 Fit      -0.016167
 2547 Fit      -0.016262
 2548 Fit      -0.016530
 2549 Fit      -0.017266
 2550 Fit      -0.019086
 2551 Fit      -0.010343
 2552 Fit      -0.012060
 2553 Fit      -0.013476
 2554 Fit      -0.014455
 2555 Fit      -0.015067
 2556 Fit      -0.015439
 2557 Fit      -0.015698
 2558 Fit      -0.015935
 2559 Fit      -0.016207
 2560 Fit      -0.016535
 2561 Fit      -0.016926
 2562 Fit      -0.017398
 2563 Fit      -0.018024
 2564 Fit      -0.018978
 2565 Fit      -0.020589
 2566 Fit      -0.023326
 2567 Fit      -0.013869
 2568 Fit      -0.013912
 2569 Fit      -0.014295
 2570 Fit      -0.014639
 2571 Fit      -0.014877
 2572 Fit      -0.015064
 2573 Fit      -0.015281
 2574 Fit      -0.015591
 2575 Fit      -0.016027
 2576 Fit      -0.016589
 2577 Fit      -0.017267
 2578 Fit      -0.018057
 2579 Fit      -0.019001
 2580 Fit      -0.020204
 2581 Fit      -0.021840
 2582 Fit      -0.024095
 2583 Fit      -0.015270
 2584 Fit      -0.016188
 2585 Fit      -0.015201
 2586 Fit      -0.014825
 2587 Fit      -0.014660
 2588 Fit      -0.014608
 2589 Fit      -0.014694
 2590 Fit      -0.014972
 2591 Fit      -0.015471
 2592 Fit      -0.016183
 2593 Fit      -0.017071
 2594 Fit      -0.018097
 2595 Fit      -0.019247
 2596 Fit      -0.020539
 2597 Fit      -0.022000
 2598 Fit      -0.023568
 2599 Fit      -0.018701
 2600 Fit      -0.017273
 2601 Fit      -0.015846
 2602 Fit      -0.015032
 2603 Fit      -0.014577
 2604 Fit      -0.014409
 2605 Fit      -0.014543
 2606 Fit      -0.014998
 2607 Fit      -0.015751
 2608 Fit      -0.016743
 2609 Fit      -0.017890
 2610 Fit      -0.019111
 2611 Fit      -0.020324
 2612 Fit      -0.021390
 2613 Fit      -0.021992
 2614 Fit      -0.026299
 2615 Fit      -0.026376
 2616 Fit      -0.023267
 2617 Fit      -0.019732
 2618 Fit      -0.017539
 2619 Fit      -0.015987
 2620 Fit      -0.015034
 2621 Fit      -0.014595
 2622 Fit      -0.014657
 2623 Fit      -0.015207
 2624 Fit      -0.016162
 2625 Fit      -0.017371
 2626 Fit      -0.018640
 2627 Fit      -0.019738
 2628 Fit      -0.020365
 2629 Fit      -0.020202
 2630 Fit      -0.019442
 2631 Fit      -0.019416
 2632 Fit      -0.021000
 2633 Fit      -0.022443
 2634 Fit      -0.021833
 2635 Fit      -0.019701
 2636 Fit      -0.017446
 2637 Fit      -0.015951
 2638 Fit      -0.015222
 2639 Fit      -0.015352
 2640 Fit      -0.016233
 2641 Fit      -0.017519
 2642 Fit      -0.018711
 2643 Fit      -0.019337
 2644 Fit      -0.019425
 2645 Fit      -0.019775
 2646 Fit      -0.020154
 2647 Fit      -0.019235
 2648 Fit      -0.017352
 2649 Fit      -0.016243
 2650 Fit      -0.016674
 2651 Fit      -0.017933
 2652 Fit      -0.018655
 2653 Fit      -0.018621
 2654 Fit      -0.017480
 2655 Fit      -0.014358
 2656 Fit      -0.011374
 2657 Fit      -0.013783
 2658 Fit      -0.009355
 2659 Fit      -0.006643
 2660 Fit      -0.016353
 2661 Fit      -0.012912
 2662 Fit      -0.016407
 2663 Fit      -0.018314
 2664 Fit      -0.017934
 2665 Fit      -0.016131
 2666 Fit      -0.013063
 2667 Fit      -0.007349
 2668 Fit      -0.011987
 2669 Fit      -0.016301
 2670 Fit      -0.018638
 2671 Fit      -0.018901
 2672 Fit      -0.018135
 2673 Fit      -0.017664
 2674 Fit      -0.017282
 2675 Fit      -0.015736
 2676 Fit      -0.012597
 2677 Fit      -0.008457
 2678 Fit      -0.005729
 2679 Fit      -0.006070
 2680 Fit      -0.012297
 2681 Fit      -0.016608
 2682 Fit      -0.018770
 2683 Fit      -0.018855
 2684 Fit      -0.017353
 2685 Fit      -0.015518
 2686 Fit      -0.014946
 2687 Fit      -0.015912
 2688 Fit      -0.016649
 2689 Fit      -0.015818
 2690 Fit      -0.013380
 2691 Fit      -0.009460
 2692 Fit      -0.007458
 2693 Fit      -0.013493
 2694 Fit      -0.017185
 2695 Fit      -0.018697
 2696 Fit      -0.018020
 2697 Fit      -0.015302
 2698 Fit      -0.016079
 2699 Fit      -0.014467
 2700 Fit      -0.011607
 2701 Fit      -0.002621
 2702 Fit      -0.010186
 2703 Fit      -0.015045
 2704 Fit      -0.017649
 2705 Fit      -0.018009
 2706 Fit      -0.015804
 2707 Fit      -0.013705
 2708 Fit      -0.010552
 2709 Fit       0.000200
 2710 Fit      -0.008231
 2711 Fit      -0.013690
 2712 Fit      -0.016759
 2713 Fit      -0.017420
 2714 Fit      -0.007355
 2715 Fit      -0.012971
 2716 Fit      -0.016298
 2717 Fit      -0.007668
 2718 Fit      -0.013298
 2719 Fit      -0.010447
 2720 Fit      -0.010391
 2721 Fit      -0.007888
 2722 Fit      -0.012815
 2723 Fit      -0.020277
 2724 Fit      -0.025853
 2725 Fit      -0.028497
 2726 Fit      -0.006075
 2727 Fit      -0.004531
 2728 Fit       0.001748
 2729 Fit       0.008219
 2730 Fit      -0.001346
 2731 Fit       0.006008
 2732 Fit       0.007198
 2733 Fit      -0.000742
 2734 Fit       0.017021
 2735 Fit       0.008979
 2736 Fit       0.001132
 2737 Fit      -0.007635
 2738 Fit      -0.000857
 2739 Fit      -0.009610
 2740 Fit      -0.012048
 2741 Fit       0.015822
 2742 Fit       0.004179
 2743 Fit       0.012195
 2744 Fit      -0.011016
 2745 Fit      -0.003867
 2746 Fit       0.003276
 2747 Fit       0.011465
 2748 Fit       0.026923
 2749 Fit       0.018980
 2750 Fit      -0.012233
 2751 Fit      -0.006309
 2752 Fit       0.000233
 2753 Fit       0.007883
 2754 Fit       0.016726
 2755 Fit       0.023372
 2756 Fit       0.016680
 2757 Fit       0.009721
 2758 Fit       0.002517
 2759 Fit      -0.014581
 2760 Fit      -0.010005
 2761 Fit      -0.004447
 2762 Fit       0.002191
 2763 Fit       0.009831
 2764 Fit       0.018015
 2765 Fit       0.018730
 2766 Fit       0.013367
 2767 Fit       0.007071
 2768 Fit       0.000332
 2769 Fit      -0.007066
 2770 Fit      -0.016025
 2771 Fit      -0.016079
 2772 Fit      -0.011793
 2773 Fit      -0.006491
 2774 Fit      -0.000144
 2775 Fit       0.006921
 2776 Fit       0.013913
 2777 Fit       0.009419
 2778 Fit       0.004486
 2779 Fit      -0.001649
 2780 Fit      -0.008489
 2781 Fit      -0.016105
 2782 Fit      -0.024104
 2783 Fit      -0.024723
 2784 Fit      -0.019640
 2785 Fit      -0.015124
 2786 Fit      -0.010119
 2787 Fit      -0.004246
 2788 Fit       0.002101
 2789 Fit       0.007856
 2790 Fit       0.011560
 2791 Fit       0.012091
 2792 Fit       0.001352
 2793 Fit      -0.003455
 2794 Fit      -0.009815
 2795 Fit      -0.016548
 2796 Fit      -0.021787
 2797 Fit      -0.022770
 2798 Fit      -0.019713
 2799 Fit      -0.015124
 2800 Fit      -0.009711
 2801 Fit      -0.003825
 2802 Fit       0.001112
 2803 Fit       0.003147
 2804 Fit      -0.005520
 2805 Fit      -0.011050
 2806 Fit      -0.016494
 2807 Fit      -0.016021
 2808 Fit      -0.010772
 2809 Fit      -0.005512
 2810 Fit      -0.011286
 2811 Fit       0.007049
 2812 Fit       0.012871
 2813 Fit       0.004359
 2814 Fit       0.010012
 2815 Fit       0.018179
 2816 Fit       0.016360
 2817 Fit      -0.003027
 2818 Fit       0.002154
 2819 Fit       0.007327
 2820 Fit       0.012619
 2821 Fit       0.016764
 2822 Fit       0.023585
 2823 Fit       0.021417
 2824 Fit       0.017304
 2825 Fit      -0.005862
 2826 Fit      -0.000707
 2827 Fit       0.004064
 2828 Fit       0.009297
 2829 Fit       0.014841
 2830 Fit       0.019843
 2831 Fit       0.023074
 2832 Fit       0.026217
 2833 Fit       0.021479
 2834 Fit       0.015812
 2835 Fit      -0.003834
 2836 Fit       0.000719
 2837 Fit       0.005541
 2838 Fit       0.010995
 2839 Fit       0.016899
 2840 Fit       0.022657
 2841 Fit       0.027328
 2842 Fit       0.025473
 2843 Fit       0.019430
 2844 Fit       0.013081
 2845 Fit      -0.005605
 2846 Fit      -0.001202
 2847 Fit       0.003348
 2848 Fit       0.008418
 2849 Fit       0.014115
 2850 Fit       0.020199
 2851 Fit       0.026213
 2852 Fit       0.021303
 2853 Fit       0.014574
 2854 Fit       0.007643
 2855 Fit       0.003897
 2856 Fit       0.009512
 2857 Fit       0.015826
 2858 Fit       0.022588
 2859 Fit       0.029216
 2860 Fit       0.035156
 2861 Fit       0.022156
 2862 Fit       0.015069
 2863 Fit       0.008328
 2864 Fit       0.001251
 2865 Fit       0.016106
 2866 Fit       0.024482
 2867 Fit       0.021012
 2868 Fit       0.013645
 2869 Fit       0.006881
 2870 Fit       0.000304
 2871 Fit       0.026846
 2872 Fit       0.018596
 2873 Fit       0.011212
 2874 Fit       0.004448
 2875 Fit       0.031614
 2876 Fit       0.022040
 2877 Fit       0.013621
 2878 Fit      -0.012744
 2879 Fit      -0.004276
 2880 Fit      -0.011117
 2881 Fit      -0.003994
 2882 Fit       0.001232
 2883 Fit      -0.009731
 2884 Fit      -0.004601
 2885 Fit      -0.000676
 2886 Fit      -0.013567
 2887 Fit      -0.008732
 2888 Fit      -0.005348
 2889 Fit      -0.002493
 2890 Fit       0.000423
 2891 Fit      -0.003871
 2892 Fit      -0.001350
 2893 Fit       0.004731
 2894 Fit       0.002511
 2895 Fit       0.005795
 2896 Fit       0.004946
 2897 Fit       0.003905
 2898 Fit       0.002199
 2899 Fit       0.004683
 2900 Fit       0.005001
 2901 Fit       0.005159
 2902 Fit       0.004956
 2903 Fit       0.004243
 2904 Fit       0.002894
 2905 Fit       0.000752
 2906 Fit       0.003386
 2907 Fit       0.004510
 2908 Fit       0.005088
 2909 Fit       0.005116
 2910 Fit       0.004564
 2911 Fit       0.003384
 2912 Fit       0.001458
 2913 Fit       0.001956
 2914 Fit       0.003678
 2915 Fit       0.004691
 2916 Fit       0.005082
 2917 Fit       0.004895
 2918 Fit       0.004156
 2919 Fit       0.002849
 2920 Fit      -0.000960
 2921 Fit       0.001681
 2922 Fit       0.003412
 2923 Fit       0.004417
 2924 Fit       0.004820
 2925 Fit       0.004744
 2926 Fit       0.004350
 2927 Fit       0.000340
 2928 Fit       0.002565
 2929 Fit       0.003871
 2930 Fit       0.004576
 2931 Fit       0.005205
 2932 Fit       0.000613
 2933 Fit       0.002855
 2934 Fit       0.002068
 2935 Fit       0.002575
 2936 Fit       0.003692
 2937 Fit       0.003565
 2938 Fit       0.002022
 2939 Fit      -0.000317
 2940 Fit       0.004518
 2941 Fit       0.004465
 2942 Fit       0.004557
 2943 Fit       0.004214
 2944 Fit       0.002892
 2945 Fit       0.000324
 2946 Fit       0.004307
 2947 Fit       0.004270
 2948 Fit       0.004601
 2949 Fit       0.004834
 2950 Fit       0.004641
 2951 Fit       0.003704
 2952 Fit       0.001669
 2953 Fit       0.003129
 2954 Fit       0.002969
 2955 Fit       0.003451
 2956 Fit       0.004094
 2957 Fit       0.004642
 2958 Fit       0.004925
 2959 Fit       0.004744
 2960 Fit       0.003761
 2961 Fit       0.000505
 2962 Fit       0.001314
 2963 Fit       0.002363
 2964 Fit       0.003407
 2965 Fit       0.004336
 2966 Fit       0.005073
 2967 Fit       0.005415
 2968 Fit      -0.001451
 2969 Fit       0.000163
 2970 Fit       0.001742
 2971 Fit       0.003324
 2972 Fit       0.005036
 2973 Fit       0.000033
 2974 Fit      -0.002760
 2975 Fit       0.000170
 2976 Fit       0.002089
 2977 Fit       0.002129
 2978 Fit      -0.000292
 2979 Fit      -0.003031
 2980 Fit      -0.007061
 2981 Fit      -0.002928
 2982 Fit       0.000765
 2983 Fit       0.002537
 2984 Fit       0.003354
 2985 Fit       0.003902
 2986 Fit       0.003685
 2987 Fit      -0.001439
 2988 Fit       0.001520
 2989 Fit       0.002571
 2990 Fit       0.003026
 2991 Fit       0.003477
 2992 Fit       0.004343
 2993 Fit       0.002499
 2994 Fit       0.002269
 2995 Fit       0.002131
 2996 Fit       0.002208
 2997 Fit       0.002701
 2998 Fit       0.004105
 2999 Fit       0.001338
 3000 Fit       0.000420
 3001 Fit       0.000063
 3002 Fit       0.000117
 3003 Fit      -0.002573
 3004 Fit      -0.003206
 3005 Fit      -0.008229
 3006 Fit      -0.015021
 3007 Fit      -0.008722
 3008 Fit      -0.015319
 3009 Fit      -0.020639
 3010 Fit      -0.005274
 3011 Fit      -0.009218
 3012 Fit      -0.014989
 3013 Fit      -0.015682
 3014 Fit      -0.018452
 3015 Fit      -0.016841
 3016 Fit      -0.008779
 3017 Fit      -0.010869
 3018 Fit      -0.013112
 3019 Fit       0.003657
 3020 Fit       0.001930
 3021 Fit       0.000379
 3022 Fit      -0.001320
 3023 Fit       0.004643
 3024 Fit       0.003889
 3025 Fit       0.002968
 3026 Fit       0.001885
 3027 Fit       0.000512
 3028 Fit      -0.001382
 3029 Fit      -0.004151
 3030 Fit       0.001785
 3031 Fit       0.003234
 3032 Fit       0.003606
 3033 Fit       0.003379
 3034 Fit       0.002742
 3035 Fit       0.001701
 3036 Fit       0.000148
 3037 Fit      -0.002071
 3038 Fit      -0.004784
 3039 Fit      -0.002193
 3040 Fit       0.000843
 3041 Fit       0.002402
 3042 Fit       0.002864
 3043 Fit       0.002536
 3044 Fit       0.001519
 3045 Fit      -0.000211
 3046 Fit      -0.002531
 3047 Fit      -0.003726
 3048 Fit      -0.004404
 3049 Fit      -0.000801
 3050 Fit       0.001221
 3051 Fit       0.001672
 3052 Fit       0.000811
 3053 Fit      -0.001149
 3054 Fit      -0.003132
 3055 Fit      -0.005867
 3056 Fit      -0.005721
 3057 Fit      -0.002562
 3058 Fit      -0.000307
 3059 Fit      -0.000692
 3060 Fit      -0.002760
 3061 Fit       0.028201
 3062 Fit       0.031131
 3063 Fit       0.029282
 3064 Fit       0.030591
 3065 Fit       0.031699
 3066 Fit       0.033680
 3067 Fit       0.031459
 3068 Fit       0.028457
 3069 Fit       0.034320
 3070 Fit       0.035338
 3071 Fit       0.035024
 3072 Fit       0.035913
 3073 Fit       0.033024
 3074 Fit       0.029410
 3075 Fit       0.039408
 3076 Fit       0.040221
 3077 Fit       0.039615
 3078 Fit       0.038117
 3079 Fit       0.037958
 3080 Fit       0.034256
 3081 Fit       0.029986
 3082 Fit       0.047527
 3083 Fit       0.044448
 3084 Fit       0.041289
 3085 Fit       0.039994
 3086 Fit       0.035202
 3087 Fit       0.030167
 3088 Fit       0.045007
 3089 Fit       0.042172
 3090 Fit       0.035103
 3091 Fit       0.030252
 3092 Fit       0.037019
 3093 Fit       0.043900
 3094 Fit       0.022782
 3095 Fit       0.029042
 3096 Fit       0.034560
 3097 Fit       0.039499
 3098 Fit       0.044210
 3099 Fit       0.049237
 3100 Fit       0.047036
 3101 Fit       0.022051
 3102 Fit       0.028342
 3103 Fit       0.033479
 3104 Fit       0.037696
 3105 Fit       0.041229
 3106 Fit       0.044299
 3107 Fit       0.039937
 3108 Fit       0.039449
 3109 Fit       0.036982
 3110 Fit       0.018886
 3111 Fit       0.025506
 3112 Fit       0.030600
 3113 Fit       0.034453
 3114 Fit       0.037256
 3115 Fit       0.039103
 3116 Fit       0.033165
 3117 Fit       0.031083
 3118 Fit       0.020422
 3119 Fit       0.025941
 3120 Fit       0.029846
 3121 Fit       0.032341
 3122 Fit       0.033482
 3123 Fit       0.026048
 3124 Fit       0.022136
 3125 Fit       0.025749
 3126 Fit       0.027090
 3127 Fit       0.000787
 3128 Fit       0.008918
 3129 Fit       0.002019
 3130 Fit      -0.000660
 3131 Fit       0.010844
 3132 Fit       0.001116
 3133 Fit       0.010353
 3134 Fit       0.007748
 -----------------------------------------------------------------
 Leave Link  602 at Thu Jan 16 21:49:18 2014, MaxMem=   235929600 cpu:         1.1

 Test job not archived.
 1\1\GINC-G30\SP\RHF\Gen\C9H9Cl1N2O2\KOLAR\16-Jan-2014\0\\# hf/gen pop=
 mk iop(6/33=2,6/41=5,6/42=2)\\na resp\\0,1\C,0,2.549799,-1.614197,0.90
 2855\C,0,3.607312,-1.501959,-0.004435\C,0,3.576347,-0.509236,-0.983378
 \C,0,2.49242,0.367568,-1.051832\C,0,1.427884,0.257657,-0.148561\C,0,1.
 464767,-0.743215,0.833744\C,0,0.26453,1.211341,-0.27892\Cl,0,0.020833,
 2.21102,1.245523\C,0,-1.063465,0.536357,-0.653187\O,0,-1.534791,0.7874
 15,-1.770045\N,0,-1.572204,-0.310056,0.296214\C,0,-2.733796,-0.870274,
 0.099417\O,0,-3.188609,-1.635986,1.109774\N,0,-3.49939,-0.777078,-1.01
 0093\H,0,0.464688,1.940853,-1.062171\H,0,4.451671,-2.183758,0.054885\H
 ,0,4.395431,-0.411449,-1.690828\H,0,2.473498,1.144264,-1.812602\H,0,0.
 639079,-0.831745,1.5306\H,0,2.571036,-2.384669,1.669108\H,0,-4.489119,
 -0.980309,-0.988021\H,0,-3.966146,-2.144935,0.827806\H,0,-3.120734,-0.
 141343,-1.717573\\Version=AM64L-G09RevD.01\State=1-A\HF=-1064.16343\RM
 SD=8.873e-09\Dipole=-1.4939797,-1.3815418,-0.6346935\Quadrupole=18.337
 5503,-6.6334155,-11.7041348,6.4232086,-0.2211722,-2.7008591\PG=C01 [X(
 C9H9Cl1N2O2)]\\@


 WHAT THE SLIME CONTAINS, THE GLOWING REVEALS
 BY THE FLAME'S BRIGHT HUE WHEN YOU IGNITE IT.
   --  LEONARD THURNEYSSER, 1531-1596
 DESCRIBING HIS FLAME PHOTOLYSIS ANALYTIC METHOD
 Job cpu time:       0 days  0 hours  2 minutes 26.2 seconds.
 File lengths (MBytes):  RWF=     28 Int=      0 D2E=      0 Chk=      3 Scr=      1
 Normal termination of Gaussian 09 at Thu Jan 16 21:49:18 2014.
145.79user 0.39system 2:31.75elapsed 96%CPU (0avgtext+0avgdata 603392maxresident)k
53656inputs+114032outputs (4major+170033minor)pagefaults 0swaps
