Linux g60 2.6.38.6-client #1 SMP Tue Jun 12 11:27:21 CEST 2012 x86_64 GNU/Linux
Thu Jan 16 21:46:47 CET 2014

 Entering Gaussian System, Link 0=/usr/local/programs/common/gaussian/gaussian09_d01/arch/amd64-pgi_10.4.0-acml/g09/g09
 Initial command:
 /usr/local/programs/common/gaussian/gaussian09_d01/arch/amd64-pgi_10.4.0-acml/g09/l1.exe "/scratch/kolar/g09_17938/Gau-1526.inp" -scrdir="/scratch/kolar/g09_17938/"
 Entering Link 1 = /usr/local/programs/common/gaussian/gaussian09_d01/arch/amd64-pgi_10.4.0-acml/g09/l1.exe PID=      1533.
  
 Copyright (c) 1988,1990,1992,1993,1995,1998,2003,2009,2013,
            Gaussian, Inc.  All Rights Reserved.
  
 This is part of the Gaussian(R) 09 program.  It is based on
 the Gaussian(R) 03 system (copyright 2003, Gaussian, Inc.),
 the Gaussian(R) 98 system (copyright 1998, Gaussian, Inc.),
 the Gaussian(R) 94 system (copyright 1995, Gaussian, Inc.),
 the Gaussian 92(TM) system (copyright 1992, Gaussian, Inc.),
 the Gaussian 90(TM) system (copyright 1990, Gaussian, Inc.),
 the Gaussian 88(TM) system (copyright 1988, Gaussian, Inc.),
 the Gaussian 86(TM) system (copyright 1986, Carnegie Mellon
 University), and the Gaussian 82(TM) system (copyright 1983,
 Carnegie Mellon University). Gaussian is a federally registered
 trademark of Gaussian, Inc.
  
 This software contains proprietary and confidential information,
 including trade secrets, belonging to Gaussian, Inc.
  
 This software is provided under written license and may be
 used, copied, transmitted, or stored only in accord with that
 written license.
  
 The following legend is applicable only to US Government
 contracts under FAR:
  
                    RESTRICTED RIGHTS LEGEND
  
 Use, reproduction and disclosure by the US Government is
 subject to restrictions as set forth in subparagraphs (a)
 and (c) of the Commercial Computer Software - Restricted
 Rights clause in FAR 52.227-19.
  
 Gaussian, Inc.
 340 Quinnipiac St., Bldg. 40, Wallingford CT 06492
  
  
 ---------------------------------------------------------------
 Warning -- This program may not be used in any manner that
 competes with the business of Gaussian, Inc. or will provide
 assistance to any competitor of Gaussian, Inc.  The licensee
 of this program is prohibited from giving any competitor of
 Gaussian, Inc. access to this program.  By using this program,
 the user acknowledges that Gaussian, Inc. is engaged in the
 business of creating and licensing software in the field of
 computational chemistry and represents and warrants to the
 licensee that it is not a competitor of Gaussian, Inc. and that
 it will not use this program in any manner prohibited above.
 ---------------------------------------------------------------
  

 Cite this work as:
 Gaussian 09, Revision D.01,
 M. J. Frisch, G. W. Trucks, H. B. Schlegel, G. E. Scuseria, 
 M. A. Robb, J. R. Cheeseman, G. Scalmani, V. Barone, B. Mennucci, 
 G. A. Petersson, H. Nakatsuji, M. Caricato, X. Li, H. P. Hratchian, 
 A. F. Izmaylov, J. Bloino, G. Zheng, J. L. Sonnenberg, M. Hada, 
 M. Ehara, K. Toyota, R. Fukuda, J. Hasegawa, M. Ishida, T. Nakajima, 
 Y. Honda, O. Kitao, H. Nakai, T. Vreven, J. A. Montgomery, Jr., 
 J. E. Peralta, F. Ogliaro, M. Bearpark, J. J. Heyd, E. Brothers, 
 K. N. Kudin, V. N. Staroverov, T. Keith, R. Kobayashi, J. Normand, 
 K. Raghavachari, A. Rendell, J. C. Burant, S. S. Iyengar, J. Tomasi, 
 M. Cossi, N. Rega, J. M. Millam, M. Klene, J. E. Knox, J. B. Cross, 
 V. Bakken, C. Adamo, J. Jaramillo, R. Gomperts, R. E. Stratmann, 
 O. Yazyev, A. J. Austin, R. Cammi, C. Pomelli, J. W. Ochterski, 
 R. L. Martin, K. Morokuma, V. G. Zakrzewski, G. A. Voth, 
 P. Salvador, J. J. Dannenberg, S. Dapprich, A. D. Daniels, 
 O. Farkas, J. B. Foresman, J. V. Ortiz, J. Cioslowski, 
 and D. J. Fox, Gaussian, Inc., Wallingford CT, 2013.
 
 ******************************************
 Gaussian 09:  AM64L-G09RevD.01 24-Apr-2013
                16-Jan-2014 
 ******************************************
 %mem=1800mb
 -----------------------------------------
 # hf/gen pop=mk iop(6/33=2,6/41=5,6/42=2)
 -----------------------------------------
 1/38=1/1;
 2/12=2,17=6,18=5,40=1/2;
 3/5=7,11=9,16=1,25=1,30=1/1,2,3;
 4//1;
 5/5=2,38=5/2;
 6/7=2,8=2,9=2,10=2,15=8,20=1,28=1,33=2,41=5,42=2/1,2;
 99/5=1,9=1/99;
 -------
 na resp
 -------
 Symbolic Z-matrix:
 Charge =  0 Multiplicity = 1
 6                     1.69899   1.19308  -0.47828 
 6                     3.0711    0.96625  -0.39631 
 6                     3.53784  -0.25149   0.09496 
 6                     2.6517   -1.24247   0.51278 
 6                     1.28013  -1.00893   0.44306 
 6                     0.80115   0.20675  -0.05706 
 7                    -0.60791   0.43236  -0.13941 
 6                    -1.26614   1.62607   0.18301 
 7                    -0.67728   2.68156   0.57545 
 6                    -2.75463   1.36576  -0.03403 
 7                    -2.76713   0.03337  -0.60434 
 6                    -1.51291  -0.55277  -0.58448 
 8                    -1.25447  -1.69526  -0.90528 
 6                    -3.95442  -0.77171  -0.77667 
 6                    -4.69903  -0.96363   0.48532 
 7                    -5.27388  -1.06764   1.48795 
 17                    5.26949  -0.54023   0.1917 
 1                     1.32934   2.1407   -0.84722 
 1                     3.77158   1.72996  -0.71604 
 1                     3.0273   -2.18523   0.8952 
 1                     0.58621  -1.77625   0.76171 
 1                    -1.35723   3.4197    0.76856 
 1                    -3.18964   2.10986  -0.71328 
 1                    -3.29686   1.40861   0.92151 
 1                    -4.62835  -0.31863  -1.51455 
 1                    -3.62712  -1.74184  -1.16385 
 
                          Input orientation:                          
 ---------------------------------------------------------------------
 Center     Atomic      Atomic             Coordinates (Angstroms)
 Number     Number       Type             X           Y           Z
 ---------------------------------------------------------------------
      1          6           0        1.698989    1.193078   -0.478282
      2          6           0        3.071100    0.966246   -0.396313
      3          6           0        3.537842   -0.251490    0.094958
      4          6           0        2.651698   -1.242466    0.512780
      5          6           0        1.280129   -1.008926    0.443064
      6          6           0        0.801147    0.206750   -0.057061
      7          7           0       -0.607909    0.432357   -0.139406
      8          6           0       -1.266136    1.626074    0.183006
      9          7           0       -0.677276    2.681562    0.575449
     10          6           0       -2.754632    1.365761   -0.034032
     11          7           0       -2.767134    0.033373   -0.604344
     12          6           0       -1.512912   -0.552767   -0.584481
     13          8           0       -1.254470   -1.695255   -0.905279
     14          6           0       -3.954421   -0.771714   -0.776668
     15          6           0       -4.699026   -0.963626    0.485319
     16          7           0       -5.273881   -1.067636    1.487952
     17         17           0        5.269486   -0.540233    0.191701
     18          1           0        1.329345    2.140697   -0.847224
     19          1           0        3.771584    1.729962   -0.716044
     20          1           0        3.027297   -2.185230    0.895198
     21          1           0        0.586207   -1.776254    0.761709
     22          1           0       -1.357228    3.419699    0.768563
     23          1           0       -3.189636    2.109857   -0.713283
     24          1           0       -3.296856    1.408613    0.921507
     25          1           0       -4.628347   -0.318626   -1.514547
     26          1           0       -3.627121   -1.741836   -1.163853
 ---------------------------------------------------------------------
                    Distance matrix (angstroms):
                    1          2          3          4          5
     1  C    0.000000
     2  C    1.393148   0.000000
     3  C    2.407646   1.393584   0.000000
     4  C    2.796736   2.425027   1.393506   0.000000
     5  C    2.423457   2.795252   2.406690   1.393055   0.000000
     6  C    1.398710   2.417563   2.778955   2.418571   1.399077
     7  N    2.452613   3.726412   4.208304   3.722286   2.445661
     8  C    3.068673   4.425223   5.158605   4.866898   3.673462
     9  N    2.995425   4.235204   5.157605   5.146260   4.179553
    10  C    4.479053   5.850642   6.498259   6.027458   4.705960
    11  N    4.615957   5.915953   6.350031   5.677981   4.308572
    12  C    3.657261   4.832802   5.105147   4.361610   3.010815
    13  O    4.153037   5.104233   5.104036   4.180198   2.951825
    14  C    5.992536   7.247284   7.560712   6.747228   5.380012
    15  C    6.820154   8.054597   8.276806   7.356062   5.979476
    16  N    7.589323   8.793511   8.958403   7.987260   6.637039
    17  Cl   4.025133   2.729128   1.758216   2.729292   4.024652
    18  H    1.082006   2.148573   3.389355   3.878662   3.404026
    19  H    2.154165   1.084513   2.153720   3.405801   3.879741
    20  H    3.881213   3.406130   2.154157   1.084492   2.154231
    21  H    3.404819   3.877759   3.388453   2.147824   1.082522
    22  H    3.981573   5.194849   6.155736   6.154080   5.164719
    23  H    4.979394   6.372216   7.175526   6.845618   5.571602
    24  H    5.192719   6.517914   7.081823   6.525379   5.198288
    25  H    6.587433   7.885609   8.323560   7.613317   6.262495
    26  H    6.119737   7.265603   7.425795   6.517978   5.215404
                    6          7          8          9         10
     6  C    0.000000
     7  N    1.429377   0.000000
     8  C    2.519082   1.400776   0.000000
     9  N    2.951355   2.361091   1.270757   0.000000
    10  C    3.739973   2.343238   1.526594   2.533418   0.000000
    11  N    3.614168   2.244462   2.325857   3.573839   1.449369
    12  C    2.491968   1.409820   2.323205   3.536186   2.350662
    13  O    2.926202   2.351879   3.495100   4.656419   3.518434
    14  C    4.908223   3.613175   3.727900   4.949042   2.561211
    15  C    5.649412   4.367641   4.310762   5.428627   3.078382
    16  N    6.396647   5.164259   5.002097   6.001494   3.818962
    17  Cl   4.537171   5.966518   6.885297   6.774305   8.250469
    18  H    2.154879   2.678131   2.839495   2.518543   4.235643
    19  H    3.402636   4.603938   5.118370   4.729255   6.571855
    20  H    3.403544   4.597487   5.785052   6.124685   6.848628
    21  H    2.156128   2.667561   3.916875   4.637155   4.654747
    22  H    3.957686   3.210934   1.888985   1.021995   2.610662
    23  H    4.469764   3.131877   2.176518   2.880908   1.097401
    24  H    4.381290   3.051073   2.171750   2.932977   1.099499
    25  H    5.646210   4.314963   4.238869   5.383324   2.922309
    26  H    4.963017   3.859048   4.327944   5.594033   3.419779
                   11         12         13         14         15
    11  N    0.000000
    12  C    1.384568   0.000000
    13  O    2.316650   1.214489   0.000000
    14  C    1.444822   2.458829   2.856432   0.000000
    15  C    2.431785   3.385941   3.786028   1.477795   0.000000
    16  N    3.445824   4.324923   4.719865   2.637622   1.160409
    17  Cl   8.096294   6.826678   6.715612   9.277488   9.981819
    18  H    4.613128   3.924565   4.625365   6.033680   6.910409
    19  H    6.756162   5.757956   6.085157   8.121158   8.969388
    20  H    6.383279   5.046571   4.670687   7.316936   7.833032
    21  H    4.047931   2.777670   2.484653   4.898266   5.354479
    22  H    3.916620   4.199459   5.382849   5.167310   5.519183
    23  H    2.121830   3.149216   4.273243   2.982007   3.627837
    24  H    2.121347   3.049175   4.140348   2.840777   2.789957
    25  H    2.101544   3.259721   3.694504   1.097238   2.102495
    26  H    2.050365   2.493880   2.387154   1.094611   2.115268
                   16         17         18         19         20
    16  N    0.000000
    17  Cl  10.635836   0.000000
    18  H    7.703833   4.877649   0.000000
    19  H    9.721347   2.867315   2.480009   0.000000
    20  H    8.397019   2.868507   4.963136   4.298697   0.000000
    21  H    5.947285   4.877065   4.299235   4.962251   2.478710
    22  H    5.999489   7.741264   3.385895   5.600355   7.117255
    23  H    4.391580   8.910596   4.521071   6.971579   7.725622
    24  H    3.218897   8.815488   5.006605   7.262760   7.274016
    25  H    3.161128  10.046267   6.479790   8.682924   8.240144
    26  H    3.193499   9.079152   6.304036   8.185032   6.979797
                   21         22         23         24         25
    21  H    0.000000
    22  H    5.547514   0.000000
    23  H    5.615554   2.696159   0.000000
    24  H    5.024648   2.798216   1.782071   0.000000
    25  H    5.873465   5.466981   2.934185   3.269646   0.000000
    26  H    4.632613   5.960544   3.902556   3.792510   1.775096
                   26
    26  H    0.000000
 Stoichiometry    C11H9ClN4O
 Framework group  C1[X(C11H9ClN4O)]
 Deg. of freedom    72
 Full point group                 C1      NOp   1
 Largest Abelian subgroup         C1      NOp   1
 Largest concise Abelian subgroup C1      NOp   1
                         Standard orientation:                         
 ---------------------------------------------------------------------
 Center     Atomic      Atomic             Coordinates (Angstroms)
 Number     Number       Type             X           Y           Z
 ---------------------------------------------------------------------
      1          6           0        1.698989    1.193078   -0.478282
      2          6           0        3.071100    0.966246   -0.396313
      3          6           0        3.537842   -0.251490    0.094958
      4          6           0        2.651698   -1.242466    0.512780
      5          6           0        1.280129   -1.008926    0.443064
      6          6           0        0.801147    0.206750   -0.057061
      7          7           0       -0.607909    0.432357   -0.139406
      8          6           0       -1.266136    1.626074    0.183006
      9          7           0       -0.677276    2.681562    0.575449
     10          6           0       -2.754632    1.365761   -0.034032
     11          7           0       -2.767134    0.033373   -0.604344
     12          6           0       -1.512912   -0.552767   -0.584481
     13          8           0       -1.254470   -1.695255   -0.905279
     14          6           0       -3.954421   -0.771714   -0.776668
     15          6           0       -4.699026   -0.963626    0.485319
     16          7           0       -5.273881   -1.067636    1.487952
     17         17           0        5.269486   -0.540233    0.191701
     18          1           0        1.329345    2.140697   -0.847224
     19          1           0        3.771584    1.729962   -0.716044
     20          1           0        3.027297   -2.185230    0.895198
     21          1           0        0.586207   -1.776254    0.761709
     22          1           0       -1.357228    3.419699    0.768563
     23          1           0       -3.189636    2.109857   -0.713283
     24          1           0       -3.296856    1.408613    0.921507
     25          1           0       -4.628347   -0.318626   -1.514547
     26          1           0       -3.627121   -1.741836   -1.163853
 ---------------------------------------------------------------------
 Rotational constants (GHZ):      1.1557043      0.1888459      0.1721082
 General basis read from cards:  (5D, 7F)
 There are   277 symmetry adapted cartesian basis functions of A   symmetry.
 There are   260 symmetry adapted basis functions of A   symmetry.
   260 basis functions,   536 primitive gaussians,   277 cartesian basis functions
    64 alpha electrons       64 beta electrons
       nuclear repulsion energy      1207.1541600572 Hartrees.
 NAtoms=   26 NActive=   26 NUniq=   26 SFac= 1.00D+00 NAtFMM=   60 NAOKFM=F Big=F
 Integral buffers will be    131072 words long.
 Raffenetti 1 integral format.
 Two-electron integral symmetry is turned on.
 One-electron integrals computed using PRISM.
 NBasis=   260 RedAO= T EigKep=  4.52D-04  NBF=   260
 NBsUse=   260 1.00D-06 EigRej= -1.00D+00 NBFU=   260
 ExpMin= 1.43D-01 ExpMax= 2.52D+04 ExpMxC= 3.78D+03 IAcc=1 IRadAn=         1 AccDes= 0.00D+00
 Harris functional with IExCor=  205 and IRadAn=       1 diagonalized for initial guess.
 HarFok:  IExCor=  205 AccDes= 0.00D+00 IRadAn=         1 IDoV= 1 UseB2=F ITyADJ=14
 ICtDFT=  3500011 ScaDFX=  1.000000  1.000000  1.000000  1.000000
 FoFCou: FMM=F IPFlag=           0 FMFlag=      100000 FMFlg1=           0
         NFxFlg=           0 DoJE=T BraDBF=F KetDBF=T FulRan=T
         wScrn=  0.000000 ICntrl=     500 IOpCl=  0 I1Cent=   200000004 NGrid=           0
         NMat0=    1 NMatS0=      1 NMatT0=    0 NMatD0=    1 NMtDS0=    0 NMtDT0=    0
 Petite list used in FoFCou.
 Requested convergence on RMS density matrix=1.00D-08 within 128 cycles.
 Requested convergence on MAX density matrix=1.00D-06.
 Requested convergence on             energy=1.00D-06.
 No special actions if energy rises.
 Integral accuracy reduced to 1.0D-05 until final iterations.
 Initial convergence to 1.0D-05 achieved.  Increase integral accuracy.
 SCF Done:  E(RHF) =  -1173.93745248     A.U. after   17 cycles
            NFock= 17  Conv=0.41D-08     -V/T= 2.0009

 **********************************************************************

            Population analysis using the SCF density.

 **********************************************************************

 Orbital symmetries:
 BldTbl:  Degeneracy threshold= 1.00D-02
       Occupied  (A) (A) (A) (A) (A) (A) (A) (A) (A) (A) (A) (A)
                 (A) (A) (A) (A) (A) (A) (A) (A) (A) (A) (A) (A)
                 (A) (A) (A) (A) (A) (A) (A) (A) (A) (A) (A) (A)
                 (A) (A) (A) (A) (A) (A) (A) (A) (A) (A) (A) (A)
                 (A) (A) (A) (A) (A) (A) (A) (A) (A) (A) (A) (A)
                 (A) (A) (A) (A)
       Virtual   (A) (A) (A) (A) (A) (A) (A) (A) (A) (A) (A) (A)
                 (A) (A) (A) (A) (A) (A) (A) (A) (A) (A) (A) (A)
                 (A) (A) (A) (A) (A) (A) (A) (A) (A) (A) (A) (A)
                 (A) (A) (A) (A) (A) (A) (A) (A) (A) (A) (A) (A)
                 (A) (A) (A) (A) (A) (A) (A) (A) (A) (A) (A) (A)
                 (A) (A) (A) (A) (A) (A) (A) (A) (A) (A) (A) (A)
                 (A) (A) (A) (A) (A) (A) (A) (A) (A) (A) (A) (A)
                 (A) (A) (A) (A) (A) (A) (A) (A) (A) (A) (A) (A)
                 (A) (A) (A) (A) (A) (A) (A) (A) (A) (A) (A) (A)
                 (A) (A) (A) (A) (A) (A) (A) (A) (A) (A) (A) (A)
                 (A) (A) (A) (A) (A) (A) (A) (A) (A) (A) (A) (A)
                 (A) (A) (A) (A) (A) (A) (A) (A) (A) (A) (A) (A)
                 (A) (A) (A) (A) (A) (A) (A) (A) (A) (A) (A) (A)
                 (A) (A) (A) (A) (A) (A) (A) (A) (A) (A) (A) (A)
                 (A) (A) (A) (A) (A) (A) (A) (A) (A) (A) (A) (A)
                 (A) (A) (A) (A) (A) (A) (A) (A) (A) (A) (A) (A)
                 (A) (A) (A) (A)
 The electronic state is 1-A.
 Alpha  occ. eigenvalues -- -104.81965 -20.56318 -15.64326 -15.63711 -15.60549
 Alpha  occ. eigenvalues --  -15.56968 -11.42437 -11.36494 -11.34454 -11.32175
 Alpha  occ. eigenvalues --  -11.30622 -11.30096 -11.29949 -11.25303 -11.25299
 Alpha  occ. eigenvalues --  -11.25174 -11.25148 -10.55807  -8.02665  -8.02334
 Alpha  occ. eigenvalues --   -8.02330  -1.44175  -1.34720  -1.28522  -1.23489
 Alpha  occ. eigenvalues --   -1.21588  -1.18332  -1.11756  -1.06802  -1.03473
 Alpha  occ. eigenvalues --   -1.00199  -0.98934  -0.87614  -0.86433  -0.83815
 Alpha  occ. eigenvalues --   -0.79314  -0.75322  -0.73879  -0.70746  -0.70041
 Alpha  occ. eigenvalues --   -0.67661  -0.65883  -0.65658  -0.64958  -0.64321
 Alpha  occ. eigenvalues --   -0.61988  -0.60946  -0.60808  -0.59677  -0.57604
 Alpha  occ. eigenvalues --   -0.54938  -0.53389  -0.52895  -0.51972  -0.48898
 Alpha  occ. eigenvalues --   -0.47911  -0.47425  -0.46759  -0.45370  -0.44830
 Alpha  occ. eigenvalues --   -0.43287  -0.40342  -0.34952  -0.32392
 Alpha virt. eigenvalues --    0.11579   0.12858   0.14267   0.16611   0.17884
 Alpha virt. eigenvalues --    0.19450   0.21082   0.22377   0.22808   0.25639
 Alpha virt. eigenvalues --    0.27281   0.28747   0.29448   0.29836   0.31370
 Alpha virt. eigenvalues --    0.32322   0.34078   0.34653   0.35043   0.38528
 Alpha virt. eigenvalues --    0.38919   0.40819   0.42335   0.45132   0.45569
 Alpha virt. eigenvalues --    0.46103   0.47392   0.49222   0.51524   0.51788
 Alpha virt. eigenvalues --    0.55300   0.59715   0.60871   0.61999   0.63105
 Alpha virt. eigenvalues --    0.63951   0.66476   0.68160   0.70120   0.70423
 Alpha virt. eigenvalues --    0.71089   0.73359   0.75120   0.77505   0.78508
 Alpha virt. eigenvalues --    0.78830   0.79505   0.80234   0.80851   0.81160
 Alpha virt. eigenvalues --    0.81373   0.82455   0.83462   0.85062   0.85355
 Alpha virt. eigenvalues --    0.86680   0.87433   0.89504   0.89687   0.90354
 Alpha virt. eigenvalues --    0.92262   0.94731   0.97724   0.98791   1.00176
 Alpha virt. eigenvalues --    1.00646   1.02985   1.03605   1.04292   1.06011
 Alpha virt. eigenvalues --    1.07065   1.07670   1.08708   1.09948   1.10117
 Alpha virt. eigenvalues --    1.11066   1.11652   1.12876   1.13398   1.14145
 Alpha virt. eigenvalues --    1.14869   1.15169   1.15606   1.18203   1.18660
 Alpha virt. eigenvalues --    1.19664   1.20310   1.21212   1.22701   1.25815
 Alpha virt. eigenvalues --    1.26274   1.29235   1.31217   1.31478   1.33489
 Alpha virt. eigenvalues --    1.34468   1.35671   1.38367   1.38997   1.41452
 Alpha virt. eigenvalues --    1.45376   1.47248   1.48807   1.50430   1.51625
 Alpha virt. eigenvalues --    1.52932   1.58525   1.59865   1.61430   1.62125
 Alpha virt. eigenvalues --    1.65194   1.67161   1.70053   1.71389   1.73283
 Alpha virt. eigenvalues --    1.73404   1.76070   1.77136   1.77756   1.78523
 Alpha virt. eigenvalues --    1.82212   1.83107   1.84791   1.89397   1.92313
 Alpha virt. eigenvalues --    1.93332   1.97014   1.97593   2.01856   2.02151
 Alpha virt. eigenvalues --    2.05420   2.06270   2.07317   2.09429   2.10615
 Alpha virt. eigenvalues --    2.11437   2.12293   2.14720   2.17579   2.20374
 Alpha virt. eigenvalues --    2.20735   2.24388   2.25062   2.27105   2.28869
 Alpha virt. eigenvalues --    2.29765   2.30745   2.32797   2.35460   2.36583
 Alpha virt. eigenvalues --    2.38329   2.40258   2.42606   2.43733   2.44741
 Alpha virt. eigenvalues --    2.45801   2.46977   2.48889   2.52051   2.54165
 Alpha virt. eigenvalues --    2.56926   2.58686   2.61695   2.63939   2.65880
 Alpha virt. eigenvalues --    2.66222   2.68199   2.70424   2.73534   2.80894
 Alpha virt. eigenvalues --    2.83890   2.85253   2.88306   2.92751   2.93801
 Alpha virt. eigenvalues --    2.95024   2.96769   3.00560   3.03379   3.05076
 Alpha virt. eigenvalues --    3.06497   3.09034   3.09995   3.10084   3.10985
 Alpha virt. eigenvalues --    3.15373   3.16773   3.20184   3.27704   3.32100
 Alpha virt. eigenvalues --    3.35396   3.42936   3.57840   3.61079   3.67614
 Alpha virt. eigenvalues --    3.78573
          Condensed to atoms (all electrons):
               1          2          3          4          5          6
     1  C    4.902113   0.528738  -0.040985  -0.033616  -0.043924   0.568008
     2  C    0.528738   4.956609   0.524947  -0.044059  -0.034248  -0.032863
     3  C   -0.040985   0.524947   5.035703   0.525115  -0.041187  -0.033034
     4  C   -0.033616  -0.044059   0.525115   4.955958   0.527774  -0.034732
     5  C   -0.043924  -0.034248  -0.041187   0.527774   4.906825   0.567846
     6  C    0.568008  -0.032863  -0.033034  -0.034732   0.567846   4.553568
     7  N   -0.042696   0.003673  -0.000009   0.003618  -0.044882   0.156046
     8  C   -0.006018  -0.000174   0.000017  -0.000057   0.001839  -0.015154
     9  N   -0.014304  -0.000441   0.000011  -0.000020   0.000173   0.006021
    10  C   -0.000244  -0.000003   0.000000   0.000001  -0.000132   0.005171
    11  N   -0.000098   0.000000   0.000000  -0.000004  -0.000057   0.002644
    12  C    0.001377  -0.000026   0.000003   0.000072  -0.002028  -0.022103
    13  O    0.000054  -0.000004   0.000004  -0.000099  -0.006564   0.003722
    14  C    0.000001   0.000000   0.000000   0.000000  -0.000001  -0.000017
    15  C    0.000000   0.000000   0.000000   0.000000   0.000000   0.000000
    16  N    0.000000   0.000000   0.000000   0.000000   0.000000   0.000000
    17  Cl   0.002172  -0.064183   0.217582  -0.064095   0.002156   0.000350
    18  H    0.373475  -0.026709   0.002271   0.000023   0.002749  -0.022480
    19  H   -0.024099   0.381365  -0.028977   0.001979   0.000243   0.001506
    20  H    0.000224   0.001980  -0.028913   0.381087  -0.023738   0.001550
    21  H    0.002774   0.000018   0.002284  -0.025279   0.372908  -0.024797
    22  H    0.000442   0.000009   0.000000   0.000000  -0.000003  -0.000345
    23  H    0.000000   0.000000   0.000000   0.000000   0.000000  -0.000032
    24  H    0.000004   0.000000   0.000000   0.000000   0.000005  -0.000136
    25  H    0.000000   0.000000   0.000000   0.000000   0.000000   0.000002
    26  H    0.000000   0.000000   0.000000   0.000000   0.000003  -0.000008
               7          8          9         10         11         12
     1  C   -0.042696  -0.006018  -0.014304  -0.000244  -0.000098   0.001377
     2  C    0.003673  -0.000174  -0.000441  -0.000003   0.000000  -0.000026
     3  C   -0.000009   0.000017   0.000011   0.000000   0.000000   0.000003
     4  C    0.003618  -0.000057  -0.000020   0.000001  -0.000004   0.000072
     5  C   -0.044882   0.001839   0.000173  -0.000132  -0.000057  -0.002028
     6  C    0.156046  -0.015154   0.006021   0.005171   0.002644  -0.022103
     7  N    7.644254   0.236874  -0.066754  -0.084723  -0.120355   0.298642
     8  C    0.236874   4.360962   0.649000   0.367658  -0.019160  -0.056471
     9  N   -0.066754   0.649000   6.872871  -0.078252   0.003694   0.000178
    10  C   -0.084723   0.367658  -0.078252   5.066520   0.177126  -0.041472
    11  N   -0.120355  -0.019160   0.003694   0.177126   7.491894   0.304263
    12  C    0.298642  -0.056471   0.000178  -0.041472   0.304263   3.802067
    13  O   -0.075892  -0.000062  -0.000027   0.002320  -0.083163   0.628753
    14  C    0.002577   0.002531  -0.000064  -0.032689   0.233800  -0.029155
    15  C    0.000046   0.000020   0.000001  -0.002604  -0.064032  -0.000141
    16  N    0.000002   0.000011   0.000000  -0.000433  -0.000969   0.000041
    17  Cl   0.000002   0.000000   0.000000   0.000000   0.000000   0.000000
    18  H   -0.005985   0.003163   0.004890   0.000135  -0.000006  -0.000101
    19  H   -0.000079  -0.000005  -0.000010   0.000000   0.000000   0.000001
    20  H   -0.000079   0.000001   0.000000   0.000000   0.000000  -0.000003
    21  H   -0.004258  -0.000025   0.000003   0.000007  -0.000099   0.002029
    22  H    0.007353  -0.062577   0.328688  -0.012474   0.000314  -0.000034
    23  H    0.001687  -0.032481   0.000190   0.398803  -0.044038   0.001999
    24  H    0.000956  -0.028372  -0.000647   0.391377  -0.046726   0.002180
    25  H   -0.000021  -0.000126   0.000000  -0.000831  -0.044313   0.001831
    26  H    0.000558  -0.000096   0.000001   0.002221  -0.033912  -0.002349
              13         14         15         16         17         18
     1  C    0.000054   0.000001   0.000000   0.000000   0.002172   0.373475
     2  C   -0.000004   0.000000   0.000000   0.000000  -0.064183  -0.026709
     3  C    0.000004   0.000000   0.000000   0.000000   0.217582   0.002271
     4  C   -0.000099   0.000000   0.000000   0.000000  -0.064095   0.000023
     5  C   -0.006564  -0.000001   0.000000   0.000000   0.002156   0.002749
     6  C    0.003722  -0.000017   0.000000   0.000000   0.000350  -0.022480
     7  N   -0.075892   0.002577   0.000046   0.000002   0.000002  -0.005985
     8  C   -0.000062   0.002531   0.000020   0.000011   0.000000   0.003163
     9  N   -0.000027  -0.000064   0.000001   0.000000   0.000000   0.004890
    10  C    0.002320  -0.032689  -0.002604  -0.000433   0.000000   0.000135
    11  N   -0.083163   0.233800  -0.064032  -0.000969   0.000000  -0.000006
    12  C    0.628753  -0.029155  -0.000141   0.000041   0.000000  -0.000101
    13  O    8.141312  -0.000276  -0.000089  -0.000004   0.000000   0.000000
    14  C   -0.000276   4.988557   0.240216  -0.050572   0.000000   0.000000
    15  C   -0.000089   0.240216   4.690068   0.972853   0.000000   0.000000
    16  N   -0.000004  -0.050572   0.972853   6.466957   0.000000   0.000000
    17  Cl   0.000000   0.000000   0.000000   0.000000  16.906765  -0.000076
    18  H    0.000000   0.000000   0.000000   0.000000  -0.000076   0.416981
    19  H    0.000000   0.000000   0.000000   0.000000   0.000348  -0.001447
    20  H   -0.000005   0.000000   0.000000   0.000000   0.000334   0.000006
    21  H    0.004764   0.000010   0.000001   0.000000  -0.000077  -0.000083
    22  H    0.000001  -0.000010   0.000000   0.000000   0.000000  -0.000078
    23  H   -0.000026  -0.000957  -0.000375  -0.000003   0.000000  -0.000006
    24  H    0.000014  -0.000815   0.005568   0.001258   0.000000   0.000001
    25  H    0.000099   0.416634  -0.058314  -0.000752   0.000000   0.000000
    26  H    0.011296   0.396409  -0.035826  -0.000455   0.000000   0.000000
              19         20         21         22         23         24
     1  C   -0.024099   0.000224   0.002774   0.000442   0.000000   0.000004
     2  C    0.381365   0.001980   0.000018   0.000009   0.000000   0.000000
     3  C   -0.028977  -0.028913   0.002284   0.000000   0.000000   0.000000
     4  C    0.001979   0.381087  -0.025279   0.000000   0.000000   0.000000
     5  C    0.000243  -0.023738   0.372908  -0.000003   0.000000   0.000005
     6  C    0.001506   0.001550  -0.024797  -0.000345  -0.000032  -0.000136
     7  N   -0.000079  -0.000079  -0.004258   0.007353   0.001687   0.000956
     8  C   -0.000005   0.000001  -0.000025  -0.062577  -0.032481  -0.028372
     9  N   -0.000010   0.000000   0.000003   0.328688   0.000190  -0.000647
    10  C    0.000000   0.000000   0.000007  -0.012474   0.398803   0.391377
    11  N    0.000000   0.000000  -0.000099   0.000314  -0.044038  -0.046726
    12  C    0.000001  -0.000003   0.002029  -0.000034   0.001999   0.002180
    13  O    0.000000  -0.000005   0.004764   0.000001  -0.000026   0.000014
    14  C    0.000000   0.000000   0.000010  -0.000010  -0.000957  -0.000815
    15  C    0.000000   0.000000   0.000001   0.000000  -0.000375   0.005568
    16  N    0.000000   0.000000   0.000000   0.000000  -0.000003   0.001258
    17  Cl   0.000348   0.000334  -0.000077   0.000000   0.000000   0.000000
    18  H   -0.001447   0.000006  -0.000083  -0.000078  -0.000006   0.000001
    19  H    0.433116  -0.000096   0.000007   0.000000   0.000000   0.000000
    20  H   -0.000096   0.431244  -0.001478   0.000000   0.000000   0.000000
    21  H    0.000007  -0.001478   0.418690   0.000000   0.000000   0.000003
    22  H    0.000000   0.000000   0.000000   0.395912   0.001071   0.000724
    23  H    0.000000   0.000000   0.000000   0.001071   0.483534  -0.031206
    24  H    0.000000   0.000000   0.000003   0.000724  -0.031206   0.471479
    25  H    0.000000   0.000000   0.000000   0.000000   0.001673  -0.000549
    26  H    0.000000   0.000000   0.000002   0.000000  -0.000040  -0.000033
              25         26
     1  C    0.000000   0.000000
     2  C    0.000000   0.000000
     3  C    0.000000   0.000000
     4  C    0.000000   0.000000
     5  C    0.000000   0.000003
     6  C    0.000002  -0.000008
     7  N   -0.000021   0.000558
     8  C   -0.000126  -0.000096
     9  N    0.000000   0.000001
    10  C   -0.000831   0.002221
    11  N   -0.044313  -0.033912
    12  C    0.001831  -0.002349
    13  O    0.000099   0.011296
    14  C    0.416634   0.396409
    15  C   -0.058314  -0.035826
    16  N   -0.000752  -0.000455
    17  Cl   0.000000   0.000000
    18  H    0.000000   0.000000
    19  H    0.000000   0.000000
    20  H    0.000000   0.000000
    21  H    0.000000   0.000002
    22  H    0.000000   0.000000
    23  H    0.001673  -0.000040
    24  H   -0.000549  -0.000033
    25  H    0.457771  -0.017178
    26  H   -0.017178   0.386697
 Mulliken charges:
               1
     1  C   -0.173400
     2  C   -0.194627
     3  C   -0.134832
     4  C   -0.193666
     5  C   -0.185758
     6  C    0.319267
     7  N   -0.910552
     8  C    0.598701
     9  N   -0.705202
    10  C   -0.157482
    11  N   -0.756801
    12  C    1.110449
    13  O   -0.626129
    14  C   -0.166180
    15  C    0.252608
    16  N   -0.387935
    17  Cl  -0.001280
    18  H    0.253279
    19  H    0.236148
    20  H    0.237887
    21  H    0.252598
    22  H    0.341007
    23  H    0.220207
    24  H    0.234913
    25  H    0.244074
    26  H    0.292709
 Sum of Mulliken charges =   0.00000
 Mulliken charges with hydrogens summed into heavy atoms:
               1
     1  C    0.079879
     2  C    0.041521
     3  C   -0.134832
     4  C    0.044221
     5  C    0.066839
     6  C    0.319267
     7  N   -0.910552
     8  C    0.598701
     9  N   -0.364196
    10  C    0.297638
    11  N   -0.756801
    12  C    1.110449
    13  O   -0.626129
    14  C    0.370602
    15  C    0.252608
    16  N   -0.387935
    17  Cl  -0.001280
 DipInt: DoE/N= T F RetVal/Mat= T F Init=T NMatP=  1 IDeriv=0 Min/MaxMlt=  0  4
 Entering OneElI...
 OneElI was handed   235730923 working-precision words.
 Multipole integrals L=0 to 4 MinM= 0 MaxM= 0.
 Requested accuracy = 0.1000D-12
 PrtBox:  NBox=     1 Levels=  1 BoxLen=   38.94 SMaxX=       19.92
          Shift=            9.966191            4.129486            2.862079
 Box      1 Number                   0 centers from      1 to     87:
 ShPair: Thresh= 1.00D-13 NBox=     1 BxSize= 3.89D+01 RnKept= 2.01D+01
         NSMCal=                 3828 NSMKep=                3103
 PrsmSu:  NPrtUS=   1 ThrOK=F IAlg=1 NPAlg=1 LenDen=           0.
 Prism:   IPart=     0 DynPar=F LinDyn=F Incr=          31.
 PRISM was handed   235432693 working-precision words and  3103 shell-pairs
 IPart=  0 NShTot=        3103 NBatch=         109 AvBLen=        28.5
 PrSmSu:  NxtVal=             32.
 Electronic moments (au):
       -128.00000000         -1.27880290          1.22371172         -0.97350885
      -4806.34864646       -763.52498820       -254.32871161         -7.84286947
         10.41644420         -2.20465968      -4052.00097072      -1068.30030113
        -85.51806466        819.95868167       4027.93544954      -1999.59502766
        851.47252438        184.13735122       -188.18138777        174.78797813
    -360181.15812699     -12446.83181480      -1643.40778843      -6550.81302984
      11005.05592342       1435.60684484      -1232.42558455       1177.30968127
        164.24265405     -17124.23257223     -12191.90732586      -1749.35836539
       5294.89673649        602.34457088      -1532.46968878
 Electronic spatial extent (au):  <R**2>=           5824.2023
 DipInt: DoE/N= F T RetVal/Mat= T F Init=T NMatP=  1 IDeriv=0 Min/MaxMlt=  0  4
 Nuclear    moments (au):
        128.00000000          0.00000000          0.00000000          0.00000000
       4720.10078283        687.56311871        172.59990912          0.00000000
         -0.00011702          0.00004685       4073.17361770       1086.55258744
         67.75352245       -826.30552275      -3958.20311201       1868.56496969
       -834.75097221       -177.87814549        188.60844558       -213.24648218
     340821.55830606       9945.36550740        713.20374473       6167.45164049
      -9747.44192814      -1662.55672010       1218.36032461      -1019.33658117
       -128.80785460      13983.10607548       8893.62579680       1149.99106061
      -5087.21919791       -571.04552533       1451.13949917
 Total      moments (au):
          0.00000000         -1.27880290          1.22371172         -0.97350885
        -86.24786363        -75.96186950        -81.72880250         -7.84286947
         10.41632718         -2.20461283         21.17264698         18.25228630
        -17.76454221         -6.34684108         69.73233753       -131.03005797
         16.72155217          6.25920573          0.42705781        -38.45850404
     -19359.59982093      -2501.46630740       -930.20404369       -383.36138935
       1257.61399529       -226.94987526        -14.06525994        157.97310010
         35.43479945      -3141.12649675      -3298.28152906       -599.36730478
        207.67753858         31.29904554        -81.33018961
 Traceless Quadrup. (au):
         -4.93501842          5.35097571         -0.41595729         -7.84286947
         10.41632718         -2.20461283
 Charge=              0.0000 electrons
 Dipole moment (field-independent basis, Debye):
    X=             -3.2504    Y=              3.1104    Z=             -2.4744  Tot=              5.1344
 Quadrupole moment (field-independent basis, Debye-Ang):
   XX=           -116.0063   YY=           -102.1713   ZZ=           -109.9280
   XY=            -10.5489   XZ=             14.0103   YZ=             -2.9653
 Traceless Quadrupole moment (field-independent basis, Debye-Ang):
   XX=             -6.6378   YY=              7.1972   ZZ=             -0.5595
   XY=            -10.5489   XZ=             14.0103   YZ=             -2.9653
 Octapole moment (field-independent basis, Debye-Ang**2):
  XXX=             15.0699  YYY=             12.9913  ZZZ=            -12.6441  XYY=             -4.5174
  XXY=             49.6328  XXZ=            -93.2621  XZZ=             11.9018  YZZ=              4.4551
  YYZ=              0.3040  XYZ=            -27.3733
 Hexadecapole moment (field-independent basis, Debye-Ang**3):
 XXXX=          -7291.7531 YYYY=           -942.1721 ZZZZ=           -350.3594 XXXY=           -144.3923
 XXXZ=            473.6777 YYYX=            -85.4802 YYYZ=             -5.2977 ZZZX=             59.5002
 ZZZY=             13.3464 XXYY=          -1183.0988 XXZZ=          -1242.2909 YYZZ=           -225.7505
 XXYZ=             78.2213 YYXZ=             11.7887 ZZXY=            -30.6328
 N-N= 1.207154160057D+03 E-N=-5.177475610726D+03  KE= 1.172855280105D+03
 Entering OneElI...
 OneElI was handed   235777645 working-precision words.
 Calculate electrostatic properties
    NBasis =   260  MinDer = 0  MaxDer = 0
    NGrid  =    26  NMatD  =   1
 Requested accuracy = 0.1000D-12
 PrtBox:  NBox=     1 Levels=  1 BoxLen=   32.45 SMaxX=       19.92
          Shift=            9.966191            4.129486            2.862079
 Box      1 Number                   0 centers from      1 to     87:
 ShPair: Thresh= 1.00D-13 NBox=     1 BxSize= 3.24D+01 RnKept= 1.89D+01
         NSMCal=                 3828 NSMKep=                2792
 PrsmSu:  NPrtUS=   1 ThrOK=F IAlg=1 NPAlg=1 LenDen=           0.
 Prism:   IPart=     0 DynPar=F LinDyn=F Incr=         512.
 PRISM was handed   235506172 working-precision words and  2792 shell-pairs
 IPart=  0 NShTot=       72592 NBatch=        2897 AvBLen=        25.1
 PrSmSu:  NxtVal=            513.
 --------------------------------------------------------
       Center         ----      EFG at Nuclei      ----
                      3XX-RR        3YY-RR        3ZZ-RR
 --------------------------------------------------------
     1   Atom        0.170426      0.111202     -0.281629
     2   Atom        0.174620      0.058653     -0.233273
     3   Atom       -0.267061      0.300031     -0.032970
     4   Atom        0.164449      0.068519     -0.232968
     5   Atom        0.185060      0.094480     -0.279540
     6   Atom       -0.182662      0.267236     -0.084574
     7   Atom       -0.471355     -0.328120      0.799475
     8   Atom        0.162158      0.146147     -0.308306
     9   Atom        0.725966     -0.392551     -0.333415
    10   Atom        0.076396     -0.180821      0.104425
    11   Atom       -0.626126     -0.443957      1.070083
    12   Atom        0.113353      0.274010     -0.387363
    13   Atom        1.349071     -0.939957     -0.409113
    14   Atom       -0.109839      0.140434     -0.030595
    15   Atom       -0.042302     -0.196408      0.238709
    16   Atom       -0.118276     -0.419782      0.538058
    17   Atom       -3.485718      1.722669      1.763049
    18   Atom        0.089887     -0.199469      0.109582
    19   Atom       -0.044604     -0.079523      0.124128
    20   Atom        0.088767     -0.196007      0.107240
    21   Atom       -0.042221     -0.081989      0.124210
    22   Atom       -0.060822     -0.114547      0.175369
    23   Atom        0.078260     -0.059291     -0.018969
    24   Atom        0.041156      0.131558     -0.172714
    25   Atom       -0.022797      0.071589     -0.048792
    26   Atom        0.103958     -0.192020      0.088062
 --------------------------------------------------------
                        XY            XZ            YZ
 --------------------------------------------------------
     1   Atom       -0.019152      0.018518     -0.156280
     2   Atom        0.003155     -0.005872     -0.144850
     3   Atom        0.107577     -0.042746     -0.170590
     4   Atom       -0.023638      0.001544     -0.148914
     5   Atom        0.007145     -0.019049     -0.149334
     6   Atom        0.086237     -0.027309     -0.137800
     7   Atom        0.035058     -0.157432     -0.453280
     8   Atom        0.149371      0.104673      0.175516
     9   Atom        0.141031      0.132923     -0.011451
    10   Atom       -0.053903     -0.037908     -0.152322
    11   Atom       -0.022406     -0.074058     -0.506262
    12   Atom       -0.084521      0.034305      0.220797
    13   Atom        0.391404      0.405912     -0.106138
    14   Atom       -0.235764      0.086848      0.022265
    15   Atom        0.049408     -0.255342     -0.045698
    16   Atom        0.012302     -0.588641     -0.153302
    17   Atom        0.895040     -0.300801      0.007483
    18   Atom        0.129822     -0.055175      0.148850
    19   Atom       -0.204819      0.086043      0.103532
    20   Atom        0.134740     -0.054165      0.147833
    21   Atom       -0.200603      0.089438      0.106778
    22   Atom        0.269164      0.069021     -0.082262
    23   Atom        0.110357     -0.109845      0.175091
    24   Atom        0.002247      0.177928     -0.019715
    25   Atom        0.102036     -0.172025      0.122880
    26   Atom        0.094668      0.046919     -0.132935
 --------------------------------------------------------


 ---------------------------------------------------------------------------------
              Nuclear Quadrupole Coupling Constant in Principal Axis System
 ---------------------------------------------------------------------------------

       Atom             a.u.   MegaHertz   Gauss  10(-4) cm-1        Axes

              Baa    -0.5075     2.437     0.870     0.813  0.7150  0.6294  0.3044
     7 N(14)  Bbb    -0.4693     2.254     0.804     0.752 -0.6904  0.7041  0.1659
              Bcc     0.9768    -4.691    -1.674    -1.565 -0.1099 -0.3288  0.9380
 
              Baa    -0.4207     2.020     0.721     0.674 -0.1547  0.9214  0.3566
     9 N(14)  Bbb    -0.3384     1.625     0.580     0.542 -0.0667 -0.3698  0.9267
              Bcc     0.7591    -3.646    -1.301    -1.216  0.9857  0.1195  0.1187
 
              Baa    -0.6586     3.163     1.129     1.055  0.8171  0.5429  0.1940
    11 N(14)  Bbb    -0.5674     2.725     0.972     0.909 -0.5754  0.7883  0.2177
              Bcc     1.2260    -5.888    -2.101    -1.964 -0.0347 -0.2895  0.9565
 
              Baa    -0.5175     2.485     0.887     0.829  0.6417  0.6223  0.4482
    16 N(14)  Bbb    -0.3809     1.829     0.653     0.610 -0.5822  0.7757 -0.2435
              Bcc     0.8984    -4.315    -1.540    -1.439 -0.4993 -0.1047  0.8601
 
              Baa    -3.6516   -70.056   -24.998   -23.368  0.9849 -0.1641  0.0549
    17 Cl(35) Bbb     1.7632    33.826    12.070    11.283  0.0087  0.3639  0.9314
              Bcc     1.8885    36.230    12.928    12.085  0.1728  0.9169 -0.3599
 

 ---------------------------------------------------------------------------------

 No NMR shielding tensors so no spin-rotation constants.
 Leave Link  601 at Thu Jan 16 21:51:04 2014, MaxMem=   235929600 cpu:         0.4
 FitSet:  NAtFit=    26 NAtPot=    26 NAtFrz=     0 MDM=    30 TotChg=   0.00000
 Merz-Kollman atomic radii used.
 Atom Element Radius
    1     6    1.50
    2     6    1.50
    3     6    1.50
    4     6    1.50
    5     6    1.50
    6     6    1.50
    7     7    1.50
    8     6    1.50
    9     7    1.50
   10     6    1.50
   11     7    1.50
   12     6    1.50
   13     8    1.40
   14     6    1.50
   15     6    1.50
   16     7    1.50
   17    17    1.70
   18     1    1.20
   19     1    1.20
   20     1    1.20
   21     1    1.20
   22     1    1.20
   23     1    1.20
   24     1    1.20
   25     1    1.20
   26     1    1.20
 Generate VDW surfaces: Layer= 5 Dens= 2 Start= 1.400 Inc= 0.179

 **********************************************************************

            Electrostatic Properties Using The SCF Density

 **********************************************************************

       Atomic Center    1 is at   1.698989  1.193078 -0.478282
       Atomic Center    2 is at   3.071100  0.966246 -0.396313
       Atomic Center    3 is at   3.537842 -0.251490  0.094958
       Atomic Center    4 is at   2.651698 -1.242466  0.512780
       Atomic Center    5 is at   1.280129 -1.008926  0.443064
       Atomic Center    6 is at   0.801147  0.206750 -0.057061
       Atomic Center    7 is at  -0.607909  0.432357 -0.139406
       Atomic Center    8 is at  -1.266136  1.626074  0.183006
       Atomic Center    9 is at  -0.677276  2.681562  0.575449
       Atomic Center   10 is at  -2.754632  1.365761 -0.034032
       Atomic Center   11 is at  -2.767134  0.033373 -0.604344
       Atomic Center   12 is at  -1.512912 -0.552767 -0.584481
       Atomic Center   13 is at  -1.254470 -1.695255 -0.905279
       Atomic Center   14 is at  -3.954421 -0.771714 -0.776668
       Atomic Center   15 is at  -4.699026 -0.963626  0.485319
       Atomic Center   16 is at  -5.273881 -1.067636  1.487952
       Atomic Center   17 is at   5.269486 -0.540233  0.191701
       Atomic Center   18 is at   1.329345  2.140697 -0.847224
       Atomic Center   19 is at   3.771584  1.729962 -0.716044
       Atomic Center   20 is at   3.027297 -2.185230  0.895198
       Atomic Center   21 is at   0.586207 -1.776254  0.761709
       Atomic Center   22 is at  -1.357228  3.419699  0.768563
       Atomic Center   23 is at  -3.189636  2.109857 -0.713283
       Atomic Center   24 is at  -3.296856  1.408613  0.921507
       Atomic Center   25 is at  -4.628347 -0.318626 -1.514547
       Atomic Center   26 is at  -3.627121 -1.741836 -1.163853
      ESP Fit Center   27 is at   1.698989  1.193078  1.621718
      ESP Fit Center   28 is at   2.058110  1.815094  1.495072
      ESP Fit Center   29 is at   1.339868  1.815094  1.495072
      ESP Fit Center   30 is at   2.259739  2.420948  1.130411
      ESP Fit Center   31 is at   1.506885  2.529192  1.130411
      ESP Fit Center   32 is at   2.260984  2.922720  0.571718
      ESP Fit Center   33 is at   2.620819  3.044362 -0.113621
      ESP Fit Center   34 is at   0.403813  0.812780 -2.086975
      ESP Fit Center   35 is at   1.506885 -0.143036 -2.086975
      ESP Fit Center   36 is at   2.259739 -0.034792 -2.086975
      ESP Fit Center   37 is at   2.417231  1.193078 -2.451637
      ESP Fit Center   38 is at   2.058110  1.815094 -2.451637
      ESP Fit Center   39 is at   0.980747  1.193078 -2.451637
      ESP Fit Center   40 is at   1.339868  0.571062 -2.451637
      ESP Fit Center   41 is at   2.058110  0.571062 -2.451637
      ESP Fit Center   42 is at   1.698989  1.193078 -2.578282
      ESP Fit Center   43 is at   3.430221  1.588262  1.577041
      ESP Fit Center   44 is at   2.711979  1.588262  1.577041
      ESP Fit Center   45 is at   2.352858  0.966246  1.577041
      ESP Fit Center   46 is at   4.206669  1.696032  1.212380
      ESP Fit Center   47 is at   3.631850  2.194116  1.212380
      ESP Fit Center   48 is at   2.878996  2.302360  1.212380
      ESP Fit Center   49 is at   3.633095  2.695888  0.653687
      ESP Fit Center   50 is at   2.880999  2.774937  0.653687
      ESP Fit Center   51 is at   2.878996 -0.369868 -2.005006
      ESP Fit Center   52 is at   3.631850 -0.261624 -2.005006
      ESP Fit Center   53 is at   4.206669  0.236460 -2.005006
      ESP Fit Center   54 is at   3.789342  0.966246 -2.369668
      ESP Fit Center   55 is at   3.430221  1.588262 -2.369668
      ESP Fit Center   56 is at   2.711979  1.588262 -2.369668
      ESP Fit Center   57 is at   2.711979  0.344230 -2.369668
      ESP Fit Center   58 is at   3.430221  0.344230 -2.369668
      ESP Fit Center   59 is at   3.071100  0.966246 -2.496313
      ESP Fit Center   60 is at   3.537842 -0.251490  2.194958
      ESP Fit Center   61 is at   3.896963  0.370526  2.068312
      ESP Fit Center   62 is at   3.178721  0.370526  2.068312
      ESP Fit Center   63 is at   4.098591  0.976380  1.703651
      ESP Fit Center   64 is at   3.345738  1.084624  1.703651
      ESP Fit Center   65 is at   2.653876  0.768662  1.703651
      ESP Fit Center   66 is at   2.242666 -0.631788 -1.513735
      ESP Fit Center   67 is at   3.345738 -1.587604 -1.513735
      ESP Fit Center   68 is at   3.178721 -0.873506 -1.878397
      ESP Fit Center   69 is at   3.896963 -0.873506 -1.878397
      ESP Fit Center   70 is at   2.651698 -1.242466  2.612780
      ESP Fit Center   71 is at   3.369940 -1.242466  2.486134
      ESP Fit Center   72 is at   3.010819 -0.620450  2.486134
      ESP Fit Center   73 is at   2.292577 -0.620450  2.486134
      ESP Fit Center   74 is at   1.933456 -1.242466  2.486134
      ESP Fit Center   75 is at   2.292577 -1.864482  2.486134
      ESP Fit Center   76 is at   4.001552 -1.242466  2.121473
      ESP Fit Center   77 is at   2.459594  0.093648  2.121473
      ESP Fit Center   78 is at   1.767732 -2.262618  2.121473
      ESP Fit Center   79 is at   1.742371 -2.817466 -0.537220
      ESP Fit Center   80 is at   2.461597 -3.051157 -0.537220
      ESP Fit Center   81 is at   3.868614 -2.593989 -0.537220
      ESP Fit Center   82 is at   2.459594 -2.578580 -1.095913
      ESP Fit Center   83 is at   3.212447 -2.470336 -1.095913
      ESP Fit Center   84 is at   3.787267 -1.972252 -1.095913
      ESP Fit Center   85 is at   2.292577 -1.864482 -1.460575
      ESP Fit Center   86 is at   3.010819 -1.864482 -1.460575
      ESP Fit Center   87 is at   2.651698 -1.242466 -1.587220
      ESP Fit Center   88 is at   1.280129 -1.008926  2.543064
      ESP Fit Center   89 is at   1.639250 -0.386910  2.416418
      ESP Fit Center   90 is at   0.921008 -0.386910  2.416418
      ESP Fit Center   91 is at   0.561887 -1.008926  2.416418
      ESP Fit Center   92 is at   0.921008 -1.630942  2.416418
      ESP Fit Center   93 is at   1.639250 -1.630942  2.416418
      ESP Fit Center   94 is at   1.840878  0.218944  2.051757
      ESP Fit Center   95 is at   1.088025  0.327188  2.051757
      ESP Fit Center   96 is at   0.396163  0.011226  2.051757
      ESP Fit Center   97 is at  -0.015047 -0.628628  2.051757
      ESP Fit Center   98 is at   1.470949 -3.068200  0.078403
      ESP Fit Center   99 is at   1.090028 -2.817617 -0.606936
      ESP Fit Center  100 is at   1.088025 -2.345040 -1.165629
      ESP Fit Center  101 is at   1.840878 -2.236796 -1.165629
      ESP Fit Center  102 is at   1.998371 -1.008926 -1.530291
      ESP Fit Center  103 is at   0.921008 -1.630942 -1.530291
      ESP Fit Center  104 is at   1.639250 -1.630942 -1.530291
      ESP Fit Center  105 is at   1.160268  0.828766  1.916293
      ESP Fit Center  106 is at   0.442026  0.828766  1.916293
      ESP Fit Center  107 is at   0.082905  0.206750  1.916293
      ESP Fit Center  108 is at   0.609043 -1.129364 -1.665754
      ESP Fit Center  109 is at   1.361896 -1.021120 -1.665754
      ESP Fit Center  110 is at   1.936716 -0.523036 -1.665754
      ESP Fit Center  111 is at   0.442026 -0.415266 -2.030416
      ESP Fit Center  112 is at   1.160268 -0.415266 -2.030416
      ESP Fit Center  113 is at   0.801147  0.206750 -2.157061
      ESP Fit Center  114 is at  -0.607909  0.432357  1.960594
      ESP Fit Center  115 is at  -0.967030 -0.189659  1.833948
      ESP Fit Center  116 is at  -0.248788 -0.189659  1.833948
      ESP Fit Center  117 is at  -1.903085  0.052059  1.469287
      ESP Fit Center  118 is at  -0.800013 -0.903757  1.469287
      ESP Fit Center  119 is at  -0.047160  1.660227 -1.748099
      ESP Fit Center  120 is at   0.110333  0.432357 -2.112761
      ESP Fit Center  121 is at  -0.248788  1.054373 -2.112761
      ESP Fit Center  122 is at  -0.967030  1.054373 -2.112761
      ESP Fit Center  123 is at  -0.607909  0.432357 -2.239406
      ESP Fit Center  124 is at  -1.984378  1.626074  2.156360
      ESP Fit Center  125 is at  -1.625257  1.004058  2.156360
      ESP Fit Center  126 is at  -0.907015  1.004058  2.156360
      ESP Fit Center  127 is at  -1.458240  0.289960  1.791699
      ESP Fit Center  128 is at  -1.458240  2.962188 -1.425687
      ESP Fit Center  129 is at  -0.907015  2.248090 -1.790349
      ESP Fit Center  130 is at  -1.625257  2.248090 -1.790349
      ESP Fit Center  131 is at  -1.266136  1.626074 -1.916994
      ESP Fit Center  132 is at  -0.677276  2.681562  2.675449
      ESP Fit Center  133 is at   0.040966  2.681562  2.548803
      ESP Fit Center  134 is at  -0.318155  3.303578  2.548803
      ESP Fit Center  135 is at  -1.036397  3.303578  2.548803
      ESP Fit Center  136 is at  -1.395518  2.681562  2.548803
      ESP Fit Center  137 is at  -1.036397  2.059546  2.548803
      ESP Fit Center  138 is at  -0.318155  2.059546  2.548803
      ESP Fit Center  139 is at   0.672578  2.681562  2.184142
      ESP Fit Center  140 is at   0.458293  3.411348  2.184142
      ESP Fit Center  141 is at  -0.116526  3.909432  2.184142
      ESP Fit Center  142 is at  -1.972451  2.301264  2.184142
      ESP Fit Center  143 is at  -0.116526  1.453692  2.184142
      ESP Fit Center  144 is at   0.458293  1.951776  2.184142
      ESP Fit Center  145 is at   1.141377  2.681562  1.625449
      ESP Fit Center  146 is at   0.984146  3.421275  1.625449
      ESP Fit Center  147 is at   0.539641  4.033085  1.625449
      ESP Fit Center  148 is at  -0.115281  4.411204  1.625449
      ESP Fit Center  149 is at   0.984146  1.941849  1.625449
      ESP Fit Center  150 is at   1.251166  3.428645  0.940110
      ESP Fit Center  151 is at   0.851066  4.074830  0.940110
      ESP Fit Center  152 is at   0.244554  4.532846  0.940110
      ESP Fit Center  153 is at   0.851066  4.074830  0.210788
      ESP Fit Center  154 is at   0.244554  4.532846  0.210788
      ESP Fit Center  155 is at   0.539641  4.033085 -0.474551
      ESP Fit Center  156 is at  -0.115281  4.411204 -0.474551
      ESP Fit Center  157 is at  -0.867377  4.490253 -0.474551
      ESP Fit Center  158 is at  -0.116526  3.909432 -1.033244
      ESP Fit Center  159 is at  -0.869380  4.017676 -1.033244
      ESP Fit Center  160 is at  -1.561242  3.701714 -1.033244
      ESP Fit Center  161 is at  -0.318155  3.303578 -1.397906
      ESP Fit Center  162 is at  -1.036397  3.303578 -1.397906
      ESP Fit Center  163 is at  -2.193882  0.137891  1.574661
      ESP Fit Center  164 is at  -4.512963  2.454473  0.330629
      ESP Fit Center  165 is at  -2.408013 -0.588643  1.369010
      ESP Fit Center  166 is at  -2.206385  1.261243 -2.213037
      ESP Fit Center  167 is at  -2.959238  1.369487 -2.213037
      ESP Fit Center  168 is at  -3.651100  1.053525 -2.213037
      ESP Fit Center  169 is at  -2.048892  0.033373 -2.577699
      ESP Fit Center  170 is at  -2.408013  0.655389 -2.577699
      ESP Fit Center  171 is at  -3.126255  0.655389 -2.577699
      ESP Fit Center  172 is at  -2.408013 -0.588643 -2.577699
      ESP Fit Center  173 is at  -2.767134  0.033373 -2.704344
      ESP Fit Center  174 is at  -1.512912 -0.552767  1.515519
      ESP Fit Center  175 is at  -2.231154 -0.552767  1.388873
      ESP Fit Center  176 is at  -1.872033 -1.174783  1.388873
      ESP Fit Center  177 is at  -1.153791 -1.174783  1.388873
      ESP Fit Center  178 is at  -2.396878 -1.572918  1.024212
      ESP Fit Center  179 is at  -1.705016 -1.888881  1.024212
      ESP Fit Center  180 is at  -0.163058 -0.552767 -2.193174
      ESP Fit Center  181 is at  -0.794670 -0.552767 -2.557836
      ESP Fit Center  182 is at  -1.153791  0.069249 -2.557836
      ESP Fit Center  183 is at  -1.872033  0.069249 -2.557836
      ESP Fit Center  184 is at  -2.231154 -0.552767 -2.557836
      ESP Fit Center  185 is at  -1.512912 -0.552767 -2.684481
      ESP Fit Center  186 is at  -1.629500 -2.344826  0.905525
      ESP Fit Center  187 is at  -2.454720 -2.388220  0.480650
      ESP Fit Center  188 is at  -1.947435 -2.895505  0.480650
      ESP Fit Center  189 is at  -1.254470 -3.081184  0.480650
      ESP Fit Center  190 is at  -2.719441 -2.759619 -0.155220
      ESP Fit Center  191 is at  -2.159872 -3.263457 -0.155220
      ESP Fit Center  192 is at  -1.443751 -3.496139 -0.155220
      ESP Fit Center  193 is at  -0.694901 -3.417432 -0.155220
      ESP Fit Center  194 is at  -0.042806 -3.040944 -0.155220
      ESP Fit Center  195 is at  -2.435634 -3.259369 -0.905279
      ESP Fit Center  196 is at  -1.790850 -3.580433 -0.905279
      ESP Fit Center  197 is at  -1.073624 -3.646894 -0.905279
      ESP Fit Center  198 is at  -0.380823 -3.449775 -0.905279
      ESP Fit Center  199 is at   0.193987 -3.015698 -0.905279
      ESP Fit Center  200 is at   0.556334 -1.695255 -1.655339
      ESP Fit Center  201 is at  -2.159872 -3.263457 -1.655339
      ESP Fit Center  202 is at  -1.443751 -3.496139 -1.655339
      ESP Fit Center  203 is at  -0.694901 -3.417432 -1.655339
      ESP Fit Center  204 is at  -0.042806 -3.040944 -1.655339
      ESP Fit Center  205 is at   0.399782 -2.431775 -1.655339
      ESP Fit Center  206 is at   0.131459 -1.695255 -2.291208
      ESP Fit Center  207 is at  -0.054220 -1.002290 -2.291208
      ESP Fit Center  208 is at  -2.454720 -2.388220 -2.291208
      ESP Fit Center  209 is at  -1.947435 -2.895505 -2.291208
      ESP Fit Center  210 is at  -1.254470 -3.081184 -2.291208
      ESP Fit Center  211 is at  -0.561505 -2.895505 -2.291208
      ESP Fit Center  212 is at  -0.054220 -2.388220 -2.291208
      ESP Fit Center  213 is at  -0.504411 -1.695255 -2.716083
      ESP Fit Center  214 is at  -0.879440 -1.045684 -2.716083
      ESP Fit Center  215 is at  -1.629500 -1.045684 -2.716083
      ESP Fit Center  216 is at  -2.004530 -1.695255 -2.716083
      ESP Fit Center  217 is at  -1.629500 -2.344826 -2.716083
      ESP Fit Center  218 is at  -0.879440 -2.344826 -2.716083
      ESP Fit Center  219 is at  -1.254470 -1.695255 -2.865279
      ESP Fit Center  220 is at  -5.200728  0.878663 -0.412007
      ESP Fit Center  221 is at  -5.712752 -1.860426 -1.141329
      ESP Fit Center  222 is at  -5.200728 -2.422090 -1.141329
      ESP Fit Center  223 is at  -5.425743 -1.840692 -1.826668
      ESP Fit Center  224 is at  -4.838387 -1.791865 -2.385361
      ESP Fit Center  225 is at  -3.236179 -0.771714 -2.750023
      ESP Fit Center  226 is at  -2.880373 -0.963626  1.535319
      ESP Fit Center  227 is at  -3.037604 -0.223913  1.535319
      ESP Fit Center  228 is at  -3.482110 -2.315149  1.535319
      ESP Fit Center  229 is at  -3.037604 -1.703339  1.535319
      ESP Fit Center  230 is at  -5.264988  1.025522  0.849980
      ESP Fit Center  231 is at  -4.508206 -3.022900  0.849980
      ESP Fit Center  232 is at  -3.777196 -2.814910  0.849980
      ESP Fit Center  233 is at  -3.170685 -2.356893  0.849980
      ESP Fit Center  234 is at  -2.770584 -1.710708  0.849980
      ESP Fit Center  235 is at  -5.264988  1.025522  0.120658
      ESP Fit Center  236 is at  -5.945333  0.686751  0.120658
      ESP Fit Center  237 is at  -6.457357  0.125087  0.120658
      ESP Fit Center  238 is at  -5.945333 -2.614002  0.120658
      ESP Fit Center  239 is at  -5.264988 -2.952774  0.120658
      ESP Fit Center  240 is at  -4.508206 -3.022900  0.120658
      ESP Fit Center  241 is at  -3.777196 -2.814910  0.120658
      ESP Fit Center  242 is at  -6.170348  0.105352 -0.564681
      ESP Fit Center  243 is at  -6.477938 -0.585507 -0.564681
      ESP Fit Center  244 is at  -6.477938 -1.341745 -0.564681
      ESP Fit Center  245 is at  -6.170348 -2.032604 -0.564681
      ESP Fit Center  246 is at  -5.608353 -2.538626 -0.564681
      ESP Fit Center  247 is at  -4.889127 -2.772316 -0.564681
      ESP Fit Center  248 is at  -5.994202 -1.343924 -1.123374
      ESP Fit Center  249 is at  -5.273881 -1.067636  3.587952
      ESP Fit Center  250 is at  -4.555639 -1.067636  3.461306
      ESP Fit Center  251 is at  -4.914760 -0.445620  3.461306
      ESP Fit Center  252 is at  -5.633002 -0.445620  3.461306
      ESP Fit Center  253 is at  -5.992123 -1.067636  3.461306
      ESP Fit Center  254 is at  -5.633002 -1.689652  3.461306
      ESP Fit Center  255 is at  -4.914760 -1.689652  3.461306
      ESP Fit Center  256 is at  -3.924027 -1.067636  3.096645
      ESP Fit Center  257 is at  -4.138312 -0.337850  3.096645
      ESP Fit Center  258 is at  -4.713132  0.160234  3.096645
      ESP Fit Center  259 is at  -5.465985  0.268479  3.096645
      ESP Fit Center  260 is at  -6.157847 -0.047484  3.096645
      ESP Fit Center  261 is at  -6.569057 -0.687338  3.096645
      ESP Fit Center  262 is at  -6.569057 -1.447934  3.096645
      ESP Fit Center  263 is at  -6.157847 -2.087787  3.096645
      ESP Fit Center  264 is at  -5.465985 -2.403750  3.096645
      ESP Fit Center  265 is at  -4.713132 -2.295506  3.096645
      ESP Fit Center  266 is at  -4.138312 -1.797422  3.096645
      ESP Fit Center  267 is at  -3.455228 -1.067636  2.537952
      ESP Fit Center  268 is at  -3.612459 -0.327923  2.537952
      ESP Fit Center  269 is at  -4.056965  0.283887  2.537952
      ESP Fit Center  270 is at  -4.711886  0.662006  2.537952
      ESP Fit Center  271 is at  -5.463982  0.741055  2.537952
      ESP Fit Center  272 is at  -6.183208  0.507364  2.537952
      ESP Fit Center  273 is at  -6.745203  0.001342  2.537952
      ESP Fit Center  274 is at  -7.052793 -0.689517  2.537952
      ESP Fit Center  275 is at  -7.052793 -1.445755  2.537952
      ESP Fit Center  276 is at  -6.745203 -2.136614  2.537952
      ESP Fit Center  277 is at  -6.183208 -2.642636  2.537952
      ESP Fit Center  278 is at  -5.463982 -2.876326  2.537952
      ESP Fit Center  279 is at  -4.711886 -2.797278  2.537952
      ESP Fit Center  280 is at  -4.056965 -2.419159  2.537952
      ESP Fit Center  281 is at  -3.612459 -1.807349  2.537952
      ESP Fit Center  282 is at  -5.083061  0.991638  1.852613
      ESP Fit Center  283 is at  -5.839843  0.921512  1.852613
      ESP Fit Center  284 is at  -6.520188  0.582741  1.852613
      ESP Fit Center  285 is at  -7.032212  0.021077  1.852613
      ESP Fit Center  286 is at  -7.306764 -0.687624  1.852613
      ESP Fit Center  287 is at  -7.306764 -1.447648  1.852613
      ESP Fit Center  288 is at  -7.032212 -2.156348  1.852613
      ESP Fit Center  289 is at  -6.520188 -2.718012  1.852613
      ESP Fit Center  290 is at  -5.839843 -3.056784  1.852613
      ESP Fit Center  291 is at  -5.083061 -3.126910  1.852613
      ESP Fit Center  292 is at  -4.352051 -2.918920  1.852613
      ESP Fit Center  293 is at  -3.745540 -2.460903  1.852613
      ESP Fit Center  294 is at  -3.345439 -1.814718  1.852613
      ESP Fit Center  295 is at  -5.839843  0.921512  1.123291
      ESP Fit Center  296 is at  -6.520188  0.582741  1.123291
      ESP Fit Center  297 is at  -7.032212  0.021077  1.123291
      ESP Fit Center  298 is at  -7.306764 -0.687624  1.123291
      ESP Fit Center  299 is at  -7.306764 -1.447648  1.123291
      ESP Fit Center  300 is at  -7.032212 -2.156348  1.123291
      ESP Fit Center  301 is at  -6.520188 -2.718012  1.123291
      ESP Fit Center  302 is at  -5.839843 -3.056784  1.123291
      ESP Fit Center  303 is at  -5.083061 -3.126910  1.123291
      ESP Fit Center  304 is at  -6.745203  0.001342  0.437952
      ESP Fit Center  305 is at  -7.052793 -0.689517  0.437952
      ESP Fit Center  306 is at  -7.052793 -1.445755  0.437952
      ESP Fit Center  307 is at  -6.745203 -2.136614  0.437952
      ESP Fit Center  308 is at  -6.183208 -2.642636  0.437952
      ESP Fit Center  309 is at   5.269486 -0.540233  2.571701
      ESP Fit Center  310 is at   6.004946 -0.540233  2.455215
      ESP Fit Center  311 is at   5.637216  0.096694  2.455215
      ESP Fit Center  312 is at   4.901756  0.096694  2.455215
      ESP Fit Center  313 is at   4.534025 -0.540233  2.455215
      ESP Fit Center  314 is at   4.901756 -1.177160  2.455215
      ESP Fit Center  315 is at   5.637216 -1.177160  2.455215
      ESP Fit Center  316 is at   6.668415 -0.540233  2.117161
      ESP Fit Center  317 is at   6.480994  0.159231  2.117161
      ESP Fit Center  318 is at   5.968950  0.671275  2.117161
      ESP Fit Center  319 is at   5.269486  0.858696  2.117161
      ESP Fit Center  320 is at   4.570021  0.671275  2.117161
      ESP Fit Center  321 is at   4.057978  0.159231  2.117161
      ESP Fit Center  322 is at   4.057978 -1.239697  2.117161
      ESP Fit Center  323 is at   4.570021 -1.751741  2.117161
      ESP Fit Center  324 is at   5.269486 -1.939162  2.117161
      ESP Fit Center  325 is at   5.968950 -1.751741  2.117161
      ESP Fit Center  326 is at   6.480994 -1.239697  2.117161
      ESP Fit Center  327 is at   7.194946 -0.540233  1.590630
      ESP Fit Center  328 is at   7.048379  0.196609  1.590630
      ESP Fit Center  329 is at   6.630992  0.821273  1.590630
      ESP Fit Center  330 is at   6.006328  1.238660  1.590630
      ESP Fit Center  331 is at   5.269486  1.385227  1.590630
      ESP Fit Center  332 is at   4.532644  1.238660  1.590630
      ESP Fit Center  333 is at   5.269486 -2.465693  1.590630
      ESP Fit Center  334 is at   6.006328 -2.319127  1.590630
      ESP Fit Center  335 is at   6.630992 -1.901739  1.590630
      ESP Fit Center  336 is at   7.048379 -1.277075  1.590630
      ESP Fit Center  337 is at   7.533000 -0.540233  0.927161
      ESP Fit Center  338 is at   7.410357  0.194729  0.927161
      ESP Fit Center  339 is at   7.055717  0.850046  0.927161
      ESP Fit Center  340 is at   6.507511  1.354705  0.927161
      ESP Fit Center  341 is at   5.825146  1.654019  0.927161
      ESP Fit Center  342 is at   5.082566  1.715550  0.927161
      ESP Fit Center  343 is at   5.082566 -2.796016  0.927161
      ESP Fit Center  344 is at   5.825146 -2.734485  0.927161
      ESP Fit Center  345 is at   6.507511 -2.435171  0.927161
      ESP Fit Center  346 is at   7.055717 -1.930512  0.927161
      ESP Fit Center  347 is at   7.410357 -1.275195  0.927161
      ESP Fit Center  348 is at   7.649486 -0.540233  0.191701
      ESP Fit Center  349 is at   7.543749  0.161284  0.191701
      ESP Fit Center  350 is at   7.235934  0.800469  0.191701
      ESP Fit Center  351 is at   6.753392  1.320526  0.191701
      ESP Fit Center  352 is at   6.138998  1.675247  0.191701
      ESP Fit Center  353 is at   5.447343  1.833112  0.191701
      ESP Fit Center  354 is at   4.739886 -2.860561  0.191701
      ESP Fit Center  355 is at   5.447343 -2.913578  0.191701
      ESP Fit Center  356 is at   6.138998 -2.755713  0.191701
      ESP Fit Center  357 is at   6.753392 -2.400992  0.191701
      ESP Fit Center  358 is at   7.235934 -1.880935  0.191701
      ESP Fit Center  359 is at   7.543749 -1.241750  0.191701
      ESP Fit Center  360 is at   7.533000 -0.540233 -0.543760
      ESP Fit Center  361 is at   7.410357  0.194729 -0.543760
      ESP Fit Center  362 is at   7.055717  0.850046 -0.543760
      ESP Fit Center  363 is at   6.507511  1.354705 -0.543760
      ESP Fit Center  364 is at   5.825146  1.654019 -0.543760
      ESP Fit Center  365 is at   4.360242 -2.613099 -0.543760
      ESP Fit Center  366 is at   5.082566 -2.796016 -0.543760
      ESP Fit Center  367 is at   5.825146 -2.734485 -0.543760
      ESP Fit Center  368 is at   6.507511 -2.435171 -0.543760
      ESP Fit Center  369 is at   7.055717 -1.930512 -0.543760
      ESP Fit Center  370 is at   7.410357 -1.275195 -0.543760
      ESP Fit Center  371 is at   7.194946 -0.540233 -1.207228
      ESP Fit Center  372 is at   7.048379  0.196609 -1.207228
      ESP Fit Center  373 is at   6.630992  0.821273 -1.207228
      ESP Fit Center  374 is at   6.006328  1.238660 -1.207228
      ESP Fit Center  375 is at   3.907980 -1.901739 -1.207228
      ESP Fit Center  376 is at   4.532644 -2.319127 -1.207228
      ESP Fit Center  377 is at   5.269486 -2.465693 -1.207228
      ESP Fit Center  378 is at   6.006328 -2.319127 -1.207228
      ESP Fit Center  379 is at   6.630992 -1.901739 -1.207228
      ESP Fit Center  380 is at   7.048379 -1.277075 -1.207228
      ESP Fit Center  381 is at   6.668415 -0.540233 -1.733760
      ESP Fit Center  382 is at   6.480994  0.159231 -1.733760
      ESP Fit Center  383 is at   5.968950  0.671275 -1.733760
      ESP Fit Center  384 is at   5.269486  0.858696 -1.733760
      ESP Fit Center  385 is at   4.057978 -1.239697 -1.733760
      ESP Fit Center  386 is at   4.570021 -1.751741 -1.733760
      ESP Fit Center  387 is at   5.269486 -1.939162 -1.733760
      ESP Fit Center  388 is at   5.968950 -1.751741 -1.733760
      ESP Fit Center  389 is at   6.480994 -1.239697 -1.733760
      ESP Fit Center  390 is at   6.004946 -0.540233 -2.071814
      ESP Fit Center  391 is at   5.637216  0.096694 -2.071814
      ESP Fit Center  392 is at   4.901756  0.096694 -2.071814
      ESP Fit Center  393 is at   4.534025 -0.540233 -2.071814
      ESP Fit Center  394 is at   4.901756 -1.177160 -2.071814
      ESP Fit Center  395 is at   5.637216 -1.177160 -2.071814
      ESP Fit Center  396 is at   5.269486 -0.540233 -2.188299
      ESP Fit Center  397 is at   1.735232  3.389888  0.200239
      ESP Fit Center  398 is at   2.259766  3.488645 -0.473389
      ESP Fit Center  399 is at   1.526769  3.766634 -0.473389
      ESP Fit Center  400 is at   2.259766  3.488645 -1.221059
      ESP Fit Center  401 is at   1.526769  3.766634 -1.221059
      ESP Fit Center  402 is at   0.748545  3.672140 -1.221059
      ESP Fit Center  403 is at   2.391970  2.912739 -1.894687
      ESP Fit Center  404 is at   1.735232  3.389888 -1.894687
      ESP Fit Center  405 is at   0.923458  3.389888 -1.894687
      ESP Fit Center  406 is at   0.266720  2.912739 -1.894687
      ESP Fit Center  407 is at   0.015868  2.140697 -1.894687
      ESP Fit Center  408 is at   2.058270  2.140697 -2.360852
      ESP Fit Center  409 is at   1.693807  2.771964 -2.360852
      ESP Fit Center  410 is at   0.964883  2.771964 -2.360852
      ESP Fit Center  411 is at   0.600420  2.140697 -2.360852
      ESP Fit Center  412 is at   1.329345  2.140697 -2.527224
      ESP Fit Center  413 is at   4.136046  2.361229  0.797584
      ESP Fit Center  414 is at   4.834209  2.502004  0.331419
      ESP Fit Center  415 is at   4.177471  2.979153  0.331419
      ESP Fit Center  416 is at   3.365697  2.979153  0.331419
      ESP Fit Center  417 is at   5.221854  2.491122 -0.342209
      ESP Fit Center  418 is at   4.702005  3.077910 -0.342209
      ESP Fit Center  419 is at   3.969008  3.355899 -0.342209
      ESP Fit Center  420 is at   3.190784  3.261405 -0.342209
      ESP Fit Center  421 is at   5.409463  1.729962 -1.089879
      ESP Fit Center  422 is at   5.221854  2.491122 -1.089879
      ESP Fit Center  423 is at   4.702005  3.077910 -1.089879
      ESP Fit Center  424 is at   3.969008  3.355899 -1.089879
      ESP Fit Center  425 is at   3.190784  3.261405 -1.089879
      ESP Fit Center  426 is at   5.085061  1.729962 -1.763507
      ESP Fit Center  427 is at   4.834209  2.502004 -1.763507
      ESP Fit Center  428 is at   4.177471  2.979153 -1.763507
      ESP Fit Center  429 is at   3.365697  2.979153 -1.763507
      ESP Fit Center  430 is at   4.834209  0.957920 -1.763507
      ESP Fit Center  431 is at   4.500509  1.729962 -2.229672
      ESP Fit Center  432 is at   4.136046  2.361229 -2.229672
      ESP Fit Center  433 is at   3.407122  2.361229 -2.229672
      ESP Fit Center  434 is at   4.136046  1.098695 -2.229672
      ESP Fit Center  435 is at   3.771584  1.729962 -2.396044
      ESP Fit Center  436 is at   3.027297 -2.185230  2.575198
      ESP Fit Center  437 is at   3.756222 -2.185230  2.408826
      ESP Fit Center  438 is at   2.298372 -2.185230  2.408826
      ESP Fit Center  439 is at   2.662835 -2.816497  2.408826
      ESP Fit Center  440 is at   3.391759 -2.816497  2.408826
      ESP Fit Center  441 is at   4.340774 -2.185230  1.942661
      ESP Fit Center  442 is at   1.964672 -2.957272  1.942661
      ESP Fit Center  443 is at   2.621410 -3.434421  1.942661
      ESP Fit Center  444 is at   3.433184 -3.434421  1.942661
      ESP Fit Center  445 is at   4.089922 -2.957272  1.942661
      ESP Fit Center  446 is at   1.801327 -3.271345  1.269033
      ESP Fit Center  447 is at   2.446497 -3.716673  1.269033
      ESP Fit Center  448 is at   3.224721 -3.811167  1.269033
      ESP Fit Center  449 is at   3.957718 -3.533178  1.269033
      ESP Fit Center  450 is at   4.477567 -2.946390  1.269033
      ESP Fit Center  451 is at   1.801327 -3.271345  0.521363
      ESP Fit Center  452 is at   2.446497 -3.716673  0.521363
      ESP Fit Center  453 is at   3.224721 -3.811167  0.521363
      ESP Fit Center  454 is at   3.957718 -3.533178  0.521363
      ESP Fit Center  455 is at   4.477567 -2.946390  0.521363
      ESP Fit Center  456 is at   2.621410 -3.434421 -0.152265
      ESP Fit Center  457 is at   3.433184 -3.434421 -0.152265
      ESP Fit Center  458 is at   4.089922 -2.957272 -0.152265
      ESP Fit Center  459 is at   0.586207 -1.776254  2.441709
      ESP Fit Center  460 is at   0.221745 -1.144987  2.275337
      ESP Fit Center  461 is at  -0.142718 -1.776254  2.275337
      ESP Fit Center  462 is at   0.221745 -2.407521  2.275337
      ESP Fit Center  463 is at   0.950669 -2.407521  2.275337
      ESP Fit Center  464 is at  -0.476418 -1.004212  1.809172
      ESP Fit Center  465 is at  -0.727270 -1.776254  1.809172
      ESP Fit Center  466 is at  -0.476418 -2.548296  1.809172
      ESP Fit Center  467 is at   0.180320 -3.025445  1.809172
      ESP Fit Center  468 is at   0.992094 -3.025445  1.809172
      ESP Fit Center  469 is at  -1.004078 -2.168224  1.135544
      ESP Fit Center  470 is at  -0.639763 -2.862369  1.135544
      ESP Fit Center  471 is at   0.005407 -3.307697  1.135544
      ESP Fit Center  472 is at   0.783631 -3.402191  1.135544
      ESP Fit Center  473 is at   1.516628 -3.124202  1.135544
      ESP Fit Center  474 is at   0.005407 -3.307697  0.387874
      ESP Fit Center  475 is at   0.783631 -3.402191  0.387874
      ESP Fit Center  476 is at   1.516628 -3.124202  0.387874
      ESP Fit Center  477 is at   0.180320 -3.025445 -0.285754
      ESP Fit Center  478 is at   0.992094 -3.025445 -0.285754
      ESP Fit Center  479 is at  -1.357228  3.419699  2.448563
      ESP Fit Center  480 is at  -0.992766  4.050966  2.282191
      ESP Fit Center  481 is at  -1.721690  4.050966  2.282191
      ESP Fit Center  482 is at  -2.086153  3.419699  2.282191
      ESP Fit Center  483 is at  -0.951341  4.668890  1.816026
      ESP Fit Center  484 is at  -1.763115  4.668890  1.816026
      ESP Fit Center  485 is at  -2.419853  4.191741  1.816026
      ESP Fit Center  486 is at  -2.670705  3.419699  1.816026
      ESP Fit Center  487 is at  -2.419853  2.647657  1.816026
      ESP Fit Center  488 is at  -0.426807  4.767647  1.142398
      ESP Fit Center  489 is at  -1.159804  5.045636  1.142398
      ESP Fit Center  490 is at  -1.938028  4.951142  1.142398
      ESP Fit Center  491 is at  -2.583198  4.505814  1.142398
      ESP Fit Center  492 is at  -2.947513  3.811669  1.142398
      ESP Fit Center  493 is at  -0.426807  4.767647  0.394728
      ESP Fit Center  494 is at  -1.159804  5.045636  0.394728
      ESP Fit Center  495 is at  -1.938028  4.951142  0.394728
      ESP Fit Center  496 is at  -2.583198  4.505814  0.394728
      ESP Fit Center  497 is at  -2.947513  3.811669  0.394728
      ESP Fit Center  498 is at  -0.951341  4.668890 -0.278900
      ESP Fit Center  499 is at  -1.763115  4.668890 -0.278900
      ESP Fit Center  500 is at  -2.419853  4.191741 -0.278900
      ESP Fit Center  501 is at  -1.721690  4.050966 -0.745065
      ESP Fit Center  502 is at  -3.595523  3.359048  0.334180
      ESP Fit Center  503 is at  -4.252261  2.881899  0.334180
      ESP Fit Center  504 is at  -2.992212  3.735794 -0.339448
      ESP Fit Center  505 is at  -3.770436  3.641300 -0.339448
      ESP Fit Center  506 is at  -4.415606  3.195972 -0.339448
      ESP Fit Center  507 is at  -4.779921  2.501827 -0.339448
      ESP Fit Center  508 is at  -2.259215  3.457805 -1.087118
      ESP Fit Center  509 is at  -2.992212  3.735794 -1.087118
      ESP Fit Center  510 is at  -3.770436  3.641300 -1.087118
      ESP Fit Center  511 is at  -4.415606  3.195972 -1.087118
      ESP Fit Center  512 is at  -4.779921  2.501827 -1.087118
      ESP Fit Center  513 is at  -4.779921  1.717887 -1.087118
      ESP Fit Center  514 is at  -2.127011  2.881899 -1.760746
      ESP Fit Center  515 is at  -2.783749  3.359048 -1.760746
      ESP Fit Center  516 is at  -3.595523  3.359048 -1.760746
      ESP Fit Center  517 is at  -4.252261  2.881899 -1.760746
      ESP Fit Center  518 is at  -4.503113  2.109857 -1.760746
      ESP Fit Center  519 is at  -4.252261  1.337815 -1.760746
      ESP Fit Center  520 is at  -2.460711  2.109857 -2.226911
      ESP Fit Center  521 is at  -2.825174  2.741124 -2.226911
      ESP Fit Center  522 is at  -3.554098  2.741124 -2.226911
      ESP Fit Center  523 is at  -3.918561  2.109857 -2.226911
      ESP Fit Center  524 is at  -3.554098  1.478590 -2.226911
      ESP Fit Center  525 is at  -2.825174  1.478590 -2.226911
      ESP Fit Center  526 is at  -3.189636  2.109857 -2.393283
      ESP Fit Center  527 is at  -3.296856  1.408613  2.601507
      ESP Fit Center  528 is at  -2.567931  1.408613  2.435135
      ESP Fit Center  529 is at  -2.932394  2.039880  2.435135
      ESP Fit Center  530 is at  -3.661318  2.039880  2.435135
      ESP Fit Center  531 is at  -4.025781  1.408613  2.435135
      ESP Fit Center  532 is at  -3.661318  0.777346  2.435135
      ESP Fit Center  533 is at  -2.932394  0.777346  2.435135
      ESP Fit Center  534 is at  -2.234231  2.180655  1.968970
      ESP Fit Center  535 is at  -2.890969  2.657804  1.968970
      ESP Fit Center  536 is at  -3.702743  2.657804  1.968970
      ESP Fit Center  537 is at  -4.359481  2.180655  1.968970
      ESP Fit Center  538 is at  -4.610333  1.408613  1.968970
      ESP Fit Center  539 is at  -2.890969  0.159422  1.968970
      ESP Fit Center  540 is at  -2.234231  0.636571  1.968970
      ESP Fit Center  541 is at  -3.099432  3.034550  1.295342
      ESP Fit Center  542 is at  -3.877656  2.940056  1.295342
      ESP Fit Center  543 is at  -4.522826  2.494728  1.295342
[...]
 2887 Fit      -0.013664
 2888 Fit      -0.010857
 2889 Fit      -0.006939
 2890 Fit      -0.001747
 2891 Fit       0.004601
 2892 Fit      -0.008423
 2893 Fit      -0.005803
 2894 Fit      -0.001599
 2895 Fit       0.003971
 2896 Fit      -0.004260
 2897 Fit      -0.002864
 2898 Fit       0.000703
 2899 Fit       0.005904
 2900 Fit       0.012243
 2901 Fit       0.000675
 2902 Fit       0.003892
 2903 Fit       0.008902
 2904 Fit       0.015016
 2905 Fit       0.003646
 2906 Fit       0.004936
 2907 Fit       0.009043
 2908 Fit       0.014813
 2909 Fit       0.021573
 2910 Fit       0.006966
 2911 Fit       0.009816
 2912 Fit       0.015092
 2913 Fit       0.021951
 2914 Fit       0.009794
 2915 Fit       0.012273
 2916 Fit       0.017922
 2917 Fit       0.012835
 2918 Fit       0.016962
 2919 Fit       0.032005
 2920 Fit       0.028506
 2921 Fit       0.031908
 2922 Fit       0.029153
 2923 Fit       0.026672
 2924 Fit       0.023881
 2925 Fit       0.028268
 2926 Fit       0.027130
 2927 Fit       0.024630
 2928 Fit       0.022249
 2929 Fit       0.031365
 2930 Fit       0.018653
 2931 Fit       0.022285
 2932 Fit       0.025497
 2933 Fit       0.012422
 2934 Fit       0.016945
 2935 Fit       0.021065
 2936 Fit       0.011672
 2937 Fit       0.016779
 2938 Fit       0.011972
 2939 Fit       0.008513
 2940 Fit       0.006114
 2941 Fit       0.001326
 2942 Fit      -0.004081
 2943 Fit       0.003409
 2944 Fit       0.010061
 2945 Fit       0.014794
 2946 Fit      -0.000009
 2947 Fit       0.007397
 2948 Fit       0.011479
 2949 Fit       0.010161
 2950 Fit       0.004558
 2951 Fit      -0.001787
 2952 Fit      -0.004337
 2953 Fit      -0.006404
 2954 Fit      -0.005292
 2955 Fit      -0.006789
 2956 Fit      -0.009577
 2957 Fit      -0.009750
 2958 Fit      -0.006790
 2959 Fit      -0.011094
 2960 Fit      -0.012893
 2961 Fit      -0.012626
 2962 Fit      -0.008420
 2963 Fit      -0.012999
 2964 Fit      -0.015175
 2965 Fit      -0.015673
 2966 Fit      -0.014854
 2967 Fit      -0.008176
 2968 Fit      -0.013525
 2969 Fit      -0.016400
 2970 Fit      -0.017756
 2971 Fit      -0.018172
 2972 Fit      -0.018262
 2973 Fit      -0.005552
 2974 Fit      -0.012270
 2975 Fit      -0.016146
 2976 Fit      -0.018351
 2977 Fit      -0.019582
 2978 Fit      -0.020373
 2979 Fit      -0.006123
 2980 Fit      -0.012655
 2981 Fit      -0.016542
 2982 Fit      -0.018817
 2983 Fit      -0.020130
 2984 Fit      -0.020863
 2985 Fit      -0.021027
 2986 Fit      -0.016804
 2987 Fit      -0.012181
 2988 Fit      -0.004216
 2989 Fit      -0.011218
 2990 Fit      -0.015538
 2991 Fit      -0.017959
 2992 Fit      -0.019028
 2993 Fit      -0.018816
 2994 Fit      -0.013714
 2995 Fit      -0.008423
 2996 Fit       0.007091
 2997 Fit       0.000246
 2998 Fit      -0.007373
 2999 Fit      -0.012803
 3000 Fit      -0.015592
 3001 Fit      -0.015979
 3002 Fit      -0.010314
 3003 Fit      -0.004182
 3004 Fit       0.000652
 3005 Fit      -0.000749
 3006 Fit      -0.007216
 3007 Fit      -0.011615
 3008 Fit      -0.006199
 3009 Fit       0.016341
 3010 Fit       0.021738
 3011 Fit       0.020245
 3012 Fit       0.019326
 3013 Fit       0.021601
 3014 Fit       0.021475
 3015 Fit       0.021016
 3016 Fit       0.010229
 3017 Fit       0.017362
 3018 Fit       0.021704
 3019 Fit       0.021208
 3020 Fit       0.017496
 3021 Fit       0.021431
 3022 Fit      -0.002987
 3023 Fit      -0.003787
 3024 Fit      -0.003699
 3025 Fit       0.019407
 3026 Fit      -0.000424
 3027 Fit       0.000439
 3028 Fit      -0.000582
 3029 Fit       0.023602
 3030 Fit       0.016452
 3031 Fit       0.010741
 3032 Fit       0.002219
 3033 Fit       0.004018
 3034 Fit       0.005695
 3035 Fit       0.019614
 3036 Fit       0.014851
 3037 Fit       0.011302
 3038 Fit       0.008964
 3039 Fit       0.007797
 3040 Fit       0.007699
 3041 Fit       0.008505
 3042 Fit       0.010002
 3043 Fit       0.011907
 3044 Fit       0.019979
 3045 Fit       0.017036
 3046 Fit       0.015615
 3047 Fit       0.015585
 3048 Fit      -0.016347
 3049 Fit      -0.014225
 3050 Fit      -0.013631
 3051 Fit      -0.015578
 3052 Fit      -0.017760
 3053 Fit      -0.018051
 3054 Fit      -0.016426
 3055 Fit      -0.011412
 3056 Fit      -0.009823
 3057 Fit      -0.009724
 3058 Fit      -0.011416
 3059 Fit      -0.014091
 3060 Fit      -0.016654
 3061 Fit      -0.018423
 3062 Fit      -0.019141
 3063 Fit      -0.018836
 3064 Fit      -0.017683
 3065 Fit      -0.015882
 3066 Fit      -0.013658
 3067 Fit      -0.007827
 3068 Fit      -0.005509
 3069 Fit      -0.004102
 3070 Fit      -0.004420
 3071 Fit      -0.006595
 3072 Fit      -0.009743
 3073 Fit      -0.012924
 3074 Fit      -0.015621
 3075 Fit      -0.017607
 3076 Fit      -0.018808
 3077 Fit      -0.019241
 3078 Fit      -0.018987
 3079 Fit      -0.018160
 3080 Fit      -0.016860
 3081 Fit      -0.015131
 3082 Fit      -0.012972
 3083 Fit      -0.010450
 3084 Fit      -0.003197
 3085 Fit       0.000049
 3086 Fit       0.002849
 3087 Fit       0.004140
 3088 Fit       0.002687
 3089 Fit      -0.000931
 3090 Fit      -0.005151
 3091 Fit      -0.009051
 3092 Fit      -0.012321
 3093 Fit      -0.014887
 3094 Fit      -0.016746
 3095 Fit      -0.017921
 3096 Fit      -0.018458
 3097 Fit      -0.018429
 3098 Fit      -0.017920
 3099 Fit      -0.017019
 3100 Fit      -0.015783
 3101 Fit      -0.014209
 3102 Fit      -0.012207
 3103 Fit      -0.009643
 3104 Fit      -0.006537
 3105 Fit       0.003091
 3106 Fit       0.007584
 3107 Fit       0.006280
 3108 Fit       0.000536
 3109 Fit      -0.004231
 3110 Fit      -0.008073
 3111 Fit      -0.011114
 3112 Fit      -0.013452
 3113 Fit      -0.015156
 3114 Fit      -0.016280
 3115 Fit      -0.016877
 3116 Fit      -0.017004
 3117 Fit      -0.016728
 3118 Fit      -0.016115
 3119 Fit      -0.015227
 3120 Fit      -0.014103
 3121 Fit      -0.012734
 3122 Fit      -0.011020
 3123 Fit      -0.008722
 3124 Fit      -0.005531
 3125 Fit      -0.001419
 3126 Fit       0.010606
 3127 Fit       0.003626
 3128 Fit      -0.001617
 3129 Fit      -0.005643
 3130 Fit      -0.008748
 3131 Fit      -0.011104
 3132 Fit      -0.012820
 3133 Fit      -0.013970
 3134 Fit      -0.014615
 3135 Fit      -0.014811
 3136 Fit      -0.014620
 3137 Fit      -0.014101
 3138 Fit      -0.013312
 3139 Fit      -0.012306
 3140 Fit      -0.011119
 3141 Fit      -0.009740
 3142 Fit      -0.008027
 3143 Fit      -0.005530
 3144 Fit       0.011500
 3145 Fit       0.004773
 3146 Fit      -0.000213
 3147 Fit      -0.003985
 3148 Fit      -0.006841
 3149 Fit      -0.008958
 3150 Fit      -0.010448
 3151 Fit      -0.011391
 3152 Fit      -0.011850
 3153 Fit      -0.011881
 3154 Fit      -0.011539
 3155 Fit      -0.010874
 3156 Fit      -0.009938
 3157 Fit      -0.008792
 3158 Fit      -0.007512
 3159 Fit      -0.006189
 3160 Fit       0.015469
 3161 Fit       0.008258
 3162 Fit       0.002973
 3163 Fit      -0.000948
 3164 Fit      -0.003836
 3165 Fit      -0.005896
 3166 Fit      -0.007259
 3167 Fit      -0.008016
 3168 Fit      -0.008236
 3169 Fit      -0.007972
 3170 Fit      -0.007267
 3171 Fit      -0.006161
 3172 Fit      -0.004710
 3173 Fit       0.010286
 3174 Fit       0.005244
 3175 Fit       0.001609
 3176 Fit      -0.000920
 3177 Fit      -0.002534
 3178 Fit      -0.003358
 3179 Fit      -0.003469
 3180 Fit      -0.002907
 3181 Fit      -0.001681
 3182 Fit       0.005791
 3183 Fit       0.003657
 3184 Fit       0.002812
 3185 Fit      -0.010697
 3186 Fit      -0.010926
 3187 Fit      -0.011374
 3188 Fit      -0.011234
 3189 Fit      -0.010190
 3190 Fit      -0.009351
 3191 Fit      -0.010123
 3192 Fit      -0.010677
 3193 Fit      -0.011171
 3194 Fit      -0.011535
 3195 Fit      -0.011680
 3196 Fit      -0.011754
 3197 Fit      -0.011433
 3198 Fit      -0.009929
 3199 Fit      -0.007696
 3200 Fit      -0.007062
 3201 Fit      -0.008276
 3202 Fit      -0.009532
 3203 Fit      -0.010210
 3204 Fit      -0.009974
 3205 Fit      -0.010452
 3206 Fit      -0.010957
 3207 Fit      -0.011277
 3208 Fit      -0.011404
 3209 Fit      -0.011645
 3210 Fit      -0.012305
 3211 Fit      -0.013022
 3212 Fit      -0.005572
 3213 Fit      -0.007740
 3214 Fit      -0.008978
 3215 Fit      -0.009468
 3216 Fit      -0.009678
 3217 Fit      -0.008983
 3218 Fit      -0.009457
 3219 Fit      -0.010041
 3220 Fit      -0.010505
 3221 Fit      -0.010680
 3222 Fit      -0.010623
 3223 Fit      -0.010736
 3224 Fit      -0.011653
 3225 Fit      -0.004561
 3226 Fit      -0.007169
 3227 Fit      -0.008426
 3228 Fit      -0.008803
 3229 Fit      -0.008785
 3230 Fit      -0.008769
 3231 Fit      -0.007945
 3232 Fit      -0.008430
 3233 Fit      -0.009075
 3234 Fit      -0.009621
 3235 Fit      -0.009821
 3236 Fit      -0.009574
 3237 Fit      -0.009093
 3238 Fit      -0.009082
 3239 Fit      -0.002344
 3240 Fit      -0.006066
 3241 Fit      -0.007822
 3242 Fit      -0.008360
 3243 Fit      -0.008247
 3244 Fit      -0.007941
 3245 Fit      -0.007781
 3246 Fit      -0.007106
 3247 Fit      -0.007555
 3248 Fit      -0.008181
 3249 Fit      -0.008736
 3250 Fit      -0.008947
 3251 Fit      -0.008593
 3252 Fit      -0.007625
 3253 Fit      -0.006344
 3254 Fit      -0.005391
 3255 Fit      -0.007491
 3256 Fit      -0.008226
 3257 Fit      -0.008149
 3258 Fit      -0.007696
 3259 Fit      -0.007225
 3260 Fit      -0.006988
 3261 Fit      -0.006656
 3262 Fit      -0.007054
 3263 Fit      -0.007623
 3264 Fit      -0.008097
 3265 Fit      -0.008161
 3266 Fit      -0.007507
 3267 Fit      -0.005896
 3268 Fit      -0.003273
 3269 Fit      -0.003769
 3270 Fit      -0.006803
 3271 Fit      -0.008190
 3272 Fit      -0.008487
 3273 Fit      -0.008129
 3274 Fit      -0.007496
 3275 Fit      -0.006909
 3276 Fit      -0.006595
 3277 Fit      -0.006684
 3278 Fit      -0.006986
 3279 Fit      -0.007426
 3280 Fit      -0.007716
 3281 Fit      -0.007498
 3282 Fit      -0.006371
 3283 Fit      -0.003884
 3284 Fit      -0.005881
 3285 Fit      -0.007947
 3286 Fit      -0.008879
 3287 Fit      -0.008943
 3288 Fit      -0.008452
 3289 Fit      -0.007733
 3290 Fit      -0.007078
 3291 Fit      -0.006698
 3292 Fit      -0.007159
 3293 Fit      -0.007319
 3294 Fit      -0.007553
 3295 Fit      -0.007545
 3296 Fit      -0.006892
 3297 Fit      -0.005091
 3298 Fit      -0.001440
 3299 Fit      -0.007674
 3300 Fit      -0.008966
 3301 Fit      -0.009623
 3302 Fit      -0.009612
 3303 Fit      -0.009112
 3304 Fit      -0.008389
 3305 Fit      -0.007708
 3306 Fit      -0.007270
 3307 Fit      -0.007940
 3308 Fit      -0.007911
 3309 Fit      -0.007847
 3310 Fit      -0.007351
 3311 Fit      -0.005906
 3312 Fit      -0.002832
 3313 Fit      -0.009415
 3314 Fit      -0.009785
 3315 Fit      -0.010296
 3316 Fit      -0.010413
 3317 Fit      -0.010057
 3318 Fit      -0.009401
 3319 Fit      -0.008700
 3320 Fit      -0.008180
 3321 Fit      -0.008809
 3322 Fit      -0.008537
 3323 Fit      -0.008090
 3324 Fit      -0.007037
 3325 Fit      -0.004855
 3326 Fit      -0.001010
 3327 Fit      -0.011902
 3328 Fit      -0.011022
 3329 Fit      -0.010988
 3330 Fit      -0.011068
 3331 Fit      -0.010872
 3332 Fit      -0.010370
 3333 Fit      -0.009738
 3334 Fit      -0.009183
 3335 Fit      -0.009530
 3336 Fit      -0.008941
 3337 Fit      -0.007950
 3338 Fit      -0.006098
 3339 Fit      -0.003220
 3340 Fit      -0.012700
 3341 Fit      -0.011827
 3342 Fit      -0.011511
 3343 Fit      -0.011430
 3344 Fit      -0.011172
 3345 Fit      -0.010666
 3346 Fit      -0.010074
 3347 Fit      -0.009920
 3348 Fit      -0.008897
 3349 Fit      -0.007240
 3350 Fit      -0.005329
 3351 Fit      -0.010643
 3352 Fit      -0.011482
 3353 Fit      -0.011483
 3354 Fit      -0.011414
 3355 Fit      -0.011186
 3356 Fit      -0.010652
 3357 Fit      -0.009929
 3358 Fit      -0.008506
 3359 Fit      -0.007995
 3360 Fit      -0.009700
 3361 Fit      -0.010733
 3362 Fit      -0.010733
 3363 Fit      -0.009711
 3364 Fit      -0.006273
 3365 Fit       0.000831
 3366 Fit       0.007620
 3367 Fit       0.005094
 3368 Fit       0.003399
 3369 Fit       0.008769
 3370 Fit       0.007420
 3371 Fit       0.006784
 3372 Fit       0.006762
 3373 Fit       0.009188
 3374 Fit       0.008701
 3375 Fit       0.008742
 3376 Fit       0.009497
 3377 Fit       0.011390
 3378 Fit       0.008544
 3379 Fit       0.009436
 3380 Fit       0.010845
 3381 Fit       0.012333
 3382 Fit       0.007357
 3383 Fit       0.008857
 3384 Fit      -0.003489
 3385 Fit      -0.002306
 3386 Fit      -0.001963
 3387 Fit       0.000305
 3388 Fit       0.001070
 3389 Fit       0.000529
 3390 Fit      -0.000019
 3391 Fit       0.002421
 3392 Fit       0.003629
 3393 Fit       0.003937
 3394 Fit       0.003522
 3395 Fit       0.001693
 3396 Fit       0.004044
 3397 Fit       0.005427
 3398 Fit       0.006219
 3399 Fit       0.006877
 3400 Fit      -0.000194
 3401 Fit       0.003048
 3402 Fit       0.005188
 3403 Fit       0.006608
 3404 Fit       0.007704
 3405 Fit       0.009111
 3406 Fit       0.001658
 3407 Fit       0.004470
 3408 Fit       0.006367
 3409 Fit       0.007775
 3410 Fit       0.009306
 3411 Fit      -0.000566
 3412 Fit       0.002971
 3413 Fit       0.005401
 3414 Fit       0.006880
 3415 Fit       0.000368
 3416 Fit       0.003436
 3417 Fit       0.001443
 3418 Fit       0.000254
 3419 Fit       0.003772
 3420 Fit       0.003232
 3421 Fit       0.001716
 3422 Fit      -0.001137
 3423 Fit       0.005667
 3424 Fit       0.004732
 3425 Fit       0.003872
 3426 Fit       0.002465
 3427 Fit       0.000019
 3428 Fit       0.005548
 3429 Fit       0.004618
 3430 Fit       0.003919
 3431 Fit       0.002800
 3432 Fit       0.000823
 3433 Fit       0.003885
 3434 Fit       0.003454
 3435 Fit       0.002934
 3436 Fit       0.001756
 3437 Fit      -0.000534
 3438 Fit       0.001147
 3439 Fit       0.001493
 3440 Fit       0.001353
 3441 Fit       0.000318
 3442 Fit      -0.002054
 3443 Fit      -0.001640
 3444 Fit      -0.000992
 3445 Fit      -0.001532
 3446 Fit      -0.003569
 3447 Fit      -0.004581
 3448 Fit       0.002659
 3449 Fit       0.002860
 3450 Fit       0.004869
 3451 Fit       0.003844
 3452 Fit       0.003223
 3453 Fit       0.003671
 3454 Fit       0.004388
 3455 Fit       0.006666
 3456 Fit       0.003223
 3457 Fit       0.002054
 3458 Fit       0.002567
 3459 Fit       0.003907
 3460 Fit       0.005863
 3461 Fit      -0.000931
 3462 Fit      -0.000814
 3463 Fit       0.000648
 3464 Fit       0.002671
 3465 Fit       0.005416
 3466 Fit      -0.005399
 3467 Fit      -0.002388
 3468 Fit       0.000677
 3469 Fit      -0.008007
 3470 Fit      -0.003681
 3471 Fit      -0.011259
 3472 Fit       0.011959
 3473 Fit       0.016720
 3474 Fit       0.019603
 3475 Fit       0.012527
 3476 Fit       0.017410
 3477 Fit       0.021197
 3478 Fit       0.024355
 3479 Fit       0.008414
 3480 Fit       0.014153
 3481 Fit       0.018734
 3482 Fit       0.022561
 3483 Fit       0.026029
 3484 Fit       0.029657
 3485 Fit       0.013966
 3486 Fit       0.018935
 3487 Fit       0.023188
 3488 Fit       0.027175
 3489 Fit       0.031461
 3490 Fit       0.014649
 3491 Fit       0.019795
 3492 Fit       0.024384
 3493 Fit       0.028967
 3494 Fit       0.034306
 3495 Fit       0.016400
 3496 Fit       0.021640
 3497 Fit       0.026703
 3498 Fit       0.032404
 3499 Fit       0.022906
 3500 Fit       0.029588
 3501 Fit       0.034313
 3502 Fit       0.031279
 3503 Fit       0.032278
 3504 Fit       0.030326
 3505 Fit       0.029264
 3506 Fit       0.029018
 3507 Fit       0.030555
 3508 Fit       0.029839
 3509 Fit       0.029191
 3510 Fit       0.028967
 3511 Fit       0.029490
 3512 Fit       0.031473
 3513 Fit       0.026950
 3514 Fit       0.028033
 3515 Fit       0.028344
 3516 Fit       0.028577
 3517 Fit       0.029211
 3518 Fit       0.030852
 3519 Fit       0.034679
 3520 Fit       0.023666
 3521 Fit       0.025503
 3522 Fit       0.026868
 3523 Fit       0.027739
 3524 Fit       0.028680
 3525 Fit       0.030436
 3526 Fit       0.034194
 3527 Fit       0.024342
 3528 Fit       0.025384
 3529 Fit       0.026755
 3530 Fit       0.028177
 3531 Fit       0.030422
 3532 Fit       0.024865
 3533 Fit       0.025662
 3534 Fit       0.027293
 3535 Fit       0.029368
 3536 Fit       0.026685
 3537 Fit       0.010618
 3538 Fit       0.012022
 3539 Fit       0.014410
 3540 Fit       0.013514
 3541 Fit       0.007955
 3542 Fit       0.008965
 3543 Fit       0.018484
 3544 Fit       0.018974
 3545 Fit       0.015632
 3546 Fit       0.009181
 3547 Fit       0.008417
 3548 Fit       0.025306
 3549 Fit       0.022231
 3550 Fit       0.018035
 3551 Fit       0.012000
 3552 Fit       0.027869
 3553 Fit       0.023581
 3554 Fit       0.019098
 3555 Fit       0.012992
 3556 Fit       0.024795
 3557 Fit       0.020214
 3558 Fit       0.032687
 3559 Fit       0.027035
 3560 Fit       0.022871
 3561 Fit       0.031727
 3562 Fit       0.027670
 3563 Fit       0.024672
 3564 Fit       0.022534
 3565 Fit       0.021289
 3566 Fit       0.021104
 3567 Fit       0.032412
 3568 Fit       0.029257
 3569 Fit       0.026713
 3570 Fit       0.024760
 3571 Fit       0.023402
 3572 Fit       0.022704
 3573 Fit       0.022757
 3574 Fit       0.030777
 3575 Fit       0.029221
 3576 Fit       0.027258
 3577 Fit       0.025515
 3578 Fit       0.024208
 3579 Fit       0.023451
 3580 Fit       0.023295
 3581 Fit       0.026595
 3582 Fit       0.027391
 3583 Fit       0.026438
 3584 Fit       0.025062
 3585 Fit       0.023948
 3586 Fit       0.023294
 3587 Fit       0.022435
 3588 Fit       0.024495
 3589 Fit       0.025172
 3590 Fit       0.024229
 3591 Fit       0.023157
 3592 Fit       0.022188
 3593 Fit       0.023570
 3594 Fit       0.003046
 3595 Fit       0.011082
 3596 Fit       0.007826
 3597 Fit       0.002581
 3598 Fit       0.013293
 3599 Fit       0.009426
 3600 Fit       0.003765
 3601 Fit       0.015926
 3602 Fit       0.012026
 3603 Fit       0.006909
 3604 Fit      -0.000756
 3605 Fit       0.018462
 3606 Fit       0.014050
 3607 Fit       0.008665
 3608 Fit       0.001071
 3609 Fit       0.017898
 3610 Fit       0.012381
 3611 Fit       0.005666
 3612 Fit       0.016636
 3613 Fit       0.010909
 -----------------------------------------------------------------
 Leave Link  602 at Thu Jan 16 21:51:06 2014, MaxMem=   235929600 cpu:         1.6

 Test job not archived.
 1\1\GINC-G60\SP\RHF\Gen\C11H9Cl1N4O1\KOLAR\16-Jan-2014\0\\# hf/gen pop
 =mk iop(6/33=2,6/41=5,6/42=2)\\na resp\\0,1\C,0,1.698989,1.193078,-0.4
 78282\C,0,3.0711,0.966246,-0.396313\C,0,3.537842,-0.25149,0.094958\C,0
 ,2.651698,-1.242466,0.51278\C,0,1.280129,-1.008926,0.443064\C,0,0.8011
 47,0.20675,-0.057061\N,0,-0.607909,0.432357,-0.139406\C,0,-1.266136,1.
 626074,0.183006\N,0,-0.677276,2.681562,0.575449\C,0,-2.754632,1.365761
 ,-0.034032\N,0,-2.767134,0.033373,-0.604344\C,0,-1.512912,-0.552767,-0
 .584481\O,0,-1.25447,-1.695255,-0.905279\C,0,-3.954421,-0.771714,-0.77
 6668\C,0,-4.699026,-0.963626,0.485319\N,0,-5.273881,-1.067636,1.487952
 \Cl,0,5.269486,-0.540233,0.191701\H,0,1.329345,2.140697,-0.847224\H,0,
 3.771584,1.729962,-0.716044\H,0,3.027297,-2.18523,0.895198\H,0,0.58620
 7,-1.776254,0.761709\H,0,-1.357228,3.419699,0.768563\H,0,-3.189636,2.1
 09857,-0.713283\H,0,-3.296856,1.408613,0.921507\H,0,-4.628347,-0.31862
 6,-1.514547\H,0,-3.627121,-1.741836,-1.163853\\Version=AM64L-G09RevD.0
 1\State=1-A\HF=-1173.9374525\RMSD=4.073e-09\Dipole=-1.2788029,1.223711
 7,-0.9735089\Quadrupole=-4.9350182,5.3509755,-0.4159573,-7.8428696,10.
 4163272,-2.2046127\PG=C01 [X(C11H9Cl1N4O1)]\\@


 IF THE FACTS DO NOT CONFORM TO THE THEORY, THEY MUST BE DISPOSED OF.
 Job cpu time:       0 days  0 hours  4 minutes 11.8 seconds.
 File lengths (MBytes):  RWF=     38 Int=      0 D2E=      0 Chk=      3 Scr=      1
 Normal termination of Gaussian 09 at Thu Jan 16 21:51:06 2014.
251.37user 0.46system 4:19.23elapsed 97%CPU (0avgtext+0avgdata 603392maxresident)k
17864inputs+200240outputs (3major+171961minor)pagefaults 0swaps
