Linux g33 2.6.38.6-client #1 SMP Tue Jun 12 11:27:21 CEST 2012 x86_64 GNU/Linux
Thu Jan 16 22:36:46 CET 2014

 Entering Gaussian System, Link 0=/usr/local/programs/common/gaussian/gaussian09_d01/arch/amd64-pgi_10.4.0-acml/g09/g09
 Initial command:
 /usr/local/programs/common/gaussian/gaussian09_d01/arch/amd64-pgi_10.4.0-acml/g09/l1.exe "/scratch/kolar/g09_26078/Gau-1876.inp" -scrdir="/scratch/kolar/g09_26078/"
 Entering Link 1 = /usr/local/programs/common/gaussian/gaussian09_d01/arch/amd64-pgi_10.4.0-acml/g09/l1.exe PID=      1881.
  
 Copyright (c) 1988,1990,1992,1993,1995,1998,2003,2009,2013,
            Gaussian, Inc.  All Rights Reserved.
  
 This is part of the Gaussian(R) 09 program.  It is based on
 the Gaussian(R) 03 system (copyright 2003, Gaussian, Inc.),
 the Gaussian(R) 98 system (copyright 1998, Gaussian, Inc.),
 the Gaussian(R) 94 system (copyright 1995, Gaussian, Inc.),
 the Gaussian 92(TM) system (copyright 1992, Gaussian, Inc.),
 the Gaussian 90(TM) system (copyright 1990, Gaussian, Inc.),
 the Gaussian 88(TM) system (copyright 1988, Gaussian, Inc.),
 the Gaussian 86(TM) system (copyright 1986, Carnegie Mellon
 University), and the Gaussian 82(TM) system (copyright 1983,
 Carnegie Mellon University). Gaussian is a federally registered
 trademark of Gaussian, Inc.
  
 This software contains proprietary and confidential information,
 including trade secrets, belonging to Gaussian, Inc.
  
 This software is provided under written license and may be
 used, copied, transmitted, or stored only in accord with that
 written license.
  
 The following legend is applicable only to US Government
 contracts under FAR:
  
                    RESTRICTED RIGHTS LEGEND
  
 Use, reproduction and disclosure by the US Government is
 subject to restrictions as set forth in subparagraphs (a)
 and (c) of the Commercial Computer Software - Restricted
 Rights clause in FAR 52.227-19.
  
 Gaussian, Inc.
 340 Quinnipiac St., Bldg. 40, Wallingford CT 06492
  
  
 ---------------------------------------------------------------
 Warning -- This program may not be used in any manner that
 competes with the business of Gaussian, Inc. or will provide
 assistance to any competitor of Gaussian, Inc.  The licensee
 of this program is prohibited from giving any competitor of
 Gaussian, Inc. access to this program.  By using this program,
 the user acknowledges that Gaussian, Inc. is engaged in the
 business of creating and licensing software in the field of
 computational chemistry and represents and warrants to the
 licensee that it is not a competitor of Gaussian, Inc. and that
 it will not use this program in any manner prohibited above.
 ---------------------------------------------------------------
  

 Cite this work as:
 Gaussian 09, Revision D.01,
 M. J. Frisch, G. W. Trucks, H. B. Schlegel, G. E. Scuseria, 
 M. A. Robb, J. R. Cheeseman, G. Scalmani, V. Barone, B. Mennucci, 
 G. A. Petersson, H. Nakatsuji, M. Caricato, X. Li, H. P. Hratchian, 
 A. F. Izmaylov, J. Bloino, G. Zheng, J. L. Sonnenberg, M. Hada, 
 M. Ehara, K. Toyota, R. Fukuda, J. Hasegawa, M. Ishida, T. Nakajima, 
 Y. Honda, O. Kitao, H. Nakai, T. Vreven, J. A. Montgomery, Jr., 
 J. E. Peralta, F. Ogliaro, M. Bearpark, J. J. Heyd, E. Brothers, 
 K. N. Kudin, V. N. Staroverov, T. Keith, R. Kobayashi, J. Normand, 
 K. Raghavachari, A. Rendell, J. C. Burant, S. S. Iyengar, J. Tomasi, 
 M. Cossi, N. Rega, J. M. Millam, M. Klene, J. E. Knox, J. B. Cross, 
 V. Bakken, C. Adamo, J. Jaramillo, R. Gomperts, R. E. Stratmann, 
 O. Yazyev, A. J. Austin, R. Cammi, C. Pomelli, J. W. Ochterski, 
 R. L. Martin, K. Morokuma, V. G. Zakrzewski, G. A. Voth, 
 P. Salvador, J. J. Dannenberg, S. Dapprich, A. D. Daniels, 
 O. Farkas, J. B. Foresman, J. V. Ortiz, J. Cioslowski, 
 and D. J. Fox, Gaussian, Inc., Wallingford CT, 2013.
 
 ******************************************
 Gaussian 09:  AM64L-G09RevD.01 24-Apr-2013
                16-Jan-2014 
 ******************************************
 %mem=1800mb
 -----------------------------------------
 # hf/gen pop=mk iop(6/33=2,6/41=5,6/42=2)
 -----------------------------------------
 1/38=1/1;
 2/12=2,17=6,18=5,40=1/2;
 3/5=7,11=9,16=1,25=1,30=1/1,2,3;
 4//1;
 5/5=2,38=5/2;
 6/7=2,8=2,9=2,10=2,15=8,20=1,28=1,33=2,41=5,42=2/1,2;
 99/5=1,9=1/99;
 -------
 na resp
 -------
 Symbolic Z-matrix:
 Charge =  0 Multiplicity = 1
 6                    -4.91746   1.20907   0.0629 
 6                    -3.43379   0.93272   0.0581 
 6                    -2.54375   2.01309   0.15783 
 6                    -1.15934   1.8778    0.16138 
 6                    -0.59346   0.5979    0.05671 
 6                    -1.44147  -0.50472  -0.04852 
 6                    -2.82506  -0.33376  -0.04523 
 7                    -3.61691  -1.57434  -0.15843 
 8                    -3.00792  -2.63082  -0.33469 
 8                    -4.84229  -1.49709  -0.0691 
 7                     0.79361   0.35021   0.04771 
 6                     1.81074   1.25132   0.15579 
 8                     1.67832   2.46335   0.27288 
 6                     3.25303   0.7225    0.0803 
 1                     3.77137   1.09392   0.96426 
 6                     3.94314   1.18932  -1.1983 
 35                    3.42416  -1.26695   0.23486 
 1                    -5.41427   0.74044   0.91719 
 1                    -5.08581   2.28935   0.10737 
 1                    -5.40927   0.81308  -0.83007 
 1                    -2.96236   3.01249   0.23689 
 1                    -0.51669   2.74314   0.24374 
 1                    -1.05001  -1.51137  -0.13596 
 1                     1.07175  -0.62307  -0.01554 
 1                     3.86894   2.28012  -1.25446 
 1                     4.99737   0.90203  -1.19393 
 1                     3.46617   0.7568   -2.08292 
 
                          Input orientation:                          
 ---------------------------------------------------------------------
 Center     Atomic      Atomic             Coordinates (Angstroms)
 Number     Number       Type             X           Y           Z
 ---------------------------------------------------------------------
      1          6           0       -4.917456    1.209074    0.062899
      2          6           0       -3.433792    0.932718    0.058102
      3          6           0       -2.543755    2.013095    0.157832
      4          6           0       -1.159338    1.877802    0.161375
      5          6           0       -0.593460    0.597898    0.056712
      6          6           0       -1.441470   -0.504719   -0.048521
      7          6           0       -2.825055   -0.333758   -0.045227
      8          7           0       -3.616912   -1.574336   -0.158429
      9          8           0       -3.007922   -2.630817   -0.334685
     10          8           0       -4.842285   -1.497092   -0.069102
     11          7           0        0.793613    0.350213    0.047710
     12          6           0        1.810742    1.251322    0.155787
     13          8           0        1.678323    2.463350    0.272878
     14          6           0        3.253030    0.722495    0.080295
     15          1           0        3.771373    1.093923    0.964264
     16          6           0        3.943143    1.189320   -1.198302
     17         35           0        3.424155   -1.266945    0.234858
     18          1           0       -5.414267    0.740437    0.917188
     19          1           0       -5.085808    2.289353    0.107365
     20          1           0       -5.409270    0.813075   -0.830073
     21          1           0       -2.962357    3.012491    0.236886
     22          1           0       -0.516688    2.743143    0.243739
     23          1           0       -1.050008   -1.511365   -0.135963
     24          1           0        1.071749   -0.623068   -0.015536
     25          1           0        3.868938    2.280117   -1.254463
     26          1           0        4.997368    0.902029   -1.193934
     27          1           0        3.466170    0.756804   -2.082922
 ---------------------------------------------------------------------
                    Distance matrix (angstroms):
                    1          2          3          4          5
     1  C    0.000000
     2  C    1.509190   0.000000
     3  C    2.507971   1.403327   0.000000
     4  C    3.818422   2.465155   1.391017   0.000000
     5  C    4.366980   2.859999   2.411775   1.403327   0.000000
     6  C    3.877110   2.459053   2.756266   2.408332   1.394976
     7  C    2.601954   1.408971   2.372358   2.776382   2.420411
     8  N    3.080223   2.523041   3.757838   4.249612   3.729095
     9  O    4.306873   3.610323   4.692967   4.898059   4.050607
    10  O    2.710426   2.811407   4.201922   5.000713   4.738916
    11  N    5.775308   4.267361   3.730326   2.482029   1.409042
    12  C    6.728972   5.255111   4.420627   3.035438   2.493384
    13  O    6.717261   5.340663   4.247577   2.899590   2.947480
    14  C    8.184980   6.690163   5.939224   4.561831   3.848580
    15  H    8.736216   7.263713   6.432422   5.056778   4.485695
    16  C    8.949929   7.487561   6.678140   5.325227   4.744007
    17  Br   8.703029   7.204249   6.810326   5.559068   4.432900
    18  H    1.093733   2.167321   3.230498   4.468699   4.899073
    19  H    1.094222   2.138233   2.557518   3.948349   4.800498
    20  H    1.093661   2.169259   3.259936   4.492052   4.901501
    21  H    2.665520   2.140016   1.086402   2.131689   3.387388
    22  H    4.663993   3.438255   2.156235   1.081017   2.154750
    23  H    4.732598   3.419595   3.839194   3.403941   2.166691
    24  H    6.263663   4.767158   4.477866   3.356099   2.066131
    25  H    8.948927   7.541099   6.571797   5.239276   4.945911
    26  H    9.998882   8.523673   7.741465   6.379187   5.737070
    27  H    8.665696   7.226645   6.535935   5.262018   4.591719
                    6          7          8          9         10
     6  C    0.000000
     7  C    1.394111   0.000000
     8  N    2.426666   1.476105   0.000000
     9  O    2.656305   2.322435   1.232107   0.000000
    10  O    3.542707   2.328762   1.231050   2.172730   0.000000
    11  N    2.394946   3.683913   4.816546   4.846074   5.932076
    12  C    3.701662   4.903417   6.127194   6.207342   7.201883
    13  O    4.318083   5.310877   6.672964   6.948422   7.636778
    14  C    4.853965   6.170457   7.247657   7.114522   8.395416
    15  H    5.545730   6.824237   7.935162   7.843456   9.054077
    16  C    5.760714   7.032628   8.116253   7.978508   9.256114
    17  Br   4.933112   6.324706   7.058738   6.599708   8.275227
    18  H    4.273889   2.963808   3.121796   4.327012   2.511268
    19  H    4.594816   3.466266   4.142028   5.359206   3.798369
    20  H    4.253333   2.934174   3.059965   4.227561   2.497483
    21  H    3.842567   3.360926   4.650129   5.672362   4.895314
    22  H    3.389579   3.857380   5.330455   5.951493   6.065332
    23  H    1.083617   2.132084   2.567775   2.264087   3.792893
    24  H    2.516220   3.907642   4.786321   4.558139   5.978510
    25  H    6.116375   7.287259   8.490939   8.500263   9.568584
    26  H    6.689510   8.002312   9.022775   8.792268  10.190182
    27  H    5.460326   6.702316   7.701165   7.513067   8.841151
                   11         12         13         14         15
    11  N    0.000000
    12  C    1.363169   0.000000
    13  O    2.301904   1.224850   0.000000
    14  C    2.487647   1.538035   2.355285   0.000000
    15  H    3.203159   2.126613   2.595034   1.089972   0.000000
    16  C    3.489439   2.526764   2.986123   1.526103   2.171474
    17  Br   3.093538   2.991826   4.118795   2.002759   2.495254
    18  H    6.280608   7.282959   7.327237   8.707626   9.192560
    19  H    6.191237   6.974400   6.768393   8.484810   8.978473
    20  H    6.281759   7.300175   7.360291   8.710477   9.358564
    21  H    4.607692   5.088297   4.673196   6.625680   7.039396
    22  H    2.735220   2.765899   2.212963   4.280246   4.650435
    23  H    2.626432   3.987662   4.838316   4.853147   5.589610
    24  H    1.014217   2.022078   3.158653   2.564705   3.346048
    25  H    3.857176   2.698777   2.676778   2.141753   2.517802
    26  H    4.417888   3.478266   3.950357   2.167627   2.489519
    27  H    3.442015   2.827863   3.414453   2.173963   3.080932
                   16         17         18         19         20
    16  C    0.000000
    17  Br   2.890767   0.000000
    18  H    9.604057   9.089162   0.000000
    19  H    9.188950   9.224044   1.778437   0.000000
    20  H    9.367218   9.137284   1.748777   1.778430   0.000000
    21  H    7.284892   7.687725   3.411290   2.246942   3.458788
    22  H    4.938010   5.622377   5.333915   4.593624   5.368016
    23  H    5.775277   4.496152   5.022599   5.549085   4.988785
    24  H    3.595635   2.451752   6.693095   6.812695   6.688018
    25  H    1.094760   3.872668   9.657359   9.057711   9.403056
    26  H    1.092678   3.036592  10.624740  10.261018  10.413377
    27  H    1.094132   3.077244   9.373531   8.960044   8.963606
                   21         22         23         24         25
    21  H    0.000000
    22  H    2.460466   0.000000
    23  H    4.925583   4.304584   0.000000
    24  H    5.436453   3.731184   2.303351   0.000000
    25  H    7.030440   4.657544   6.310500   4.217545   0.000000
    26  H    8.358141   5.988440   6.596554   4.373217   1.782174
    27  H    7.196915   5.022156   5.415820   3.451287   1.780182
                   26         27
    26  H    0.000000
    27  H    1.776501   0.000000
 Stoichiometry    C10H11BrN2O3
 Framework group  C1[X(C10H11BrN2O3)]
 Deg. of freedom    75
 Full point group                 C1      NOp   1
 Largest Abelian subgroup         C1      NOp   1
 Largest concise Abelian subgroup C1      NOp   1
                         Standard orientation:                         
 ---------------------------------------------------------------------
 Center     Atomic      Atomic             Coordinates (Angstroms)
 Number     Number       Type             X           Y           Z
 ---------------------------------------------------------------------
      1          6           0        4.917456    1.209074   -0.062899
      2          6           0        3.433792    0.932718   -0.058102
      3          6           0        2.543755    2.013095   -0.157832
      4          6           0        1.159338    1.877802   -0.161375
      5          6           0        0.593460    0.597898   -0.056712
      6          6           0        1.441470   -0.504719    0.048521
      7          6           0        2.825055   -0.333758    0.045227
      8          7           0        3.616912   -1.574336    0.158429
      9          8           0        3.007922   -2.630817    0.334685
     10          8           0        4.842285   -1.497092    0.069102
     11          7           0       -0.793613    0.350213   -0.047710
     12          6           0       -1.810742    1.251322   -0.155787
     13          8           0       -1.678323    2.463350   -0.272878
     14          6           0       -3.253030    0.722495   -0.080295
     15          1           0       -3.771373    1.093923   -0.964264
     16          6           0       -3.943143    1.189320    1.198302
     17         35           0       -3.424155   -1.266945   -0.234858
     18          1           0        5.414267    0.740437   -0.917188
     19          1           0        5.085808    2.289353   -0.107365
     20          1           0        5.409270    0.813075    0.830073
     21          1           0        2.962357    3.012491   -0.236886
     22          1           0        0.516688    2.743143   -0.243739
     23          1           0        1.050008   -1.511365    0.135963
     24          1           0       -1.071749   -0.623068    0.015536
     25          1           0       -3.868938    2.280117    1.254463
     26          1           0       -4.997368    0.902029    1.193934
     27          1           0       -3.466170    0.756804    2.082922
 ---------------------------------------------------------------------
 Rotational constants (GHZ):      0.7850298      0.1754158      0.1463621
 General basis read from cards:  (5D, 7F)
 There are   277 symmetry adapted cartesian basis functions of A   symmetry.
 There are   260 symmetry adapted basis functions of A   symmetry.
   260 basis functions,   547 primitive gaussians,   277 cartesian basis functions
    72 alpha electrons       72 beta electrons
       nuclear repulsion energy      1383.8958011258 Hartrees.
 NAtoms=   27 NActive=   27 NUniq=   27 SFac= 1.00D+00 NAtFMM=   60 NAOKFM=F Big=F
 Integral buffers will be    131072 words long.
 Raffenetti 1 integral format.
 Two-electron integral symmetry is turned on.
 One-electron integrals computed using PRISM.
 NBasis=   260 RedAO= T EigKep=  3.80D-04  NBF=   260
 NBsUse=   260 1.00D-06 EigRej= -1.00D+00 NBFU=   260
 ExpMin= 1.43D-01 ExpMax= 5.74D+05 ExpMxC= 5.74D+03 IAcc=2 IRadAn=         4 AccDes= 0.00D+00
 Harris functional with IExCor=  205 and IRadAn=       4 diagonalized for initial guess.
 HarFok:  IExCor=  205 AccDes= 0.00D+00 IRadAn=         4 IDoV= 1 UseB2=F ITyADJ=14
 ICtDFT=  3500011 ScaDFX=  1.000000  1.000000  1.000000  1.000000
 FoFCou: FMM=F IPFlag=           0 FMFlag=      100000 FMFlg1=           0
         NFxFlg=           0 DoJE=T BraDBF=F KetDBF=T FulRan=T
         wScrn=  0.000000 ICntrl=     500 IOpCl=  0 I1Cent=   200000004 NGrid=           0
         NMat0=    1 NMatS0=      1 NMatT0=    0 NMatD0=    1 NMtDS0=    0 NMtDT0=    0
 Petite list used in FoFCou.
 Requested convergence on RMS density matrix=1.00D-08 within 128 cycles.
 Requested convergence on MAX density matrix=1.00D-06.
 Requested convergence on             energy=1.00D-06.
 No special actions if energy rises.
 Integral accuracy reduced to 1.0D-05 until final iterations.
 Initial convergence to 1.0D-05 achieved.  Increase integral accuracy.
 SCF Done:  E(RHF) =  -3288.05418645     A.U. after   17 cycles
            NFock= 17  Conv=0.56D-08     -V/T= 1.9993

 **********************************************************************

            Population analysis using the SCF density.

 **********************************************************************

 Orbital symmetries:
 BldTbl:  Degeneracy threshold= 1.00D-02
       Occupied  (A) (A) (A) (A) (A) (A) (A) (A) (A) (A) (A) (A)
                 (A) (A) (A) (A) (A) (A) (A) (A) (A) (A) (A) (A)
                 (A) (A) (A) (A) (A) (A) (A) (A) (A) (A) (A) (A)
                 (A) (A) (A) (A) (A) (A) (A) (A) (A) (A) (A) (A)
                 (A) (A) (A) (A) (A) (A) (A) (A) (A) (A) (A) (A)
                 (A) (A) (A) (A) (A) (A) (A) (A) (A) (A) (A) (A)
       Virtual   (A) (A) (A) (A) (A) (A) (A) (A) (A) (A) (A) (A)
                 (A) (A) (A) (A) (A) (A) (A) (A) (A) (A) (A) (A)
                 (A) (A) (A) (A) (A) (A) (A) (A) (A) (A) (A) (A)
                 (A) (A) (A) (A) (A) (A) (A) (A) (A) (A) (A) (A)
                 (A) (A) (A) (A) (A) (A) (A) (A) (A) (A) (A) (A)
                 (A) (A) (A) (A) (A) (A) (A) (A) (A) (A) (A) (A)
                 (A) (A) (A) (A) (A) (A) (A) (A) (A) (A) (A) (A)
                 (A) (A) (A) (A) (A) (A) (A) (A) (A) (A) (A) (A)
                 (A) (A) (A) (A) (A) (A) (A) (A) (A) (A) (A) (A)
                 (A) (A) (A) (A) (A) (A) (A) (A) (A) (A) (A) (A)
                 (A) (A) (A) (A) (A) (A) (A) (A) (A) (A) (A) (A)
                 (A) (A) (A) (A) (A) (A) (A) (A) (A) (A) (A) (A)
                 (A) (A) (A) (A) (A) (A) (A) (A) (A) (A) (A) (A)
                 (A) (A) (A) (A) (A) (A) (A) (A) (A) (A) (A) (A)
                 (A) (A) (A) (A) (A) (A) (A) (A) (A) (A) (A) (A)
                 (A) (A) (A) (A) (A) (A) (A) (A)
 The electronic state is 1-A.
 Alpha  occ. eigenvalues -- -489.85737 -64.40179 -58.56826 -58.56679 -58.56668
 Alpha  occ. eigenvalues --  -20.60686 -20.60409 -20.56144 -15.85717 -15.63238
 Alpha  occ. eigenvalues --  -11.39718 -11.33558 -11.31628 -11.31421 -11.28475
 Alpha  occ. eigenvalues --  -11.27435 -11.26363 -11.26041 -11.25420 -11.23423
 Alpha  occ. eigenvalues --   -9.67935  -7.49445  -7.48672  -7.48619  -3.23732
 Alpha  occ. eigenvalues --   -3.23385  -3.23333  -3.22432  -3.22431  -1.59876
 Alpha  occ. eigenvalues --   -1.41598  -1.39216  -1.28542  -1.19256  -1.11909
 Alpha  occ. eigenvalues --   -1.08606  -1.06790  -0.98723  -0.98587  -0.94053
 Alpha  occ. eigenvalues --   -0.90479  -0.85513  -0.84771  -0.80061  -0.76762
 Alpha  occ. eigenvalues --   -0.73205  -0.71602  -0.71310  -0.68449  -0.67567
 Alpha  occ. eigenvalues --   -0.66184  -0.65070  -0.62791  -0.61628  -0.61196
 Alpha  occ. eigenvalues --   -0.58619  -0.57198  -0.56411  -0.55805  -0.54567
 Alpha  occ. eigenvalues --   -0.53481  -0.52190  -0.50632  -0.48954  -0.48163
 Alpha  occ. eigenvalues --   -0.46100  -0.45654  -0.44735  -0.42540  -0.42138
 Alpha  occ. eigenvalues --   -0.37316  -0.32911
 Alpha virt. eigenvalues --    0.04791   0.10569   0.12997   0.15324   0.18952
 Alpha virt. eigenvalues --    0.22451   0.23584   0.24340   0.26617   0.26750
 Alpha virt. eigenvalues --    0.29338   0.29808   0.30626   0.31420   0.33031
 Alpha virt. eigenvalues --    0.33656   0.34908   0.36833   0.37717   0.38424
 Alpha virt. eigenvalues --    0.39585   0.42213   0.44825   0.47246   0.49593
 Alpha virt. eigenvalues --    0.50131   0.50990   0.53782   0.56605   0.58042
 Alpha virt. eigenvalues --    0.61362   0.62329   0.62672   0.64312   0.65531
 Alpha virt. eigenvalues --    0.67482   0.68564   0.69674   0.70479   0.70953
 Alpha virt. eigenvalues --    0.71793   0.72057   0.73670   0.74808   0.76506
 Alpha virt. eigenvalues --    0.77337   0.78619   0.79140   0.81353   0.82259
 Alpha virt. eigenvalues --    0.83422   0.84991   0.85725   0.86669   0.88078
 Alpha virt. eigenvalues --    0.89086   0.91026   0.91646   0.92688   0.95008
 Alpha virt. eigenvalues --    0.95937   0.97718   0.98534   0.99437   1.02112
 Alpha virt. eigenvalues --    1.03918   1.04279   1.05216   1.06252   1.07815
 Alpha virt. eigenvalues --    1.09169   1.10354   1.11033   1.12043   1.12613
 Alpha virt. eigenvalues --    1.13806   1.14104   1.15853   1.17641   1.17777
 Alpha virt. eigenvalues --    1.18893   1.20401   1.22281   1.24308   1.24547
 Alpha virt. eigenvalues --    1.25403   1.27098   1.28689   1.28973   1.30178
 Alpha virt. eigenvalues --    1.30479   1.32554   1.33714   1.34896   1.39982
 Alpha virt. eigenvalues --    1.41022   1.44792   1.46572   1.47808   1.51524
 Alpha virt. eigenvalues --    1.52963   1.54270   1.56796   1.60143   1.62028
 Alpha virt. eigenvalues --    1.63377   1.64239   1.66901   1.68283   1.70935
 Alpha virt. eigenvalues --    1.71220   1.73250   1.73643   1.76596   1.79648
 Alpha virt. eigenvalues --    1.83913   1.87138   1.91559   1.95939   1.96767
 Alpha virt. eigenvalues --    1.98374   2.00985   2.02911   2.05348   2.07066
 Alpha virt. eigenvalues --    2.08962   2.09965   2.10833   2.11673   2.11913
 Alpha virt. eigenvalues --    2.14660   2.15832   2.16885   2.19712   2.20874
 Alpha virt. eigenvalues --    2.23090   2.24479   2.25342   2.25518   2.26560
 Alpha virt. eigenvalues --    2.27499   2.32530   2.33013   2.36153   2.37562
 Alpha virt. eigenvalues --    2.42395   2.44011   2.44389   2.45732   2.47379
 Alpha virt. eigenvalues --    2.48340   2.53059   2.54486   2.57379   2.57824
 Alpha virt. eigenvalues --    2.58753   2.61492   2.65174   2.66737   2.67751
 Alpha virt. eigenvalues --    2.68745   2.69790   2.72062   2.77300   2.83629
 Alpha virt. eigenvalues --    2.86033   2.88598   2.90260   2.92940   2.94200
 Alpha virt. eigenvalues --    2.98967   3.01273   3.02444   3.04547   3.05525
 Alpha virt. eigenvalues --    3.13819   3.18175   3.19529   3.23005   3.27164
 Alpha virt. eigenvalues --    3.28685   3.31822   3.36480   3.44774   3.54235
 Alpha virt. eigenvalues --    3.68802   3.79722   9.20753
          Condensed to atoms (all electrons):
               1          2          3          4          5          6
     1  C    5.098653   0.321617  -0.044296   0.003453  -0.000018   0.003013
     2  C    0.321617   4.821546   0.549702  -0.047897  -0.019310  -0.059311
     3  C   -0.044296   0.549702   4.980893   0.504717  -0.035674  -0.042614
     4  C    0.003453  -0.047897   0.504717   4.960156   0.571429  -0.040178
     5  C   -0.000018  -0.019310  -0.035674   0.571429   4.536852   0.520745
     6  C    0.003013  -0.059311  -0.042614  -0.040178   0.520745   5.067060
     7  C   -0.043867   0.537577  -0.027613  -0.033581  -0.033194   0.527778
     8  N   -0.003254  -0.036339   0.001974   0.000130   0.000571  -0.051278
     9  O    0.000029   0.002432  -0.000032   0.000001   0.001107  -0.001244
    10  O   -0.012300  -0.006266   0.000297  -0.000008   0.000017   0.004890
    11  N    0.000001   0.000495   0.003172  -0.045612   0.177231  -0.044680
    12  C    0.000000  -0.000001   0.000104  -0.002613  -0.028670   0.002698
    13  O    0.000000  -0.000001   0.000581  -0.010580   0.002420   0.000353
    14  C    0.000000   0.000000   0.000005   0.000078   0.003719  -0.000160
    15  H    0.000000   0.000000   0.000000   0.000002  -0.000046   0.000000
    16  C    0.000000   0.000000   0.000000   0.000000  -0.000125   0.000004
    17  Br   0.000000   0.000000  -0.000001  -0.000031   0.002091  -0.000397
    18  H    0.389378  -0.032454   0.000622  -0.000107   0.000022  -0.000104
    19  H    0.389651  -0.048293  -0.003913   0.000551  -0.000030   0.000012
    20  H    0.390302  -0.032896   0.001139  -0.000098   0.000020  -0.000089
    21  H   -0.003135  -0.029832   0.382597  -0.026850   0.001430   0.000430
    22  H   -0.000061   0.001499  -0.024571   0.361431  -0.017839   0.002533
    23  H   -0.000068   0.002304   0.000028   0.002221  -0.029617   0.358046
    24  H    0.000000  -0.000008  -0.000053   0.001643  -0.026589   0.002137
    25  H    0.000000   0.000000   0.000000   0.000001   0.000007   0.000000
    26  H    0.000000   0.000000   0.000000   0.000000   0.000002   0.000000
    27  H    0.000000   0.000000   0.000000  -0.000003  -0.000035  -0.000002
               7          8          9         10         11         12
     1  C   -0.043867  -0.003254   0.000029  -0.012300   0.000001   0.000000
     2  C    0.537577  -0.036339   0.002432  -0.006266   0.000495  -0.000001
     3  C   -0.027613   0.001974  -0.000032   0.000297   0.003172   0.000104
     4  C   -0.033581   0.000130   0.000001  -0.000008  -0.045612  -0.002613
     5  C   -0.033194   0.000571   0.001107   0.000017   0.177231  -0.028670
     6  C    0.527778  -0.051278  -0.001244   0.004890  -0.044680   0.002698
     7  C    4.864633   0.232428  -0.089976  -0.073968   0.001735  -0.000063
     8  N    0.232428   5.681859   0.332232   0.320565  -0.000054   0.000000
     9  O   -0.089976   0.332232   8.329711  -0.088192  -0.000005   0.000000
    10  O   -0.073968   0.320565  -0.088192   8.343616   0.000000   0.000000
    11  N    0.001735  -0.000054  -0.000005   0.000000   7.486797   0.280984
    12  C   -0.000063   0.000000   0.000000   0.000000   0.280984   4.175540
    13  O   -0.000008   0.000000   0.000000   0.000000  -0.086284   0.562592
    14  C   -0.000002   0.000000   0.000000   0.000000  -0.091614   0.338503
    15  H    0.000000   0.000000   0.000000   0.000000   0.001677  -0.036919
    16  C    0.000000   0.000000   0.000000   0.000000  -0.000798  -0.040618
    17  Br  -0.000006   0.000000   0.000000   0.000000  -0.014314  -0.057850
    18  H   -0.005244   0.000933  -0.000001  -0.000144   0.000000   0.000000
    19  H    0.004248  -0.000175   0.000001   0.000807   0.000000   0.000000
    20  H   -0.005743   0.000999  -0.000010   0.000096   0.000000   0.000000
    21  H    0.002189  -0.000049   0.000000   0.000003  -0.000080   0.000001
    22  H    0.000066   0.000002   0.000000   0.000000  -0.003945  -0.000566
    23  H   -0.010593  -0.007371   0.012551   0.000087  -0.001844   0.000027
    24  H    0.000102  -0.000004  -0.000015   0.000000   0.301146  -0.015465
    25  H    0.000000   0.000000   0.000000   0.000000   0.000415  -0.003521
    26  H    0.000000   0.000000   0.000000   0.000000  -0.000079   0.004517
    27  H    0.000000   0.000000   0.000000   0.000000   0.001045  -0.004680
              13         14         15         16         17         18
     1  C    0.000000   0.000000   0.000000   0.000000   0.000000   0.389378
     2  C   -0.000001   0.000000   0.000000   0.000000   0.000000  -0.032454
     3  C    0.000581   0.000005   0.000000   0.000000  -0.000001   0.000622
     4  C   -0.010580   0.000078   0.000002   0.000000  -0.000031  -0.000107
     5  C    0.002420   0.003719  -0.000046  -0.000125   0.002091   0.000022
     6  C    0.000353  -0.000160   0.000000   0.000004  -0.000397  -0.000104
     7  C   -0.000008  -0.000002   0.000000   0.000000  -0.000006  -0.005244
     8  N    0.000000   0.000000   0.000000   0.000000   0.000000   0.000933
     9  O    0.000000   0.000000   0.000000   0.000000   0.000000  -0.000001
    10  O    0.000000   0.000000   0.000000   0.000000   0.000000  -0.000144
    11  N   -0.086284  -0.091614   0.001677  -0.000798  -0.014314   0.000000
    12  C    0.562592   0.338503  -0.036919  -0.040618  -0.057850   0.000000
    13  O    8.202992  -0.068034   0.001767  -0.001771   0.001945   0.000000
    14  C   -0.068034   5.226783   0.389206   0.295921   0.260782   0.000000
    15  H    0.001767   0.389206   0.450594  -0.031423  -0.042440   0.000000
    16  C   -0.001771   0.295921  -0.031423   5.176261  -0.066849   0.000000
    17  Br   0.001945   0.260782  -0.042440  -0.066849  35.083127   0.000000
    18  H    0.000000   0.000000   0.000000   0.000000   0.000000   0.489821
    19  H    0.000000   0.000000   0.000000   0.000000   0.000000  -0.025923
    20  H    0.000000   0.000000   0.000000   0.000000   0.000000  -0.026437
    21  H   -0.000003   0.000000   0.000000   0.000000   0.000000   0.000103
    22  H    0.013376   0.000226  -0.000002  -0.000006  -0.000006   0.000001
    23  H    0.000002   0.000008   0.000000   0.000000   0.000035   0.000001
    24  H    0.001823  -0.005292   0.000434   0.000388   0.023065   0.000000
    25  H    0.004774  -0.035594  -0.001000   0.380754   0.004183   0.000000
    26  H   -0.000010  -0.037292  -0.003171   0.393792  -0.003047   0.000000
    27  H    0.000159  -0.037620   0.003433   0.388795  -0.000867   0.000000
              19         20         21         22         23         24
     1  C    0.389651   0.390302  -0.003135  -0.000061  -0.000068   0.000000
     2  C   -0.048293  -0.032896  -0.029832   0.001499   0.002304  -0.000008
     3  C   -0.003913   0.001139   0.382597  -0.024571   0.000028  -0.000053
     4  C    0.000551  -0.000098  -0.026850   0.361431   0.002221   0.001643
     5  C   -0.000030   0.000020   0.001430  -0.017839  -0.029617  -0.026589
     6  C    0.000012  -0.000089   0.000430   0.002533   0.358046   0.002137
     7  C    0.004248  -0.005743   0.002189   0.000066  -0.010593   0.000102
     8  N   -0.000175   0.000999  -0.000049   0.000002  -0.007371  -0.000004
     9  O    0.000001  -0.000010   0.000000   0.000000   0.012551  -0.000015
    10  O    0.000807   0.000096   0.000003   0.000000   0.000087   0.000000
    11  N    0.000000   0.000000  -0.000080  -0.003945  -0.001844   0.301146
    12  C    0.000000   0.000000   0.000001  -0.000566   0.000027  -0.015465
    13  O    0.000000   0.000000  -0.000003   0.013376   0.000002   0.001823
    14  C    0.000000   0.000000   0.000000   0.000226   0.000008  -0.005292
    15  H    0.000000   0.000000   0.000000  -0.000002   0.000000   0.000434
    16  C    0.000000   0.000000   0.000000  -0.000006   0.000000   0.000388
    17  Br   0.000000   0.000000   0.000000  -0.000006   0.000035   0.023065
    18  H   -0.025923  -0.026437   0.000103   0.000001   0.000001   0.000000
    19  H    0.532712  -0.026044   0.002667  -0.000006   0.000001   0.000000
    20  H   -0.026044   0.492097   0.000083   0.000001   0.000000   0.000000
    21  H    0.002667   0.000083   0.447614  -0.000900   0.000008   0.000001
    22  H   -0.000006   0.000001  -0.000900   0.368399  -0.000064  -0.000118
    23  H    0.000001   0.000000   0.000008  -0.000064   0.387304   0.003630
    24  H    0.000000   0.000000   0.000001  -0.000118   0.003630   0.268172
    25  H    0.000000   0.000000   0.000000   0.000001   0.000000  -0.000044
    26  H    0.000000   0.000000   0.000000   0.000000   0.000000  -0.000005
    27  H    0.000000   0.000000   0.000000   0.000000   0.000000   0.000086
              25         26         27
     1  C    0.000000   0.000000   0.000000
     2  C    0.000000   0.000000   0.000000
     3  C    0.000000   0.000000   0.000000
     4  C    0.000001   0.000000  -0.000003
     5  C    0.000007   0.000002  -0.000035
     6  C    0.000000   0.000000  -0.000002
     7  C    0.000000   0.000000   0.000000
     8  N    0.000000   0.000000   0.000000
     9  O    0.000000   0.000000   0.000000
    10  O    0.000000   0.000000   0.000000
    11  N    0.000415  -0.000079   0.001045
    12  C   -0.003521   0.004517  -0.004680
    13  O    0.004774  -0.000010   0.000159
    14  C   -0.035594  -0.037292  -0.037620
    15  H   -0.001000  -0.003171   0.003433
    16  C    0.380754   0.393792   0.388795
    17  Br   0.004183  -0.003047  -0.000867
    18  H    0.000000   0.000000   0.000000
    19  H    0.000000   0.000000   0.000000
    20  H    0.000000   0.000000   0.000000
    21  H    0.000000   0.000000   0.000000
    22  H    0.000001   0.000000   0.000000
    23  H    0.000000   0.000000   0.000000
    24  H   -0.000044  -0.000005   0.000086
    25  H    0.473275  -0.022324  -0.021538
    26  H   -0.022324   0.486032  -0.023239
    27  H   -0.021538  -0.023239   0.498033
 Mulliken charges:
               1
     1  C   -0.489098
     2  C    0.075435
     3  C   -0.247064
     4  C   -0.198256
     5  C    0.373487
     6  C   -0.249646
     7  C    0.153101
     8  N    0.526833
     9  O   -0.498588
    10  O   -0.489501
    11  N   -0.965388
    12  C    0.825999
    13  O   -0.626094
    14  C   -0.239626
    15  H    0.267886
    16  C   -0.494325
    17  Br  -0.189420
    18  H    0.209533
    19  H    0.173735
    20  H    0.206581
    21  H    0.223722
    22  H    0.300552
    23  H    0.283306
    24  H    0.444965
    25  H    0.220611
    26  H    0.204824
    27  H    0.196434
 Sum of Mulliken charges =   0.00000
 Mulliken charges with hydrogens summed into heavy atoms:
               1
     1  C    0.100752
     2  C    0.075435
     3  C   -0.023342
     4  C    0.102296
     5  C    0.373487
     6  C    0.033660
     7  C    0.153101
     8  N    0.526833
     9  O   -0.498588
    10  O   -0.489501
    11  N   -0.520423
    12  C    0.825999
    13  O   -0.626094
    14  C    0.028260
    16  C    0.127544
    17  Br  -0.189420
 DipInt: DoE/N= T F RetVal/Mat= T F Init=T NMatP=  1 IDeriv=0 Min/MaxMlt=  0  4
 Entering OneElI...
 OneElI was handed   235730901 working-precision words.
 Multipole integrals L=0 to 4 MinM= 0 MaxM= 0.
 Requested accuracy = 0.1000D-12
 PrtBox:  NBox=     1 Levels=  1 BoxLen=   38.93 SMaxX=       19.68
          Shift=            9.443657            4.971523            1.822195
 Box      1 Number                   0 centers from      1 to     94:
 ShPair: Thresh= 1.00D-13 NBox=     1 BxSize= 3.89D+01 RnKept= 2.01D+01
         NSMCal=                 4465 NSMKep=                3519
 PrsmSu:  NPrtUS=   1 ThrOK=F IAlg=1 NPAlg=1 LenDen=           0.
 Prism:   IPart=     0 DynPar=F LinDyn=F Incr=          35.
 PRISM was handed   235409564 working-precision words and  3519 shell-pairs
 IPart=  0 NShTot=        3519 NBatch=         137 AvBLen=        25.7
 PrSmSu:  NxtVal=             36.
 Electronic moments (au):
       -144.00000000         -1.13511208          1.15368748          0.14061313
      -5267.81908458      -1210.55514053       -160.30231753         10.90830094
         -2.42495033          1.32193955      -5757.48235425       -381.35105999
       -151.31966560      -1197.41990308       2618.86173191       -587.57124900
        363.47156659       -147.39117368         -3.47908912        818.17194192
    -297515.10877415     -20255.32978242      -1032.94395918      -1105.34397224
       3170.58247890       5193.89187884        998.46798691       1144.30496989
       -287.33326829     -41767.64201189      -7184.61036092      -1280.15468597
      -1945.97251250       -616.28588766        894.59183810
 Electronic spatial extent (au):  <R**2>=           6638.6765
 DipInt: DoE/N= F T RetVal/Mat= T F Init=T NMatP=  1 IDeriv=0 Min/MaxMlt=  0  4
 Nuclear    moments (au):
        144.00000000          0.00000000          0.00000000          0.00000000
       5186.63972061       1123.30167469         81.38819435          0.00000000
         -0.00007406          0.00002772       5508.98739968        330.61189051
        145.43223311       1140.52306157      -2512.62254975        587.92907732
       -410.67170695        122.29882683         -1.91719418       -818.58067715
     280400.51668290      16238.54726747        484.91055378       1822.14935695
      -3191.54224637      -4535.94989767       -941.09101921      -1060.17198531
        295.70617382      38086.15049980       4370.88782784        535.72022191
       1989.99690316        582.23006614       -898.04768427
 Total      moments (au):
          0.00000000         -1.13511208          1.15368748          0.14061313
        -81.17936397        -87.25346584        -78.91412319         10.90830094
         -2.42502439          1.32196727       -248.49495457        -50.73916948
         -5.88743249        -56.89684151        106.23918216          0.35782832
        -47.20014036        -25.09234686         -5.39628330         -0.40873523
     -17114.59209126      -4016.78251495       -548.03340540        716.80538471
        -20.95976747        657.94198117         57.37696771         84.13298458
          8.37290553      -3681.49151209      -2813.72253309       -744.43446405
         44.02439066        -34.05582152         -3.45584617
 Traceless Quadrup. (au):
          1.26962037         -4.80448151          3.53486115         10.90830094
         -2.42502439          1.32196727
 Charge=              0.0000 electrons
 Dipole moment (field-independent basis, Debye):
    X=             -2.8852    Y=              2.9324    Z=              0.3574  Tot=              4.1293
 Quadrupole moment (field-independent basis, Debye-Ang):
   XX=           -109.1890   YY=           -117.3589   ZZ=           -106.1422
   XY=             14.6720   XZ=             -3.2617   YZ=              1.7781
 Traceless Quadrupole moment (field-independent basis, Debye-Ang):
   XX=              1.7077   YY=             -6.4622   ZZ=              4.7545
   XY=             14.6720   XZ=             -3.2617   YZ=              1.7781
 Octapole moment (field-independent basis, Debye-Ang**2):
  XXX=           -176.8691  YYY=            -36.1142  ZZZ=             -4.1904  XYY=            -40.4970
  XXY=             75.6170  XXZ=              0.2547  XZZ=            -33.5952  YZZ=            -17.8598
  YYZ=             -3.8409  XYZ=             -0.2909
 Hexadecapole moment (field-independent basis, Debye-Ang**3):
 XXXX=          -6446.1756 YYYY=          -1512.9128 ZZZZ=           -206.4156 XXXY=            269.9833
 XXXZ=             -7.8945 YYYX=            247.8125 YYYZ=             21.6109 ZZZX=             31.6885
 ZZZY=              3.1536 XXYY=          -1386.6261 XXZZ=          -1059.7828 YYZZ=           -280.3897
 XXYZ=             16.5817 YYXZ=            -12.8271 ZZXY=             -1.3016
 N-N= 1.383895801126D+03 E-N=-1.060103496585D+04  KE= 3.290473152720D+03
 Entering OneElI...
 OneElI was handed   235777598 working-precision words.
 Calculate electrostatic properties
    NBasis =   260  MinDer = 0  MaxDer = 0
    NGrid  =    27  NMatD  =   1
 Requested accuracy = 0.1000D-12
 PrtBox:  NBox=     1 Levels=  1 BoxLen=   32.44 SMaxX=       19.68
          Shift=            9.443657            4.971523            1.822195
 Box      1 Number                   0 centers from      1 to     94:
 ShPair: Thresh= 1.00D-13 NBox=     1 BxSize= 3.24D+01 RnKept= 1.81D+01
         NSMCal=                 4465 NSMKep=                3024
 PrsmSu:  NPrtUS=   1 ThrOK=F IAlg=1 NPAlg=1 LenDen=           0.
 Prism:   IPart=     0 DynPar=F LinDyn=F Incr=         512.
 PRISM was handed   235492648 working-precision words and  3024 shell-pairs
 IPart=  0 NShTot=       81648 NBatch=        3126 AvBLen=        26.1
 PrSmSu:  NxtVal=            513.
 --------------------------------------------------------
       Center         ----      EFG at Nuclei      ----
                      3XX-RR        3YY-RR        3ZZ-RR
 --------------------------------------------------------
     1   Atom       -0.101638      0.041449      0.060189
     2   Atom        0.218755      0.156508     -0.375262
     3   Atom        0.179969      0.125921     -0.305889
     4   Atom        0.219364      0.161791     -0.381155
     5   Atom       -0.104127      0.309458     -0.205331
     6   Atom        0.134816      0.174602     -0.309418
     7   Atom        0.117584     -0.105636     -0.011948
     8   Atom        0.266272      0.391121     -0.657393
     9   Atom        1.292839     -0.903077     -0.389761
    10   Atom       -1.986555      2.409924     -0.423369
    11   Atom       -0.535241     -0.341489      0.876730
    12   Atom        0.216450      0.296023     -0.512473
    13   Atom        1.633469     -0.958968     -0.674502
    14   Atom        0.187180     -0.502817      0.315638
    15   Atom        0.045342      0.093550     -0.138891
    16   Atom        0.019526      0.064767     -0.084293
    17   Atom        2.736299     -6.001861      3.265562
    18   Atom        0.050053      0.073349     -0.123402
    19   Atom        0.127553     -0.285102      0.157549
    20   Atom        0.051923      0.096935     -0.148858
    21   Atom        0.071739     -0.236670      0.164931
    22   Atom       -0.000607     -0.154862      0.155469
    23   Atom        0.071130     -0.232638      0.161508
    24   Atom        0.102257     -0.329203      0.226946
    25   Atom        0.147405     -0.287523      0.140118
    26   Atom       -0.266157      0.123019      0.143138
    27   Atom        0.060957      0.083176     -0.144133
 --------------------------------------------------------
                        XY            XZ            YZ
 --------------------------------------------------------
     1   Atom       -0.071382      0.001595      0.001152
     2   Atom       -0.040023      0.010184     -0.042563
     3   Atom        0.001348      0.005154     -0.035843
     4   Atom       -0.055658      0.011037     -0.048740
     5   Atom       -0.042869      0.005979     -0.046454
     6   Atom        0.003541      0.006797     -0.043958
     7   Atom        0.280116     -0.024082      0.009292
     8   Atom       -0.143097     -0.039088     -0.130239
     9   Atom       -1.912050      0.130480      0.205253
    10   Atom       -0.314721      0.148634     -0.362076
    11   Atom        0.025929     -0.030520      0.116472
    12   Atom        0.086171     -0.012554     -0.081289
    13   Atom       -0.247416      0.060041      0.035217
    14   Atom       -0.080276      0.006590     -0.048451
    15   Atom        0.066879     -0.169358      0.118308
    16   Atom        0.040535      0.081237     -0.060394
    17   Atom       -0.955143     -0.141431     -0.712347
    18   Atom        0.080653      0.157501     -0.152143
    19   Atom       -0.063907      0.002247      0.018404
    20   Atom        0.065945     -0.162501      0.134568
    21   Atom       -0.158335      0.012060      0.032034
    22   Atom        0.206513     -0.019328      0.029322
    23   Atom       -0.158564      0.014046      0.033580
    24   Atom       -0.125938      0.006596      0.037873
    25   Atom       -0.026018      0.003602     -0.025039
    26   Atom       -0.113513     -0.000658     -0.006200
    27   Atom        0.082686     -0.152036      0.139373
 --------------------------------------------------------


 ---------------------------------------------------------------------------------
              Nuclear Quadrupole Coupling Constant in Principal Axis System
 ---------------------------------------------------------------------------------

       Atom             a.u.   MegaHertz   Gauss  10(-4) cm-1        Axes

              Baa    -0.6767     3.250     1.160     1.084  0.0606  0.1288  0.9898
     8 N(14)  Bbb     0.1850    -0.889    -0.317    -0.296  0.8492  0.5145 -0.1189
              Bcc     0.4917    -2.361    -0.843    -0.788 -0.5246  0.8478 -0.0782
 
              Baa    -0.5402     2.594     0.926     0.865  0.9883 -0.1486  0.0335
    11 N(14)  Bbb    -0.3481     1.672     0.597     0.558  0.1511  0.9844 -0.0898
              Bcc     0.8883    -4.266    -1.522    -1.423 -0.0196  0.0939  0.9954
 
              Baa    -6.1606   453.073   161.668   151.129  0.1076  0.9912  0.0765
    17 Br(79) Bbb     2.8311  -208.214   -74.296   -69.453  0.9847 -0.1169  0.1289
              Bcc     3.3294  -244.859   -87.372   -81.676 -0.1368 -0.0615  0.9887
 

 ---------------------------------------------------------------------------------

 No NMR shielding tensors so no spin-rotation constants.
 Leave Link  601 at Thu Jan 16 22:40:57 2014, MaxMem=   235929600 cpu:         0.4
 FitSet:  NAtFit=    27 NAtPot=    27 NAtFrz=     0 MDM=    31 TotChg=   0.00000
 Merz-Kollman atomic radii used.
 Atom Element Radius
    1     6    1.50
    2     6    1.50
    3     6    1.50
    4     6    1.50
    5     6    1.50
    6     6    1.50
    7     6    1.50
    8     7    1.50
    9     8    1.40
   10     8    1.40
   11     7    1.50
   12     6    1.50
   13     8    1.40
   14     6    1.50
   15     1    1.20
   16     6    1.50
   17    35    2.30
   18     1    1.20
   19     1    1.20
   20     1    1.20
   21     1    1.20
   22     1    1.20
   23     1    1.20
   24     1    1.20
   25     1    1.20
   26     1    1.20
   27     1    1.20
 Generate VDW surfaces: Layer= 5 Dens= 2 Start= 1.400 Inc= 0.179

 **********************************************************************

            Electrostatic Properties Using The SCF Density

 **********************************************************************

       Atomic Center    1 is at   4.917456  1.209074 -0.062899
       Atomic Center    2 is at   3.433792  0.932718 -0.058102
       Atomic Center    3 is at   2.543755  2.013095 -0.157832
       Atomic Center    4 is at   1.159338  1.877802 -0.161375
       Atomic Center    5 is at   0.593460  0.597898 -0.056712
       Atomic Center    6 is at   1.441470 -0.504719  0.048521
       Atomic Center    7 is at   2.825055 -0.333758  0.045227
       Atomic Center    8 is at   3.616912 -1.574336  0.158429
       Atomic Center    9 is at   3.007922 -2.630817  0.334685
       Atomic Center   10 is at   4.842285 -1.497092  0.069102
       Atomic Center   11 is at  -0.793613  0.350213 -0.047710
       Atomic Center   12 is at  -1.810742  1.251322 -0.155787
       Atomic Center   13 is at  -1.678323  2.463350 -0.272878
       Atomic Center   14 is at  -3.253030  0.722495 -0.080295
       Atomic Center   15 is at  -3.771373  1.093923 -0.964264
       Atomic Center   16 is at  -3.943143  1.189320  1.198302
       Atomic Center   17 is at  -3.424155 -1.266945 -0.234858
       Atomic Center   18 is at   5.414267  0.740437 -0.917188
       Atomic Center   19 is at   5.085808  2.289353 -0.107365
       Atomic Center   20 is at   5.409270  0.813075  0.830073
       Atomic Center   21 is at   2.962357  3.012491 -0.236886
       Atomic Center   22 is at   0.516688  2.743143 -0.243739
       Atomic Center   23 is at   1.050008 -1.511365  0.135963
       Atomic Center   24 is at  -1.071749 -0.623068  0.015536
       Atomic Center   25 is at  -3.868938  2.280117  1.254463
       Atomic Center   26 is at  -4.997368  0.902029  1.193934
       Atomic Center   27 is at  -3.466170  0.756804  2.082922
      ESP Fit Center   28 is at   4.558335  1.831090  1.910455
      ESP Fit Center   29 is at   5.478205  2.436945  1.545794
      ESP Fit Center   30 is at   4.725352  2.545189  1.545794
      ESP Fit Center   31 is at   4.033490  2.229226  1.545794
      ESP Fit Center   32 is at   6.985552  1.209074  0.301762
      ESP Fit Center   33 is at   6.845898  1.956157  0.301762
      ESP Fit Center   34 is at   6.985552  1.209074 -0.427560
      ESP Fit Center   35 is at   6.845898  1.956157 -0.427560
      ESP Fit Center   36 is at   6.578878  1.948787 -1.112899
      ESP Fit Center   37 is at   4.033490  2.229226 -1.671592
      ESP Fit Center   38 is at   4.558335  1.831090 -2.036254
      ESP Fit Center   39 is at   4.199214  1.209074 -2.036254
      ESP Fit Center   40 is at   3.433792  0.932718  2.041898
      ESP Fit Center   41 is at   3.792913  1.554734  1.915252
      ESP Fit Center   42 is at   3.074671  1.554734  1.915252
      ESP Fit Center   43 is at   2.715550  0.932718  1.915252
      ESP Fit Center   44 is at   3.792913  0.310702  1.915252
      ESP Fit Center   45 is at   4.152034  0.932718 -2.031457
      ESP Fit Center   46 is at   3.792913  1.554734 -2.031457
      ESP Fit Center   47 is at   2.715550  0.932718 -2.031457
      ESP Fit Center   48 is at   3.074671  0.310702 -2.031457
      ESP Fit Center   49 is at   3.792913  0.310702 -2.031457
      ESP Fit Center   50 is at   3.433792  0.932718 -2.158102
      ESP Fit Center   51 is at   2.543755  2.013095  1.942168
      ESP Fit Center   52 is at   3.261997  2.013095  1.815522
      ESP Fit Center   53 is at   2.902876  2.635111  1.815522
      ESP Fit Center   54 is at   2.184634  2.635111  1.815522
      ESP Fit Center   55 is at   2.184634  1.391079  1.815522
      ESP Fit Center   56 is at   3.679324  2.742881  1.450861
      ESP Fit Center   57 is at   3.104504  3.240965  1.450861
      ESP Fit Center   58 is at   2.351651  3.349209  1.450861
      ESP Fit Center   59 is at   3.679324  2.742881 -1.766525
      ESP Fit Center   60 is at   2.351651  3.349209 -1.766525
      ESP Fit Center   61 is at   3.261997  2.013095 -2.131187
      ESP Fit Center   62 is at   2.902876  2.635111 -2.131187
      ESP Fit Center   63 is at   2.184634  2.635111 -2.131187
      ESP Fit Center   64 is at   2.184634  1.391079 -2.131187
      ESP Fit Center   65 is at   2.902876  1.391079 -2.131187
      ESP Fit Center   66 is at   2.543755  2.013095 -2.257832
      ESP Fit Center   67 is at   1.159338  1.877802  1.938625
      ESP Fit Center   68 is at   1.518459  2.499818  1.811979
      ESP Fit Center   69 is at   0.800217  2.499818  1.811979
      ESP Fit Center   70 is at   0.441096  1.877802  1.811979
      ESP Fit Center   71 is at   1.518459  1.255786  1.811979
      ESP Fit Center   72 is at   1.720087  3.105672  1.447318
      ESP Fit Center   73 is at   0.967234  3.213916  1.447318
      ESP Fit Center   74 is at   0.275371  2.897954  1.447318
      ESP Fit Center   75 is at  -0.135838  2.258100  1.447318
      ESP Fit Center   76 is at   1.720087  3.105672 -1.770068
      ESP Fit Center   77 is at  -0.135838  2.258100 -1.770068
      ESP Fit Center   78 is at   1.518459  2.499818 -2.134730
      ESP Fit Center   79 is at   0.800217  2.499818 -2.134730
      ESP Fit Center   80 is at   0.441096  1.877802 -2.134730
      ESP Fit Center   81 is at   0.800217  1.255786 -2.134730
      ESP Fit Center   82 is at   1.518459  1.255786 -2.134730
      ESP Fit Center   83 is at   1.159338  1.877802 -2.261375
      ESP Fit Center   84 is at   0.593460  0.597898  2.043288
      ESP Fit Center   85 is at   1.311702  0.597898  1.916642
      ESP Fit Center   86 is at   0.952581  1.219914  1.916642
      ESP Fit Center   87 is at   0.234339  1.219914  1.916642
      ESP Fit Center   88 is at   0.234339 -0.024118  1.916642
      ESP Fit Center   89 is at  -0.290506  1.618050  1.551981
      ESP Fit Center   90 is at  -0.290506  1.618050 -1.665405
      ESP Fit Center   91 is at   1.311702  0.597898 -2.030067
      ESP Fit Center   92 is at   0.234339  1.219914 -2.030067
      ESP Fit Center   93 is at  -0.124782  0.597898 -2.030067
      ESP Fit Center   94 is at   0.234339 -0.024118 -2.030067
      ESP Fit Center   95 is at   0.952581 -0.024118 -2.030067
      ESP Fit Center   96 is at   0.593460  0.597898 -2.156712
      ESP Fit Center   97 is at   1.441470 -0.504719  2.148521
      ESP Fit Center   98 is at   1.800591  0.117297  2.021875
      ESP Fit Center   99 is at   1.082349  0.117297  2.021875
      ESP Fit Center  100 is at   0.723228 -0.504719  2.021875
      ESP Fit Center  101 is at   1.082349 -1.126735  2.021875
      ESP Fit Center  102 is at   1.800591 -1.126735  2.021875
      ESP Fit Center  103 is at   0.146295 -0.885017  1.657214
      ESP Fit Center  104 is at   0.146295 -0.885017 -1.560172
      ESP Fit Center  105 is at   0.557504 -1.524871 -1.560172
      ESP Fit Center  106 is at   1.249366 -1.840833 -1.560172
      ESP Fit Center  107 is at   2.002220 -1.732589 -1.560172
      ESP Fit Center  108 is at   1.800591  0.117297 -1.924834
      ESP Fit Center  109 is at   0.723228 -0.504719 -1.924834
      ESP Fit Center  110 is at   1.082349 -1.126735 -1.924834
      ESP Fit Center  111 is at   1.800591 -1.126735 -1.924834
      ESP Fit Center  112 is at   1.441470 -0.504719 -2.051479
      ESP Fit Center  113 is at   2.825055 -0.333758  2.145227
      ESP Fit Center  114 is at   3.543297 -0.333758  2.018581
      ESP Fit Center  115 is at   3.184176  0.288258  2.018581
      ESP Fit Center  116 is at   2.465934  0.288258  2.018581
      ESP Fit Center  117 is at   2.465934 -0.955774  2.018581
      ESP Fit Center  118 is at   4.174909 -0.333758 -1.563466
      ESP Fit Center  119 is at   3.543297 -0.333758 -1.928128
      ESP Fit Center  120 is at   2.465934  0.288258 -1.928128
      ESP Fit Center  121 is at   2.465934 -0.955774 -1.928128
      ESP Fit Center  122 is at   3.184176 -0.955774 -1.928128
      ESP Fit Center  123 is at   2.825055 -0.333758 -2.054773
      ESP Fit Center  124 is at   3.616912 -1.574336  2.258429
      ESP Fit Center  125 is at   4.335154 -1.574336  2.131783
      ESP Fit Center  126 is at   3.976033 -0.952320  2.131783
      ESP Fit Center  127 is at   3.257791 -0.952320  2.131783
      ESP Fit Center  128 is at   2.898670 -1.574336  2.131783
      ESP Fit Center  129 is at   3.976033 -2.196352  2.131783
      ESP Fit Center  130 is at   4.177662 -0.346465  1.767122
      ESP Fit Center  131 is at   2.321737 -1.954634 -1.450264
      ESP Fit Center  132 is at   4.177662 -2.802206 -1.450264
      ESP Fit Center  133 is at   3.976033 -0.952320 -1.814926
      ESP Fit Center  134 is at   2.898670 -1.574336 -1.814926
      ESP Fit Center  135 is at   3.257791 -2.196352 -1.814926
      ESP Fit Center  136 is at   3.976033 -2.196352 -1.814926
      ESP Fit Center  137 is at   3.616912 -1.574336 -1.941571
      ESP Fit Center  138 is at   3.007922 -2.630817  2.294685
      ESP Fit Center  139 is at   3.757982 -2.630817  2.145489
      ESP Fit Center  140 is at   2.632892 -1.981246  2.145489
      ESP Fit Center  141 is at   2.257863 -2.630817  2.145489
      ESP Fit Center  142 is at   2.632892 -3.280387  2.145489
      ESP Fit Center  143 is at   3.382952 -3.280387  2.145489
      ESP Fit Center  144 is at   1.807672 -1.937852  1.720614
      ESP Fit Center  145 is at   1.621993 -2.630817  1.720614
      ESP Fit Center  146 is at   1.807672 -3.323782  1.720614
      ESP Fit Center  147 is at   2.314957 -3.831067  1.720614
      ESP Fit Center  148 is at   3.007922 -4.016746  1.720614
      ESP Fit Center  149 is at   3.700887 -3.831067  1.720614
      ESP Fit Center  150 is at   4.208172 -3.323782  1.720614
      ESP Fit Center  151 is at   1.236689 -3.007304  1.084744
      ESP Fit Center  152 is at   1.542951 -3.695181  1.084744
      ESP Fit Center  153 is at   2.102520 -4.199019  1.084744
      ESP Fit Center  154 is at   2.818642 -4.431701  1.084744
      ESP Fit Center  155 is at   3.567491 -4.352994  1.084744
      ESP Fit Center  156 is at   4.219586 -3.976506  1.084744
      ESP Fit Center  157 is at   4.662174 -3.367337  1.084744
      ESP Fit Center  158 is at   1.341497 -3.662624  0.334685
      ESP Fit Center  159 is at   1.826758 -4.194931  0.334685
      ESP Fit Center  160 is at   2.471543 -4.515995  0.334685
      ESP Fit Center  161 is at   3.188768 -4.582456  0.334685
      ESP Fit Center  162 is at   3.881569 -4.385337  0.334685
      ESP Fit Center  163 is at   4.456380 -3.951260  0.334685
      ESP Fit Center  164 is at   1.542951 -3.695181 -0.415375
      ESP Fit Center  165 is at   2.102520 -4.199019 -0.415375
      ESP Fit Center  166 is at   2.818642 -4.431701 -0.415375
      ESP Fit Center  167 is at   3.567491 -4.352994 -0.415375
      ESP Fit Center  168 is at   4.219586 -3.976506 -0.415375
      ESP Fit Center  169 is at   1.621993 -2.630817 -1.051244
      ESP Fit Center  170 is at   1.807672 -3.323782 -1.051244
      ESP Fit Center  171 is at   2.314957 -3.831067 -1.051244
      ESP Fit Center  172 is at   3.007922 -4.016746 -1.051244
      ESP Fit Center  173 is at   3.700887 -3.831067 -1.051244
      ESP Fit Center  174 is at   4.208172 -3.323782 -1.051244
      ESP Fit Center  175 is at   2.257863 -2.630817 -1.476119
      ESP Fit Center  176 is at   2.632892 -3.280387 -1.476119
      ESP Fit Center  177 is at   3.382952 -3.280387 -1.476119
      ESP Fit Center  178 is at   3.007922 -2.630817 -1.625315
      ESP Fit Center  179 is at   4.842285 -1.497092  2.029102
      ESP Fit Center  180 is at   5.592345 -1.497092  1.879906
      ESP Fit Center  181 is at   5.217315 -0.847521  1.879906
      ESP Fit Center  182 is at   5.217315 -2.146662  1.879906
      ESP Fit Center  183 is at   6.228214 -1.497092  1.455031
      ESP Fit Center  184 is at   6.042535 -0.804127  1.455031
      ESP Fit Center  185 is at   4.842285 -2.883021  1.455031
      ESP Fit Center  186 is at   5.535250 -2.697342  1.455031
      ESP Fit Center  187 is at   6.042535 -2.190056  1.455031
      ESP Fit Center  188 is at   6.653089 -1.497092  0.819161
      ESP Fit Center  189 is at   6.496537 -0.760571  0.819161
      ESP Fit Center  190 is at   5.401854 -3.219269  0.819161
      ESP Fit Center  191 is at   6.053949 -2.842781  0.819161
      ESP Fit Center  192 is at   6.496537 -2.233612  0.819161
      ESP Fit Center  193 is at   6.802285 -1.497092  0.069102
      ESP Fit Center  194 is at   6.669931 -0.789058  0.069102
      ESP Fit Center  195 is at   5.023131 -3.448731  0.069102
      ESP Fit Center  196 is at   5.715932 -3.251612  0.069102
      ESP Fit Center  197 is at   6.290743 -2.817535  0.069102
      ESP Fit Center  198 is at   6.669931 -2.205125  0.069102
      ESP Fit Center  199 is at   6.653089 -1.497092 -0.680958
      ESP Fit Center  200 is at   6.496537 -0.760571 -0.680958
      ESP Fit Center  201 is at   4.653005 -3.297976 -0.680958
      ESP Fit Center  202 is at   5.401854 -3.219269 -0.680958
      ESP Fit Center  203 is at   6.053949 -2.842781 -0.680958
      ESP Fit Center  204 is at   6.496537 -2.233612 -0.680958
      ESP Fit Center  205 is at   6.228214 -1.497092 -1.316827
      ESP Fit Center  206 is at   6.042535 -0.804127 -1.316827
      ESP Fit Center  207 is at   4.842285 -2.883021 -1.316827
      ESP Fit Center  208 is at   5.535250 -2.697342 -1.316827
      ESP Fit Center  209 is at   6.042535 -2.190056 -1.316827
      ESP Fit Center  210 is at   5.592345 -1.497092 -1.741702
      ESP Fit Center  211 is at   5.217315 -0.847521 -1.741702
      ESP Fit Center  212 is at   4.467255 -0.847521 -1.741702
      ESP Fit Center  213 is at   4.467255 -2.146662 -1.741702
      ESP Fit Center  214 is at   5.217315 -2.146662 -1.741702
      ESP Fit Center  215 is at   4.842285 -1.497092 -1.890898
      ESP Fit Center  216 is at  -0.793613  0.350213  2.052290
      ESP Fit Center  217 is at  -0.075371  0.350213  1.925644
      ESP Fit Center  218 is at  -0.434492  0.972229  1.925644
      ESP Fit Center  219 is at  -1.152734  0.972229  1.925644
      ESP Fit Center  220 is at  -1.511855  0.350213  1.925644
      ESP Fit Center  221 is at  -1.152734 -0.271803  1.925644
      ESP Fit Center  222 is at  -0.434492 -0.271803  1.925644
      ESP Fit Center  223 is at  -0.232863 -0.877658  1.560983
      ESP Fit Center  224 is at  -0.232863 -0.877658 -1.656403
      ESP Fit Center  225 is at  -0.434492  0.972229 -2.021065
      ESP Fit Center  226 is at  -0.434492 -0.271803 -2.021065
      ESP Fit Center  227 is at  -0.793613  0.350213 -2.147710
      ESP Fit Center  228 is at  -1.810742  1.251322  1.944213
      ESP Fit Center  229 is at  -1.451621  1.873338  1.817567
      ESP Fit Center  230 is at  -0.675173  1.981108  1.452906
      ESP Fit Center  231 is at  -1.092500  1.251322 -2.129142
      ESP Fit Center  232 is at  -1.451621  1.873338 -2.129142
      ESP Fit Center  233 is at  -2.169863  1.873338 -2.129142
      ESP Fit Center  234 is at  -2.528984  1.251322 -2.129142
      ESP Fit Center  235 is at  -1.451621  0.629306 -2.129142
      ESP Fit Center  236 is at  -1.810742  1.251322 -2.255787
      ESP Fit Center  237 is at  -1.678323  2.463350  1.687122
      ESP Fit Center  238 is at  -0.928264  2.463350  1.537926
      ESP Fit Center  239 is at  -1.303293  3.112920  1.537926
      ESP Fit Center  240 is at  -2.053353  3.112920  1.537926
      ESP Fit Center  241 is at  -0.478073  3.156314  1.113051
      ESP Fit Center  242 is at  -0.985359  3.663600  1.113051
      ESP Fit Center  243 is at  -1.678323  3.849279  1.113051
      ESP Fit Center  244 is at  -2.371288  3.663600  1.113051
      ESP Fit Center  245 is at  -1.118754  4.185527  0.477181
      ESP Fit Center  246 is at  -1.867604  4.264234  0.477181
      ESP Fit Center  247 is at  -2.583725  4.031552  0.477181
      ESP Fit Center  248 is at  -0.804676  4.217870 -0.272878
      ESP Fit Center  249 is at  -1.497477  4.414989 -0.272878
      ESP Fit Center  250 is at  -2.214703  4.348528 -0.272878
      ESP Fit Center  251 is at  -2.859487  4.027464 -0.272878
      ESP Fit Center  252 is at  -3.344749  3.495157 -0.272878
      ESP Fit Center  253 is at  -1.118754  4.185527 -1.022938
      ESP Fit Center  254 is at  -1.867604  4.264234 -1.022938
      ESP Fit Center  255 is at  -2.583725  4.031552 -1.022938
      ESP Fit Center  256 is at  -3.143294  3.527714 -1.022938
      ESP Fit Center  257 is at  -3.449557  2.839837 -1.022938
      ESP Fit Center  258 is at  -0.478073  3.156314 -1.658807
      ESP Fit Center  259 is at  -0.985359  3.663600 -1.658807
      ESP Fit Center  260 is at  -1.678323  3.849279 -1.658807
      ESP Fit Center  261 is at  -2.371288  3.663600 -1.658807
      ESP Fit Center  262 is at  -2.878573  3.156314 -1.658807
      ESP Fit Center  263 is at  -3.064252  2.463350 -1.658807
      ESP Fit Center  264 is at  -0.928264  2.463350 -2.083682
      ESP Fit Center  265 is at  -1.303293  3.112920 -2.083682
      ESP Fit Center  266 is at  -2.053353  3.112920 -2.083682
      ESP Fit Center  267 is at  -2.428383  2.463350 -2.083682
      ESP Fit Center  268 is at  -1.678323  2.463350 -2.232878
      ESP Fit Center  269 is at  -3.818992  2.711643 -0.444956
      ESP Fit Center  270 is at  -4.352173  2.625366 -0.590429
      ESP Fit Center  271 is at  -4.997343  2.180037 -0.590429
      ESP Fit Center  272 is at  -5.361658  1.485893 -0.590429
      ESP Fit Center  273 is at  -3.573949  2.719860 -1.338099
      ESP Fit Center  274 is at  -4.352173  2.625366 -1.338099
      ESP Fit Center  275 is at  -4.997343  2.180037 -1.338099
      ESP Fit Center  276 is at  -5.361658  1.485893 -1.338099
      ESP Fit Center  277 is at  -2.708748  1.865965 -2.011727
      ESP Fit Center  278 is at  -3.365486  2.343113 -2.011727
      ESP Fit Center  279 is at  -4.177260  2.343113 -2.011727
      ESP Fit Center  280 is at  -4.833998  1.865965 -2.011727
      ESP Fit Center  281 is at  -5.084850  1.093923 -2.011727
      ESP Fit Center  282 is at  -3.042448  1.093923 -2.477892
      ESP Fit Center  283 is at  -3.406911  1.725190 -2.477892
      ESP Fit Center  284 is at  -4.135835  1.725190 -2.477892
      ESP Fit Center  285 is at  -4.500298  1.093923 -2.477892
      ESP Fit Center  286 is at  -3.771373  1.093923 -2.644264
      ESP Fit Center  287 is at  -4.302264  1.811336  3.171656
      ESP Fit Center  288 is at  -4.827109  2.209471  2.806995
      ESP Fit Center  289 is at  -5.238319  1.569617  2.806995
      ESP Fit Center  290 is at  -5.414465  2.258297  2.248302
      ESP Fit Center  291 is at  -5.414465  2.258297  0.148302
      ESP Fit Center  292 is at  -3.424155 -1.266945  2.985142
      ESP Fit Center  293 is at  -2.707638 -1.266945  2.904410
      ESP Fit Center  294 is at  -4.140672 -1.266945  2.904410
      ESP Fit Center  295 is at  -3.782414 -1.887468  2.904410
      ESP Fit Center  296 is at  -3.065896 -1.887468  2.904410
      ESP Fit Center  297 is at  -2.027049 -1.266945  2.666262
      ESP Fit Center  298 is at  -2.214226 -0.568392  2.666262
      ESP Fit Center  299 is at  -4.634084 -0.568392  2.666262
      ESP Fit Center  300 is at  -4.821261 -1.266945  2.666262
      ESP Fit Center  301 is at  -4.634084 -1.965498  2.666262
      ESP Fit Center  302 is at  -4.122708 -2.476874  2.666262
      ESP Fit Center  303 is at  -3.424155 -2.664051  2.666262
      ESP Fit Center  304 is at  -2.725602 -2.476874  2.666262
      ESP Fit Center  305 is at  -2.214226 -1.965498  2.666262
      ESP Fit Center  306 is at  -1.416518 -1.266945  2.282639
      ESP Fit Center  307 is at  -1.552089 -0.541703  2.282639
      ESP Fit Center  308 is at  -5.397608 -0.898043  2.282639
      ESP Fit Center  309 is at  -5.397608 -1.635848  2.282639
      ESP Fit Center  310 is at  -5.131082 -2.323830  2.282639
      ESP Fit Center  311 is at  -4.634027 -2.869074  2.282639
      ESP Fit Center  312 is at  -3.973571 -3.197942  2.282639
      ESP Fit Center  313 is at  -3.238914 -3.266018  2.282639
      ESP Fit Center  314 is at  -2.529274 -3.064108  2.282639
      ESP Fit Center  315 is at  -1.940493 -2.619482  2.282639
      ESP Fit Center  316 is at  -1.552089 -1.992188  2.282639
      ESP Fit Center  317 is at  -0.906658 -1.266945  1.772779
      ESP Fit Center  318 is at  -5.913534 -0.891732  1.772779
      ESP Fit Center  319 is at  -5.913534 -1.642159  1.772779
      ESP Fit Center  320 is at  -5.692342 -2.359246  1.772779
      ESP Fit Center  321 is at  -5.269611 -2.979278  1.772779
      ESP Fit Center  322 is at  -4.682904 -3.447162  1.772779
      ESP Fit Center  323 is at  -3.984351 -3.721324  1.772779
      ESP Fit Center  324 is at  -3.236022 -3.777403  1.772779
      ESP Fit Center  325 is at  -2.504410 -3.610418  1.772779
      ESP Fit Center  326 is at  -1.854521 -3.235204  1.772779
      ESP Fit Center  327 is at  -1.344101 -2.685102  1.772779
      ESP Fit Center  328 is at  -1.018503 -2.008991  1.772779
      ESP Fit Center  329 is at  -6.302399 -0.903339  1.162248
      ESP Fit Center  330 is at  -6.302399 -1.630552  1.162248
      ESP Fit Center  331 is at  -6.121548 -2.334919  1.162248
      ESP Fit Center  332 is at  -5.771210 -2.972181  1.162248
      ESP Fit Center  333 is at  -5.273398 -3.502297  1.162248
      ESP Fit Center  334 is at  -4.659392 -3.891957  1.162248
      ESP Fit Center  335 is at  -3.967771 -4.116678  1.162248
      ESP Fit Center  336 is at  -3.241992 -4.162340  1.162248
      ESP Fit Center  337 is at  -2.527660 -4.026074  1.162248
      ESP Fit Center  338 is at  -1.869657 -3.716442  1.162248
      ESP Fit Center  339 is at  -1.309330 -3.252898  1.162248
      ESP Fit Center  340 is at  -0.881884 -2.664570  1.162248
      ESP Fit Center  341 is at  -0.614179 -1.988424  1.162248
      ESP Fit Center  342 is at  -6.374102 -0.193252  0.481659
      ESP Fit Center  343 is at  -6.542196 -0.902499  0.481659
      ESP Fit Center  344 is at  -6.542196 -1.631392  0.481659
      ESP Fit Center  345 is at  -6.374102 -2.340638  0.481659
      ESP Fit Center  346 is at  -6.046975 -2.992001  0.481659
      ESP Fit Center  347 is at  -5.578451 -3.550366  0.481659
      ESP Fit Center  348 is at  -4.993789 -3.985631  0.481659
      ESP Fit Center  349 is at  -4.324507 -4.274331  0.481659
      ESP Fit Center  350 is at  -3.606687 -4.400902  0.481659
      ESP Fit Center  351 is at  -2.879027 -4.358521  0.481659
      ESP Fit Center  352 is at  -2.180754 -4.149472  0.481659
      ESP Fit Center  353 is at  -1.549514 -3.785025  0.481659
      ESP Fit Center  354 is at  -1.019336 -3.284828  0.481659
      ESP Fit Center  355 is at  -0.618803 -2.675846  0.481659
      ESP Fit Center  356 is at  -5.941652  0.740692 -0.234858
      ESP Fit Center  357 is at  -6.325275  0.130160 -0.234858
      ESP Fit Center  358 is at  -6.563423 -0.550428 -0.234858
      ESP Fit Center  359 is at  -6.644155 -1.266945 -0.234858
      ESP Fit Center  360 is at  -6.563423 -1.983463 -0.234858
      ESP Fit Center  361 is at  -6.325275 -2.664051 -0.234858
      ESP Fit Center  362 is at  -5.941652 -3.274582 -0.234858
      ESP Fit Center  363 is at  -5.431792 -3.784443 -0.234858
      ESP Fit Center  364 is at  -4.821261 -4.168065 -0.234858
      ESP Fit Center  365 is at  -4.140672 -4.406213 -0.234858
      ESP Fit Center  366 is at  -3.424155 -4.486945 -0.234858
      ESP Fit Center  367 is at  -2.707638 -4.406213 -0.234858
      ESP Fit Center  368 is at  -2.027049 -4.168065 -0.234858
      ESP Fit Center  369 is at  -1.416518 -3.784443 -0.234858
      ESP Fit Center  370 is at  -0.906658 -3.274582 -0.234858
      ESP Fit Center  371 is at  -0.523035 -2.664051 -0.234858
      ESP Fit Center  372 is at  -5.578451  1.016475 -0.951375
      ESP Fit Center  373 is at  -6.046975  0.458111 -0.951375
      ESP Fit Center  374 is at  -6.374102 -0.193252 -0.951375
      ESP Fit Center  375 is at  -6.542196 -0.902499 -0.951375
      ESP Fit Center  376 is at  -6.542196 -1.631392 -0.951375
      ESP Fit Center  377 is at  -6.374102 -2.340638 -0.951375
      ESP Fit Center  378 is at  -6.046975 -2.992001 -0.951375
      ESP Fit Center  379 is at  -5.578451 -3.550366 -0.951375
      ESP Fit Center  380 is at  -4.993789 -3.985631 -0.951375
      ESP Fit Center  381 is at  -4.324507 -4.274331 -0.951375
      ESP Fit Center  382 is at  -3.606687 -4.400902 -0.951375
      ESP Fit Center  383 is at  -2.879027 -4.358521 -0.951375
      ESP Fit Center  384 is at  -2.180754 -4.149472 -0.951375
      ESP Fit Center  385 is at  -1.549514 -3.785025 -0.951375
      ESP Fit Center  386 is at  -1.019336 -3.284828 -0.951375
      ESP Fit Center  387 is at  -0.618803 -2.675846 -0.951375
      ESP Fit Center  388 is at  -0.369506 -1.990910 -0.951375
      ESP Fit Center  389 is at  -0.523035 -1.266945 -1.631964
      ESP Fit Center  390 is at  -5.771210  0.438290 -1.631964
      ESP Fit Center  391 is at  -6.121548 -0.198972 -1.631964
      ESP Fit Center  392 is at  -6.302399 -0.903339 -1.631964
      ESP Fit Center  393 is at  -6.302399 -1.630552 -1.631964
      ESP Fit Center  394 is at  -6.121548 -2.334919 -1.631964
      ESP Fit Center  395 is at  -5.771210 -2.972181 -1.631964
      ESP Fit Center  396 is at  -5.273398 -3.502297 -1.631964
      ESP Fit Center  397 is at  -4.659392 -3.891957 -1.631964
      ESP Fit Center  398 is at  -3.967771 -4.116678 -1.631964
      ESP Fit Center  399 is at  -3.241992 -4.162340 -1.631964
      ESP Fit Center  400 is at  -2.527660 -4.026074 -1.631964
      ESP Fit Center  401 is at  -1.869657 -3.716442 -1.631964
      ESP Fit Center  402 is at  -1.309330 -3.252898 -1.631964
      ESP Fit Center  403 is at  -0.881884 -2.664570 -1.631964
      ESP Fit Center  404 is at  -0.614179 -1.988424 -1.631964
      ESP Fit Center  405 is at  -0.906658 -1.266945 -2.242495
      ESP Fit Center  406 is at  -1.018503 -0.524900 -2.242495
      ESP Fit Center  407 is at  -1.344101  0.151211 -2.242495
      ESP Fit Center  408 is at  -1.854521  0.701313 -2.242495
      ESP Fit Center  409 is at  -2.504410  1.076527 -2.242495
      ESP Fit Center  410 is at  -5.269611  0.445388 -2.242495
      ESP Fit Center  411 is at  -5.692342 -0.174644 -2.242495
      ESP Fit Center  412 is at  -5.913534 -0.891732 -2.242495
      ESP Fit Center  413 is at  -5.913534 -1.642159 -2.242495
      ESP Fit Center  414 is at  -5.692342 -2.359246 -2.242495
      ESP Fit Center  415 is at  -5.269611 -2.979278 -2.242495
      ESP Fit Center  416 is at  -4.682904 -3.447162 -2.242495
      ESP Fit Center  417 is at  -3.984351 -3.721324 -2.242495
      ESP Fit Center  418 is at  -3.236022 -3.777403 -2.242495
      ESP Fit Center  419 is at  -2.504410 -3.610418 -2.242495
      ESP Fit Center  420 is at  -1.854521 -3.235204 -2.242495
      ESP Fit Center  421 is at  -1.344101 -2.685102 -2.242495
      ESP Fit Center  422 is at  -1.018503 -2.008991 -2.242495
      ESP Fit Center  423 is at  -1.416518 -1.266945 -2.752355
      ESP Fit Center  424 is at  -1.552089 -0.541703 -2.752355
      ESP Fit Center  425 is at  -1.940493  0.085591 -2.752355
      ESP Fit Center  426 is at  -2.529274  0.530218 -2.752355
      ESP Fit Center  427 is at  -3.238914  0.732128 -2.752355
      ESP Fit Center  428 is at  -3.973571  0.664052 -2.752355
      ESP Fit Center  429 is at  -4.634027  0.335184 -2.752355
      ESP Fit Center  430 is at  -5.131082 -0.210061 -2.752355
      ESP Fit Center  431 is at  -5.397608 -0.898043 -2.752355
      ESP Fit Center  432 is at  -5.397608 -1.635848 -2.752355
      ESP Fit Center  433 is at  -5.131082 -2.323830 -2.752355
      ESP Fit Center  434 is at  -4.634027 -2.869074 -2.752355
      ESP Fit Center  435 is at  -3.973571 -3.197942 -2.752355
      ESP Fit Center  436 is at  -3.238914 -3.266018 -2.752355
      ESP Fit Center  437 is at  -2.529274 -3.064108 -2.752355
      ESP Fit Center  438 is at  -1.940493 -2.619482 -2.752355
      ESP Fit Center  439 is at  -1.552089 -1.992188 -2.752355
      ESP Fit Center  440 is at  -2.027049 -1.266945 -3.135978
      ESP Fit Center  441 is at  -2.214226 -0.568392 -3.135978
      ESP Fit Center  442 is at  -2.725602 -0.057016 -3.135978
      ESP Fit Center  443 is at  -3.424155  0.130160 -3.135978
      ESP Fit Center  444 is at  -4.122708 -0.057016 -3.135978
      ESP Fit Center  445 is at  -4.634084 -0.568392 -3.135978
      ESP Fit Center  446 is at  -4.821261 -1.266945 -3.135978
      ESP Fit Center  447 is at  -4.634084 -1.965498 -3.135978
      ESP Fit Center  448 is at  -4.122708 -2.476874 -3.135978
      ESP Fit Center  449 is at  -3.424155 -2.664051 -3.135978
      ESP Fit Center  450 is at  -2.725602 -2.476874 -3.135978
      ESP Fit Center  451 is at  -2.214226 -1.965498 -3.135978
      ESP Fit Center  452 is at  -2.707638 -1.266945 -3.374126
      ESP Fit Center  453 is at  -3.065896 -0.646423 -3.374126
      ESP Fit Center  454 is at  -3.782414 -0.646423 -3.374126
      ESP Fit Center  455 is at  -4.140672 -1.266945 -3.374126
      ESP Fit Center  456 is at  -3.782414 -1.887468 -3.374126
      ESP Fit Center  457 is at  -3.065896 -1.887468 -3.374126
      ESP Fit Center  458 is at  -3.424155 -1.266945 -3.454858
      ESP Fit Center  459 is at   7.052146  0.740437 -0.543353
      ESP Fit Center  460 is at   6.864537 -0.020723 -0.543353
      ESP Fit Center  461 is at   7.052146  0.740437 -1.291023
      ESP Fit Center  462 is at   6.864537  1.501598 -1.291023
      ESP Fit Center  463 is at   6.344688 -0.607511 -1.291023
      ESP Fit Center  464 is at   6.864537 -0.020723 -1.291023
      ESP Fit Center  465 is at   6.727744  0.740437 -1.964651
      ESP Fit Center  466 is at   6.476892  1.512480 -1.964651
      ESP Fit Center  467 is at   5.820154  1.989628 -1.964651
      ESP Fit Center  468 is at   4.351642 -0.031605 -1.964651
      ESP Fit Center  469 is at   5.008380 -0.508753 -1.964651
      ESP Fit Center  470 is at   5.820154 -0.508753 -1.964651
      ESP Fit Center  471 is at   6.476892 -0.031605 -1.964651
      ESP Fit Center  472 is at   6.143192  0.740437 -2.430816
      ESP Fit Center  473 is at   5.778729  1.371705 -2.430816
      ESP Fit Center  474 is at   5.049805  1.371705 -2.430816
      ESP Fit Center  475 is at   4.685342  0.740437 -2.430816
      ESP Fit Center  476 is at   5.049805  0.109170 -2.430816
      ESP Fit Center  477 is at   5.778729  0.109170 -2.430816
      ESP Fit Center  478 is at   5.414267  0.740437 -2.597188
      ESP Fit Center  479 is at   5.450270  2.920621  1.406263
      ESP Fit Center  480 is at   4.721345  2.920621  1.406263
      ESP Fit Center  481 is at   6.148433  3.061396  0.940098
      ESP Fit Center  482 is at   5.491694  3.538544  0.940098
      ESP Fit Center  483 is at   4.679921  3.538544  0.940098
      ESP Fit Center  484 is at   6.723687  2.289353  0.266470
      ESP Fit Center  485 is at   6.536078  3.050514  0.266470
      ESP Fit Center  486 is at   6.016229  3.637301  0.266470
      ESP Fit Center  487 is at   5.283232  3.915290  0.266470
      ESP Fit Center  488 is at   4.505008  3.820797  0.266470
      ESP Fit Center  489 is at   6.723687  2.289353 -0.481200
      ESP Fit Center  490 is at   6.536078  3.050514 -0.481200
      ESP Fit Center  491 is at   6.016229  3.637301 -0.481200
      ESP Fit Center  492 is at   5.283232  3.915290 -0.481200
      ESP Fit Center  493 is at   4.505008  3.820797 -0.481200
      ESP Fit Center  494 is at   6.399285  2.289353 -1.154828
      ESP Fit Center  495 is at   6.148433  3.061396 -1.154828
      ESP Fit Center  496 is at   5.491694  3.538544 -1.154828
      ESP Fit Center  497 is at   4.679921  3.538544 -1.154828
      ESP Fit Center  498 is at   5.450270  2.920621 -1.620993
      ESP Fit Center  499 is at   4.721345  2.920621 -1.620993
      ESP Fit Center  500 is at   5.409270  0.813075  2.510073
      ESP Fit Center  501 is at   6.138195  0.813075  2.343701
      ESP Fit Center  502 is at   5.773732  1.444343  2.343701
      ESP Fit Center  503 is at   5.044808  1.444343  2.343701
      ESP Fit Center  504 is at   4.680345  0.813075  2.343701
      ESP Fit Center  505 is at   5.044808  0.181808  2.343701
      ESP Fit Center  506 is at   5.773732  0.181808  2.343701
      ESP Fit Center  507 is at   6.722747  0.813075  1.877536
      ESP Fit Center  508 is at   6.471895  1.585118  1.877536
      ESP Fit Center  509 is at   5.815157  2.062266  1.877536
      ESP Fit Center  510 is at   5.003383  2.062266  1.877536
      ESP Fit Center  511 is at   4.346645  0.041033  1.877536
      ESP Fit Center  512 is at   5.003383 -0.436115  1.877536
      ESP Fit Center  513 is at   5.815157 -0.436115  1.877536
      ESP Fit Center  514 is at   6.471895  0.041033  1.877536
      ESP Fit Center  515 is at   7.047149  0.813075  1.203908
      ESP Fit Center  516 is at   6.859540  1.574236  1.203908
      ESP Fit Center  517 is at   6.339691  2.161023  1.203908
      ESP Fit Center  518 is at   6.339691 -0.534873  1.203908
      ESP Fit Center  519 is at   6.859540  0.051915  1.203908
      ESP Fit Center  520 is at   7.047149  0.813075  0.456238
      ESP Fit Center  521 is at   6.859540  0.051915  0.456238
      ESP Fit Center  522 is at   3.326819  3.643758  1.276742
      ESP Fit Center  523 is at   2.597894  3.643758  1.276742
      ESP Fit Center  524 is at   4.024982  3.784533  0.810577
      ESP Fit Center  525 is at   3.368243  4.261682  0.810577
      ESP Fit Center  526 is at   2.556470  4.261682  0.810577
      ESP Fit Center  527 is at   1.899732  3.784533  0.810577
      ESP Fit Center  528 is at   3.892778  4.360439  0.136949
      ESP Fit Center  529 is at   3.159781  4.638428  0.136949
      ESP Fit Center  530 is at   2.381557  4.543934  0.136949
[...]
 3210 Fit      -0.027128
 3211 Fit      -0.024792
 3212 Fit      -0.022336
 3213 Fit      -0.019545
 3214 Fit      -0.016581
 3215 Fit      -0.012824
 3216 Fit      -0.029995
 3217 Fit      -0.027318
 3218 Fit      -0.025004
 3219 Fit      -0.022530
 3220 Fit      -0.019749
 3221 Fit      -0.016407
 3222 Fit      -0.012694
 3223 Fit      -0.029087
 3224 Fit      -0.026769
 3225 Fit      -0.024628
 3226 Fit      -0.022249
 3227 Fit      -0.019529
 3228 Fit      -0.015773
 3229 Fit      -0.011811
 3230 Fit      -0.027215
 3231 Fit      -0.025472
 3232 Fit      -0.023678
 3233 Fit      -0.021516
 3234 Fit      -0.018908
 3235 Fit      -0.014714
 3236 Fit      -0.024208
 3237 Fit      -0.023428
 3238 Fit      -0.022261
 3239 Fit      -0.020474
 3240 Fit      -0.017997
 3241 Fit      -0.013287
 3242 Fit      -0.019405
 3243 Fit      -0.019678
 3244 Fit      -0.018732
 3245 Fit      -0.016628
 3246 Fit      -0.011514
 3247 Fit      -0.014396
 3248 Fit      -0.015676
 3249 Fit      -0.014639
 3250 Fit      -0.009294
 3251 Fit      -0.011239
 3252 Fit      -0.006417
 3253 Fit       0.007655
 3254 Fit       0.008330
 3255 Fit       0.006203
 3256 Fit       0.004730
 3257 Fit      -0.000334
 3258 Fit       0.000605
 3259 Fit      -0.001109
 3260 Fit      -0.003283
 3261 Fit      -0.003290
 3262 Fit      -0.005576
 3263 Fit      -0.006720
 3264 Fit      -0.005132
 3265 Fit      -0.007173
 3266 Fit      -0.009006
 3267 Fit      -0.008430
 3268 Fit      -0.009027
 3269 Fit      -0.010857
 3270 Fit      -0.010490
 3271 Fit      -0.007720
 3272 Fit      -0.008771
 3273 Fit      -0.011658
 3274 Fit      -0.012302
 3275 Fit      -0.010899
 3276 Fit      -0.007163
 3277 Fit      -0.009256
 3278 Fit      -0.012259
 3279 Fit      -0.013097
 3280 Fit      -0.012032
 3281 Fit      -0.008900
 3282 Fit      -0.003299
 3283 Fit      -0.010573
 3284 Fit      -0.012798
 3285 Fit      -0.013112
 3286 Fit      -0.011583
 3287 Fit      -0.007945
 3288 Fit      -0.001653
 3289 Fit      -0.009674
 3290 Fit      -0.012093
 3291 Fit      -0.012572
 3292 Fit      -0.011055
 3293 Fit      -0.007197
 3294 Fit      -0.000289
 3295 Fit      -0.006013
 3296 Fit      -0.009188
 3297 Fit      -0.011114
 3298 Fit      -0.011067
 3299 Fit      -0.008647
 3300 Fit      -0.003325
 3301 Fit      -0.005849
 3302 Fit      -0.008293
 3303 Fit      -0.009338
 3304 Fit      -0.007745
 3305 Fit      -0.002861
 3306 Fit      -0.003135
 3307 Fit      -0.006118
 3308 Fit      -0.005124
 3309 Fit      -0.001952
 3310 Fit       0.003656
 3311 Fit       0.010645
 3312 Fit       0.007153
 3313 Fit       0.011731
 3314 Fit       0.004710
 3315 Fit       0.009623
 3316 Fit       0.011204
 3317 Fit       0.011450
 3318 Fit       0.010436
 3319 Fit       0.010364
 3320 Fit       0.010661
 3321 Fit       0.010958
 3322 Fit       0.011126
 3323 Fit       0.011086
 3324 Fit       0.009324
 3325 Fit       0.008965
 3326 Fit       0.009562
 3327 Fit       0.010214
 3328 Fit       0.010641
 3329 Fit       0.011009
 3330 Fit       0.011316
 3331 Fit       0.011270
 3332 Fit       0.007410
 3333 Fit       0.006457
 3334 Fit       0.010631
 3335 Fit       0.010990
 3336 Fit       0.011507
 3337 Fit       0.011004
 3338 Fit       0.011482
 3339 Fit       0.011233
 3340 Fit       0.011957
 3341 Fit       0.011859
 3342 Fit       0.011484
 3343 Fit       0.012762
 3344 Fit       0.011627
 3345 Fit       0.013382
 3346 Fit       0.011277
 3347 Fit       0.006990
 3348 Fit       0.007120
 3349 Fit       0.009063
 3350 Fit       0.008811
 3351 Fit       0.006717
 3352 Fit       0.005267
 3353 Fit       0.005434
 3354 Fit       0.007102
 3355 Fit       0.009230
 3356 Fit       0.011296
 3357 Fit       0.010739
 3358 Fit       0.008513
 3359 Fit       0.006395
 3360 Fit       0.004810
 3361 Fit       0.003919
 3362 Fit       0.003704
 3363 Fit       0.004162
 3364 Fit       0.005330
 3365 Fit       0.007012
 3366 Fit       0.008828
 3367 Fit       0.010900
 3368 Fit       0.010226
 3369 Fit       0.008080
 3370 Fit       0.006134
 3371 Fit       0.004592
 3372 Fit       0.003534
 3373 Fit       0.002912
 3374 Fit       0.002647
 3375 Fit       0.002704
 3376 Fit       0.003127
 3377 Fit       0.004008
 3378 Fit       0.005359
 3379 Fit       0.006971
 3380 Fit       0.008356
 3381 Fit       0.009831
 3382 Fit       0.011676
 3383 Fit       0.009922
 3384 Fit       0.007868
 3385 Fit       0.005984
 3386 Fit       0.004473
 3387 Fit       0.003377
 3388 Fit       0.002648
 3389 Fit       0.002200
 3390 Fit       0.001957
 3391 Fit       0.001873
 3392 Fit       0.001953
 3393 Fit       0.002264
 3394 Fit       0.002915
 3395 Fit       0.004001
 3396 Fit       0.005452
 3397 Fit       0.007116
 3398 Fit       0.008027
 3399 Fit       0.008747
 3400 Fit       0.009891
 3401 Fit       0.011434
 3402 Fit       0.008987
 3403 Fit       0.006843
 3404 Fit       0.005084
 3405 Fit       0.003761
 3406 Fit       0.002830
 3407 Fit       0.002213
 3408 Fit       0.001824
 3409 Fit       0.001584
 3410 Fit       0.001434
 3411 Fit       0.001349
 3412 Fit       0.001341
 3413 Fit       0.001466
 3414 Fit       0.001838
 3415 Fit       0.002619
 3416 Fit       0.003934
 3417 Fit       0.005624
 3418 Fit       0.009104
 3419 Fit       0.006790
 3420 Fit       0.004976
 3421 Fit       0.003637
 3422 Fit       0.002701
 3423 Fit       0.002081
 3424 Fit       0.001691
 3425 Fit       0.001449
 3426 Fit       0.001287
 3427 Fit       0.001154
 3428 Fit       0.001025
 3429 Fit       0.000901
 3430 Fit       0.000818
 3431 Fit       0.000855
 3432 Fit       0.001168
 3433 Fit       0.002029
 3434 Fit       0.003725
 3435 Fit       0.006002
 3436 Fit       0.008875
 3437 Fit       0.006585
 3438 Fit       0.004820
 3439 Fit       0.003521
 3440 Fit       0.002609
 3441 Fit       0.002004
 3442 Fit       0.001626
 3443 Fit       0.001400
 3444 Fit       0.001259
 3445 Fit       0.001145
 3446 Fit       0.001017
 3447 Fit       0.000851
 3448 Fit       0.000639
 3449 Fit       0.000391
 3450 Fit       0.000142
 3451 Fit      -0.000032
 3452 Fit       0.000071
 3453 Fit       0.000944
 3454 Fit       0.009617
 3455 Fit       0.007237
 3456 Fit       0.005344
 3457 Fit       0.003910
 3458 Fit       0.002872
 3459 Fit       0.002162
 3460 Fit       0.001708
 3461 Fit       0.001442
 3462 Fit       0.001295
 3463 Fit       0.001206
 3464 Fit       0.001124
 3465 Fit       0.001008
 3466 Fit       0.000831
 3467 Fit       0.000576
 3468 Fit       0.000236
 3469 Fit      -0.000192
 3470 Fit      -0.000708
 3471 Fit      -0.001278
 3472 Fit      -0.001696
 3473 Fit       0.012641
 3474 Fit       0.010124
 3475 Fit       0.007767
 3476 Fit       0.005791
 3477 Fit       0.004240
 3478 Fit       0.003086
 3479 Fit       0.002278
 3480 Fit       0.001754
 3481 Fit       0.001446
 3482 Fit       0.001289
 3483 Fit       0.001216
 3484 Fit       0.001169
 3485 Fit       0.001099
 3486 Fit       0.000967
 3487 Fit       0.000748
 3488 Fit       0.000424
 3489 Fit      -0.000022
 3490 Fit      -0.000614
 3491 Fit      -0.001398
 3492 Fit      -0.002432
 3493 Fit       0.012271
 3494 Fit       0.010186
 3495 Fit       0.008049
 3496 Fit       0.006133
 3497 Fit       0.004549
 3498 Fit       0.003322
 3499 Fit       0.002430
 3500 Fit       0.001828
 3501 Fit       0.001462
 3502 Fit       0.001271
 3503 Fit       0.001192
 3504 Fit       0.001165
 3505 Fit       0.001138
 3506 Fit       0.001065
 3507 Fit       0.000914
 3508 Fit       0.000662
 3509 Fit       0.000291
 3510 Fit      -0.000216
 3511 Fit      -0.000893
 3512 Fit      -0.001804
 3513 Fit      -0.003042
 3514 Fit       0.013764
 3515 Fit       0.012718
 3516 Fit       0.011106
 3517 Fit       0.009210
 3518 Fit       0.007306
 3519 Fit       0.005585
 3520 Fit       0.004147
 3521 Fit       0.003024
 3522 Fit       0.002206
 3523 Fit       0.001658
 3524 Fit       0.001332
 3525 Fit       0.001171
 3526 Fit       0.001114
 3527 Fit       0.001104
 3528 Fit       0.001088
 3529 Fit       0.001024
 3530 Fit       0.000880
 3531 Fit       0.000633
 3532 Fit       0.000272
 3533 Fit      -0.000215
 3534 Fit      -0.000845
 3535 Fit      -0.001649
 3536 Fit      -0.002644
 3537 Fit       0.012751
 3538 Fit       0.013405
 3539 Fit       0.012616
 3540 Fit       0.011156
 3541 Fit       0.009400
 3542 Fit       0.007586
 3543 Fit       0.005888
 3544 Fit       0.004417
 3545 Fit       0.003227
 3546 Fit       0.002329
 3547 Fit       0.001705
 3548 Fit       0.001315
 3549 Fit       0.001107
 3550 Fit       0.001024
 3551 Fit       0.001006
 3552 Fit       0.000999
 3553 Fit       0.000957
 3554 Fit       0.000845
 3555 Fit       0.000642
 3556 Fit       0.000339
 3557 Fit      -0.000064
 3558 Fit      -0.000557
 3559 Fit      -0.001116
 3560 Fit      -0.001659
 3561 Fit      -0.001875
 3562 Fit       0.012683
 3563 Fit       0.012430
 3564 Fit       0.011199
 3565 Fit       0.009569
 3566 Fit       0.007840
 3567 Fit       0.006183
 3568 Fit       0.004705
 3569 Fit       0.003470
 3570 Fit       0.002504
 3571 Fit       0.001802
 3572 Fit       0.001335
 3573 Fit       0.001063
 3574 Fit       0.000931
 3575 Fit       0.000884
 3576 Fit       0.000868
 3577 Fit       0.000837
 3578 Fit       0.000754
 3579 Fit       0.000599
 3580 Fit       0.000366
 3581 Fit       0.000065
 3582 Fit      -0.000274
 3583 Fit      -0.000592
 3584 Fit      -0.000764
 3585 Fit      -0.000511
 3586 Fit       0.000705
 3587 Fit       0.010563
 3588 Fit       0.011748
 3589 Fit       0.011263
 3590 Fit       0.009936
 3591 Fit       0.008298
 3592 Fit       0.006631
 3593 Fit       0.005092
 3594 Fit       0.003768
 3595 Fit       0.002702
 3596 Fit       0.001904
 3597 Fit       0.001355
 3598 Fit       0.001016
 3599 Fit       0.000835
 3600 Fit       0.000753
 3601 Fit       0.000713
 3602 Fit       0.000667
 3603 Fit       0.000578
 3604 Fit       0.000432
 3605 Fit       0.000234
 3606 Fit       0.000015
 3607 Fit      -0.000164
 3608 Fit      -0.000191
 3609 Fit       0.000118
 3610 Fit       0.001010
 3611 Fit       0.002566
 3612 Fit       0.003607
 3613 Fit       0.003589
 3614 Fit       0.003394
 3615 Fit       0.003311
 3616 Fit       0.002862
 3617 Fit       0.001598
 3618 Fit       0.000728
 3619 Fit       0.001950
 3620 Fit       0.005030
 3621 Fit       0.008205
 3622 Fit       0.010044
 3623 Fit       0.010272
 3624 Fit       0.009373
 3625 Fit       0.007932
 3626 Fit       0.006344
 3627 Fit       0.004836
 3628 Fit       0.003527
 3629 Fit       0.002478
 3630 Fit       0.001700
 3631 Fit       0.001174
 3632 Fit       0.000855
 3633 Fit       0.000681
 3634 Fit       0.000590
 3635 Fit       0.000524
 3636 Fit       0.000441
 3637 Fit       0.000325
 3638 Fit       0.000188
 3639 Fit       0.000077
 3640 Fit       0.000078
 3641 Fit       0.000317
 3642 Fit       0.000928
 3643 Fit       0.001929
 3644 Fit       0.003005
 3645 Fit       0.002952
 3646 Fit       0.003323
 3647 Fit       0.003566
 3648 Fit       0.003769
 3649 Fit       0.003820
 3650 Fit       0.003938
 3651 Fit       0.004754
 3652 Fit       0.006356
 3653 Fit       0.007953
 3654 Fit       0.008699
 3655 Fit       0.008390
 3656 Fit       0.007340
 3657 Fit       0.005962
 3658 Fit       0.004557
 3659 Fit       0.003303
 3660 Fit       0.002287
 3661 Fit       0.001536
 3662 Fit       0.001031
 3663 Fit       0.000723
 3664 Fit       0.000546
 3665 Fit       0.000437
 3666 Fit       0.000349
 3667 Fit       0.000263
 3668 Fit       0.000195
 3669 Fit       0.000202
 3670 Fit       0.000373
 3671 Fit       0.000798
 3672 Fit       0.001495
 3673 Fit       0.002305
 3674 Fit       0.002521
 3675 Fit       0.003093
 3676 Fit       0.003600
 3677 Fit       0.004081
 3678 Fit       0.004615
 3679 Fit       0.005395
 3680 Fit       0.006359
 3681 Fit       0.007010
 3682 Fit       0.006919
 3683 Fit       0.006121
 3684 Fit       0.004935
 3685 Fit       0.003683
 3686 Fit       0.002575
 3687 Fit       0.001712
 3688 Fit       0.001111
 3689 Fit       0.000733
 3690 Fit       0.000510
 3691 Fit       0.000378
 3692 Fit       0.000300
 3693 Fit       0.000282
 3694 Fit       0.000377
 3695 Fit       0.000660
 3696 Fit       0.001173
 3697 Fit       0.001848
 3698 Fit       0.002247
 3699 Fit       0.002957
 3700 Fit       0.003649
 3701 Fit       0.004345
 3702 Fit       0.005044
 3703 Fit       0.005513
 3704 Fit       0.005379
 3705 Fit       0.004600
 3706 Fit       0.003491
 3707 Fit       0.002404
 3708 Fit       0.001548
 3709 Fit       0.000976
 3710 Fit       0.000644
 3711 Fit       0.000481
 3712 Fit       0.000453
 3713 Fit       0.000590
 3714 Fit       0.000954
 3715 Fit       0.001542
 3716 Fit       0.002092
 3717 Fit       0.002897
 3718 Fit       0.003647
 3719 Fit       0.004144
 3720 Fit       0.004043
 3721 Fit       0.003272
 3722 Fit       0.002253
 3723 Fit       0.001423
 3724 Fit       0.000938
 3725 Fit       0.000773
 3726 Fit       0.000911
 3727 Fit       0.001374
 3728 Fit       0.002033
 3729 Fit       0.002827
 3730 Fit       0.002933
 3731 Fit       0.002131
 3732 Fit       0.001409
 3733 Fit       0.001386
 3734 Fit       0.002052
 3735 Fit      -0.005967
 3736 Fit      -0.000886
 3737 Fit      -0.009814
 3738 Fit      -0.004507
 3739 Fit      -0.000002
 3740 Fit       0.002169
 3741 Fit      -0.006966
 3742 Fit      -0.002936
 3743 Fit       0.000850
 3744 Fit       0.002807
 3745 Fit       0.004345
 3746 Fit      -0.008122
 3747 Fit      -0.005065
 3748 Fit      -0.001781
 3749 Fit       0.001576
 3750 Fit       0.003370
 3751 Fit       0.004618
 3752 Fit       0.000797
 3753 Fit      -0.002112
 3754 Fit      -0.002672
 3755 Fit      -0.000741
 3756 Fit       0.002149
 3757 Fit       0.003608
 3758 Fit       0.003866
 3759 Fit       0.002897
 3760 Fit       0.001299
 3761 Fit       0.000644
 3762 Fit       0.002588
 3763 Fit       0.007834
 3764 Fit       0.009101
 3765 Fit       0.007388
 3766 Fit       0.008967
 3767 Fit       0.010661
 3768 Fit       0.007051
 3769 Fit       0.008596
 3770 Fit       0.010293
 3771 Fit       0.012349
 3772 Fit       0.007084
 3773 Fit       0.008718
 3774 Fit       0.010521
 3775 Fit       0.012790
 3776 Fit       0.005584
 3777 Fit       0.007152
 3778 Fit       0.008813
 3779 Fit       0.010665
 3780 Fit       0.013045
 3781 Fit       0.007248
 3782 Fit       0.008880
 3783 Fit       0.010734
 3784 Fit       0.013138
 3785 Fit       0.007735
 3786 Fit       0.009528
 3787 Fit       0.011653
 3788 Fit       0.008405
 3789 Fit       0.010140
 3790 Fit       0.002739
 3791 Fit       0.002039
 3792 Fit       0.003658
 3793 Fit       0.004114
 3794 Fit       0.003452
 3795 Fit       0.001596
 3796 Fit       0.000452
 3797 Fit       0.001324
 3798 Fit       0.003286
 3799 Fit       0.004552
 3800 Fit       0.005162
 3801 Fit       0.001890
 3802 Fit      -0.002308
 3803 Fit      -0.003475
 3804 Fit      -0.001308
 3805 Fit       0.000559
 3806 Fit       0.002677
 3807 Fit       0.004223
 3808 Fit      -0.006279
 3809 Fit      -0.002414
 3810 Fit      -0.000240
 3811 Fit       0.002061
 3812 Fit       0.003834
 3813 Fit      -0.008081
 3814 Fit      -0.003468
 3815 Fit      -0.000976
 3816 Fit      -0.010641
 3817 Fit      -0.004815
 3818 Fit       0.009808
 3819 Fit       0.012523
 3820 Fit       0.011653
 3821 Fit       0.010645
 3822 Fit       0.009432
 3823 Fit       0.013713
 3824 Fit       0.012732
 3825 Fit       0.011796
 3826 Fit       0.010823
 3827 Fit       0.014713
 3828 Fit       0.013582
 3829 Fit       0.012633
 3830 Fit       0.011694
 3831 Fit       0.010936
 3832 Fit       0.014680
 3833 Fit       0.013605
 3834 Fit       0.012675
 3835 Fit       0.011738
 3836 Fit       0.010976
 3837 Fit       0.013689
 3838 Fit       0.012824
 3839 Fit       0.011929
 3840 Fit       0.010960
 3841 Fit       0.010136
 3842 Fit       0.012461
 3843 Fit       0.011798
 3844 Fit       0.010874
 3845 Fit       0.009684
 3846 Fit       0.010282
 3847 Fit       0.010039
 3848 Fit       0.008954
 3849 Fit       0.002474
 3850 Fit      -0.003408
 3851 Fit       0.007922
 3852 Fit       0.003053
 3853 Fit      -0.003327
 3854 Fit       0.010311
 3855 Fit       0.004756
 3856 Fit      -0.001783
 3857 Fit       0.010312
 3858 Fit       0.004601
 3859 Fit      -0.002134
 3860 Fit       0.007791
 3861 Fit       0.002455
 3862 Fit      -0.004568
 3863 Fit       0.001462
 3864 Fit      -0.005592
 3865 Fit      -0.001088
 3866 Fit       0.002172
 3867 Fit       0.007917
 3868 Fit       0.009045
 3869 Fit       0.004289
 3870 Fit       0.005464
 3871 Fit       0.007256
 3872 Fit       0.008904
 3873 Fit       0.010276
 3874 Fit      -0.000211
 3875 Fit       0.002741
 3876 Fit       0.005486
 3877 Fit       0.007667
 3878 Fit       0.009321
 3879 Fit       0.010690
 3880 Fit      -0.002647
 3881 Fit       0.002190
 3882 Fit       0.005670
 3883 Fit       0.008121
 3884 Fit       0.009939
 3885 Fit      -0.001251
 3886 Fit       0.003884
 3887 Fit       0.007280
 3888 Fit       0.009704
 3889 Fit      -0.003060
 3890 Fit       0.003455
 3891 Fit       0.007640
 3892 Fit       0.010721
 3893 Fit       0.003747
 3894 Fit       0.009574
 3895 Fit       0.011815
 3896 Fit       0.011262
 3897 Fit       0.011961
 3898 Fit       0.011649
 3899 Fit       0.012186
 3900 Fit       0.012162
 3901 Fit       0.011884
 3902 Fit       0.012394
 3903 Fit       0.012486
 3904 Fit       0.012369
 3905 Fit       0.012834
 3906 Fit       0.012923
 3907 Fit       0.012737
 3908 Fit       0.013752
 3909 Fit       0.011297
 3910 Fit       0.011473
 3911 Fit       0.011176
 3912 Fit       0.011233
 3913 Fit       0.011211
 3914 Fit       0.011032
 3915 Fit       0.011344
 3916 Fit       0.011717
 3917 Fit       0.011045
 3918 Fit       0.010667
 3919 Fit       0.011061
 3920 Fit       0.011028
 3921 Fit       0.009977
 3922 Fit       0.009218
 -----------------------------------------------------------------
 Leave Link  602 at Thu Jan 16 22:40:59 2014, MaxMem=   235929600 cpu:         1.7

 Test job not archived.
 1\1\GINC-G33\SP\RHF\Gen\C10H11Br1N2O3\KOLAR\16-Jan-2014\0\\# hf/gen po
 p=mk iop(6/33=2,6/41=5,6/42=2)\\na resp\\0,1\C,0,-4.917456,1.209074,0.
 062899\C,0,-3.433792,0.932718,0.058102\C,0,-2.543755,2.013095,0.157832
 \C,0,-1.159338,1.877802,0.161375\C,0,-0.59346,0.597898,0.056712\C,0,-1
 .44147,-0.504719,-0.048521\C,0,-2.825055,-0.333758,-0.045227\N,0,-3.61
 6912,-1.574336,-0.158429\O,0,-3.007922,-2.630817,-0.334685\O,0,-4.8422
 85,-1.497092,-0.069102\N,0,0.793613,0.350213,0.04771\C,0,1.810742,1.25
 1322,0.155787\O,0,1.678323,2.46335,0.272878\C,0,3.25303,0.722495,0.080
 295\H,0,3.771373,1.093923,0.964264\C,0,3.943143,1.18932,-1.198302\Br,0
 ,3.424155,-1.266945,0.234858\H,0,-5.414267,0.740437,0.917188\H,0,-5.08
 5808,2.289353,0.107365\H,0,-5.40927,0.813075,-0.830073\H,0,-2.962357,3
 .012491,0.236886\H,0,-0.516688,2.743143,0.243739\H,0,-1.050008,-1.5113
 65,-0.135963\H,0,1.071749,-0.623068,-0.015536\H,0,3.868938,2.280117,-1
 .254463\H,0,4.997368,0.902029,-1.193934\H,0,3.46617,0.756804,-2.082922
 \\Version=AM64L-G09RevD.01\State=1-A\HF=-3288.0541865\RMSD=5.631e-09\D
 ipole=1.135112,1.1536876,-0.1406131\Quadrupole=1.2696218,-4.804483,3.5
 348611,-10.9083005,-2.4250243,-1.3219674\PG=C01 [X(C10H11Br1N2O3)]\\@


 BUT 'GLORY' DOESN'T MEAN 'A NICE KNOCK DOWN ARGUMENT', ALICE OBJECTED.
 WHEN I USE A WORD, HUMPTY DUMPTY SAID, IN A RATHER SCORNFUL TONE,
 IT MEANS JUST WHAT I CHOOSE IT TO MEAN....
 NEITHER MORE NOR LESS....
 THE QUESTION IS, SAID ALICE,
 WHETHER YOU CAN MAKE WORDS MEAN SO MANY DIFFERENT THINGS...
 THE QUESTION IS, SAID HUMPTY DUMPTY,
 WHICH IS TO BE MASTER....
 THAT IS ALL.....

 ALICE THROUGH THE LOOKING GLASS
 Job cpu time:       0 days  0 hours  4 minutes 11.9 seconds.
 File lengths (MBytes):  RWF=     38 Int=      0 D2E=      0 Chk=      3 Scr=      1
 Normal termination of Gaussian 09 at Thu Jan 16 22:40:59 2014.
251.55user 0.38system 4:12.40elapsed 99%CPU (0avgtext+0avgdata 603600maxresident)k
24inputs+193448outputs (0major+173128minor)pagefaults 0swaps
