Linux g54 2.6.38.6-client #1 SMP Tue Jun 12 11:27:21 CEST 2012 x86_64 GNU/Linux
Thu Jan 16 22:36:46 CET 2014

 Entering Gaussian System, Link 0=/usr/local/programs/common/gaussian/gaussian09_d01/arch/amd64-pgi_10.4.0-acml/g09/g09
 Initial command:
 /usr/local/programs/common/gaussian/gaussian09_d01/arch/amd64-pgi_10.4.0-acml/g09/l1.exe "/scratch/kolar/g09_25595/Gau-1730.inp" -scrdir="/scratch/kolar/g09_25595/"
 Entering Link 1 = /usr/local/programs/common/gaussian/gaussian09_d01/arch/amd64-pgi_10.4.0-acml/g09/l1.exe PID=      1733.
  
 Copyright (c) 1988,1990,1992,1993,1995,1998,2003,2009,2013,
            Gaussian, Inc.  All Rights Reserved.
  
 This is part of the Gaussian(R) 09 program.  It is based on
 the Gaussian(R) 03 system (copyright 2003, Gaussian, Inc.),
 the Gaussian(R) 98 system (copyright 1998, Gaussian, Inc.),
 the Gaussian(R) 94 system (copyright 1995, Gaussian, Inc.),
 the Gaussian 92(TM) system (copyright 1992, Gaussian, Inc.),
 the Gaussian 90(TM) system (copyright 1990, Gaussian, Inc.),
 the Gaussian 88(TM) system (copyright 1988, Gaussian, Inc.),
 the Gaussian 86(TM) system (copyright 1986, Carnegie Mellon
 University), and the Gaussian 82(TM) system (copyright 1983,
 Carnegie Mellon University). Gaussian is a federally registered
 trademark of Gaussian, Inc.
  
 This software contains proprietary and confidential information,
 including trade secrets, belonging to Gaussian, Inc.
  
 This software is provided under written license and may be
 used, copied, transmitted, or stored only in accord with that
 written license.
  
 The following legend is applicable only to US Government
 contracts under FAR:
  
                    RESTRICTED RIGHTS LEGEND
  
 Use, reproduction and disclosure by the US Government is
 subject to restrictions as set forth in subparagraphs (a)
 and (c) of the Commercial Computer Software - Restricted
 Rights clause in FAR 52.227-19.
  
 Gaussian, Inc.
 340 Quinnipiac St., Bldg. 40, Wallingford CT 06492
  
  
 ---------------------------------------------------------------
 Warning -- This program may not be used in any manner that
 competes with the business of Gaussian, Inc. or will provide
 assistance to any competitor of Gaussian, Inc.  The licensee
 of this program is prohibited from giving any competitor of
 Gaussian, Inc. access to this program.  By using this program,
 the user acknowledges that Gaussian, Inc. is engaged in the
 business of creating and licensing software in the field of
 computational chemistry and represents and warrants to the
 licensee that it is not a competitor of Gaussian, Inc. and that
 it will not use this program in any manner prohibited above.
 ---------------------------------------------------------------
  

 Cite this work as:
 Gaussian 09, Revision D.01,
 M. J. Frisch, G. W. Trucks, H. B. Schlegel, G. E. Scuseria, 
 M. A. Robb, J. R. Cheeseman, G. Scalmani, V. Barone, B. Mennucci, 
 G. A. Petersson, H. Nakatsuji, M. Caricato, X. Li, H. P. Hratchian, 
 A. F. Izmaylov, J. Bloino, G. Zheng, J. L. Sonnenberg, M. Hada, 
 M. Ehara, K. Toyota, R. Fukuda, J. Hasegawa, M. Ishida, T. Nakajima, 
 Y. Honda, O. Kitao, H. Nakai, T. Vreven, J. A. Montgomery, Jr., 
 J. E. Peralta, F. Ogliaro, M. Bearpark, J. J. Heyd, E. Brothers, 
 K. N. Kudin, V. N. Staroverov, T. Keith, R. Kobayashi, J. Normand, 
 K. Raghavachari, A. Rendell, J. C. Burant, S. S. Iyengar, J. Tomasi, 
 M. Cossi, N. Rega, J. M. Millam, M. Klene, J. E. Knox, J. B. Cross, 
 V. Bakken, C. Adamo, J. Jaramillo, R. Gomperts, R. E. Stratmann, 
 O. Yazyev, A. J. Austin, R. Cammi, C. Pomelli, J. W. Ochterski, 
 R. L. Martin, K. Morokuma, V. G. Zakrzewski, G. A. Voth, 
 P. Salvador, J. J. Dannenberg, S. Dapprich, A. D. Daniels, 
 O. Farkas, J. B. Foresman, J. V. Ortiz, J. Cioslowski, 
 and D. J. Fox, Gaussian, Inc., Wallingford CT, 2013.
 
 ******************************************
 Gaussian 09:  AM64L-G09RevD.01 24-Apr-2013
                16-Jan-2014 
 ******************************************
 %mem=1800mb
 -----------------------------------------
 # hf/gen pop=mk iop(6/33=2,6/41=5,6/42=2)
 -----------------------------------------
 1/38=1/1;
 2/12=2,17=6,18=5,40=1/2;
 3/5=7,11=9,16=1,25=1,30=1/1,2,3;
 4//1;
 5/5=2,38=5/2;
 6/7=2,8=2,9=2,10=2,15=8,20=1,28=1,33=2,41=5,42=2/1,2;
 99/5=1,9=1/99;
 -------
 na resp
 -------
 Symbolic Z-matrix:
 Charge =  0 Multiplicity = 1
 6                    -0.96742   2.46852   1.42768 
 6                    -1.04938   0.93568   1.3602 
 6                    -0.81266   0.35375  -0.05098 
 6                    -1.79717   0.82339  -1.13096 
 6                    -3.28203   0.6678   -0.79622 
 6                     0.64382   0.65772  -0.49519 
 8                     0.86394   1.64542  -1.1663 
 7                     1.6222   -0.19097  -0.00793 
 6                     3.01825   0.04057  -0.05127 
 8                     3.53253   1.12202  -0.22689 
 7                     3.7267   -1.12011   0.21866 
 35                   -1.06246  -1.66595   0.14601 
 1                    -1.09013   2.79128   2.46703 
 1                    -0.00614   2.84371   1.06545 
 1                    -1.7571    2.94379   0.83666 
 1                    -2.03006   0.59763   1.70938 
 1                    -0.31149   0.49862   2.042 
 1                    -1.55962   1.87412  -1.32661 
 1                    -1.56584   0.28716  -2.05774 
 1                    -3.88749   0.999    -1.64639 
 1                    -3.53649  -0.37591  -0.58667 
 1                    -3.5757    1.27083   0.0698 
 1                     1.2971   -1.04897   0.42259 
 1                     3.35045  -2.00427  -0.10006 
 1                     4.72413  -1.01523   0.08481 
 
                          Input orientation:                          
 ---------------------------------------------------------------------
 Center     Atomic      Atomic             Coordinates (Angstroms)
 Number     Number       Type             X           Y           Z
 ---------------------------------------------------------------------
      1          6           0       -0.967420    2.468519    1.427681
      2          6           0       -1.049381    0.935676    1.360200
      3          6           0       -0.812657    0.353754   -0.050975
      4          6           0       -1.797165    0.823389   -1.130956
      5          6           0       -3.282032    0.667795   -0.796218
      6          6           0        0.643816    0.657718   -0.495186
      7          8           0        0.863938    1.645421   -1.166297
      8          7           0        1.622202   -0.190966   -0.007929
      9          6           0        3.018254    0.040570   -0.051266
     10          8           0        3.532533    1.122017   -0.226893
     11          7           0        3.726695   -1.120112    0.218663
     12         35           0       -1.062462   -1.665949    0.146012
     13          1           0       -1.090131    2.791276    2.467030
     14          1           0       -0.006137    2.843714    1.065448
     15          1           0       -1.757099    2.943785    0.836662
     16          1           0       -2.030062    0.597625    1.709377
     17          1           0       -0.311490    0.498619    2.042004
     18          1           0       -1.559620    1.874117   -1.326610
     19          1           0       -1.565841    0.287155   -2.057736
     20          1           0       -3.887491    0.998997   -1.646387
     21          1           0       -3.536493   -0.375911   -0.586665
     22          1           0       -3.575699    1.270828    0.069799
     23          1           0        1.297103   -1.048966    0.422594
     24          1           0        3.350445   -2.004271   -0.100056
     25          1           0        4.724133   -1.015229    0.084808
 ---------------------------------------------------------------------
                    Distance matrix (angstroms):
                    1          2          3          4          5
     1  C    0.000000
     2  C    1.536515   0.000000
     3  C    2.585074   1.544696   0.000000
     4  C    3.153023   2.603392   1.534983   0.000000
     5  C    3.680457   3.115546   2.598427   1.530062   0.000000
     6  C    3.093946   2.527179   1.552750   2.527853   3.937385
     7  O    3.280257   3.247725   2.392346   2.785400   4.275720
     8  N    3.979947   3.206003   2.495418   3.739275   5.040871
     9  C    4.895694   4.397625   3.843691   4.996679   6.375105
    10  O    4.979986   4.852579   4.416090   5.414073   6.853375
    11  N    6.031145   5.323558   4.780241   6.009301   7.304030
    12  Br   4.329611   2.871041   2.044604   2.892618   3.355689
    13  H    1.095206   2.161015   3.515516   4.161488   4.467929
    14  H    1.093640   2.194504   2.845483   3.480472   4.351082
    15  H    1.094885   2.192592   2.896227   2.892958   3.189334
    16  H    2.169978   1.094504   2.154156   2.858794   2.801849
    17  H    2.165212   1.095609   2.157015   3.518577   4.111964
    18  H    2.879259   2.891360   2.120543   1.094869   2.168694
    19  H    4.155068   3.517044   2.144484   1.095435   2.163707
    20  H    4.487338   4.135026   3.523675   2.160086   1.095017
    21  H    4.329955   3.419981   2.870306   2.181705   1.094525
    22  H    3.175126   2.856527   2.913763   2.192076   1.095388
    23  H    4.302437   3.213082   2.577398   3.936207   5.039965
    24  H    6.401858   5.489454   4.784779   5.962911   7.184311
    25  H    6.806878   6.226244   5.705138   6.883744   8.228454
                    6          7          8          9         10
     6  C    0.000000
     7  O    1.214249   0.000000
     8  N    1.383807   2.299804   0.000000
     9  C    2.493169   2.908594   1.415785   0.000000
    10  O    2.938067   2.877122   2.328354   1.210312   0.000000
    11  N    3.629656   4.214459   2.311611   1.386338   2.294202
    12  Br   2.953294   4.049487   3.067033   4.427569   5.387559
    13  H    4.041456   4.281639   4.730321   5.548606   5.604701
    14  H    2.763439   2.678362   3.607341   4.272190   4.142049
    15  H    3.572718   3.545057   4.686115   5.658716   5.694751
    16  H    3.466025   4.212198   4.112183   5.375469   5.913256
    17  H    2.715742   3.604162   2.901192   3.959644   4.506998
    18  H    2.650665   2.439597   4.015903   5.093656   5.263559
    19  H    2.731568   2.922905   3.820200   5.010055   5.481095
    20  H    4.687694   4.819173   5.870032   7.152084   7.555584
    21  H    4.307173   4.877043   5.194350   6.589751   7.234940
    22  H    4.301095   4.623703   5.400098   6.708831   7.115977
    23  H    2.044963   3.157836   1.013510   2.091409   3.183103
    24  H    3.816825   4.543109   2.506668   2.072222   3.134154
    25  H    4.447936   4.852363   3.210917   2.010784   2.466757
                   11         12         13         14         15
    11  N    0.000000
    12  Br   4.820710   0.000000
    13  H    6.599691   5.025410   0.000000
    14  H    5.510263   4.722102   1.772632   0.000000
    15  H    6.853406   4.712660   1.768108   1.768679   0.000000
    16  H    6.189758   2.916184   2.503920   3.091251   2.518056
    17  H    4.717181   2.973903   2.458293   2.558588   3.085688
    18  H    6.268844   3.866245   3.931069   3.012535   2.421349
    19  H    5.930711   2.987392   5.193306   4.327002   3.933421
    20  H    8.120644   4.277315   5.287503   5.081529   3.806088
    21  H    7.345494   2.884760   5.033966   5.055579   4.026473
    22  H    7.685292   3.866113   3.773132   4.025799   2.587309
    23  H    2.439173   2.454529   4.962465   4.155076   5.043973
    24  H    1.012365   4.432692   7.021817   6.010657   7.172706
    25  H    1.011830   5.823389   7.346436   6.182924   7.631870
                   16         17         18         19         20
    16  H    0.000000
    17  H    1.753263   0.000000
    18  H    3.326855   3.846737   0.000000
    19  H    3.808285   4.292550   1.747293   0.000000
    20  H    3.856461   5.161627   2.507404   2.462922   0.000000
    21  H    2.913574   4.251511   3.085153   2.546993   1.771040
    22  H    2.351683   3.891139   2.525567   3.087644   1.765333
    23  H    3.929007   2.757731   4.445784   4.016678   5.945994
    24  H    6.244499   4.925713   6.376133   5.766542   7.987395
    25  H    7.131597   5.610691   7.058752   6.771298   9.011893
                   21         22         23         24         25
    21  H    0.000000
    22  H    1.773198   0.000000
    23  H    4.983498   5.408337   0.000000
    24  H    7.093536   7.663328   2.324217   0.000000
    25  H    8.312493   8.608919   3.443802   1.702762   0.000000
 Stoichiometry    C7H13BrN2O2
 Framework group  C1[X(C7H13BrN2O2)]
 Deg. of freedom    69
 Full point group                 C1      NOp   1
 Largest Abelian subgroup         C1      NOp   1
 Largest concise Abelian subgroup C1      NOp   1
                         Standard orientation:                         
 ---------------------------------------------------------------------
 Center     Atomic      Atomic             Coordinates (Angstroms)
 Number     Number       Type             X           Y           Z
 ---------------------------------------------------------------------
      1          6           0       -0.967420    2.468519    1.427681
      2          6           0       -1.049381    0.935676    1.360200
      3          6           0       -0.812657    0.353754   -0.050975
      4          6           0       -1.797165    0.823389   -1.130956
      5          6           0       -3.282032    0.667795   -0.796218
      6          6           0        0.643816    0.657718   -0.495186
      7          8           0        0.863938    1.645421   -1.166297
      8          7           0        1.622202   -0.190966   -0.007929
      9          6           0        3.018254    0.040570   -0.051266
     10          8           0        3.532533    1.122017   -0.226893
     11          7           0        3.726695   -1.120112    0.218663
     12         35           0       -1.062462   -1.665949    0.146012
     13          1           0       -1.090131    2.791276    2.467030
     14          1           0       -0.006137    2.843714    1.065448
     15          1           0       -1.757099    2.943785    0.836662
     16          1           0       -2.030062    0.597625    1.709377
     17          1           0       -0.311490    0.498619    2.042004
     18          1           0       -1.559620    1.874117   -1.326610
     19          1           0       -1.565841    0.287155   -2.057736
     20          1           0       -3.887491    0.998997   -1.646387
     21          1           0       -3.536493   -0.375911   -0.586665
     22          1           0       -3.575699    1.270828    0.069799
     23          1           0        1.297103   -1.048966    0.422594
     24          1           0        3.350445   -2.004271   -0.100056
     25          1           0        4.724133   -1.015229    0.084808
 ---------------------------------------------------------------------
 Rotational constants (GHZ):      0.9073070      0.4755974      0.3671209
 General basis read from cards:  (5D, 7F)
 There are   221 symmetry adapted cartesian basis functions of A   symmetry.
 There are   208 symmetry adapted basis functions of A   symmetry.
   208 basis functions,   443 primitive gaussians,   221 cartesian basis functions
    60 alpha electrons       60 beta electrons
       nuclear repulsion energy      1079.9354180367 Hartrees.
 NAtoms=   25 NActive=   25 NUniq=   25 SFac= 1.00D+00 NAtFMM=   60 NAOKFM=F Big=F
 Integral buffers will be    131072 words long.
 Raffenetti 1 integral format.
 Two-electron integral symmetry is turned on.
 One-electron integrals computed using PRISM.
 NBasis=   208 RedAO= T EigKep=  2.96D-03  NBF=   208
 NBsUse=   208 1.00D-06 EigRej= -1.00D+00 NBFU=   208
 ExpMin= 1.43D-01 ExpMax= 5.74D+05 ExpMxC= 5.74D+03 IAcc=2 IRadAn=         4 AccDes= 0.00D+00
 Harris functional with IExCor=  205 and IRadAn=       4 diagonalized for initial guess.
 HarFok:  IExCor=  205 AccDes= 0.00D+00 IRadAn=         4 IDoV= 1 UseB2=F ITyADJ=14
 ICtDFT=  3500011 ScaDFX=  1.000000  1.000000  1.000000  1.000000
 FoFCou: FMM=F IPFlag=           0 FMFlag=      100000 FMFlg1=           0
         NFxFlg=           0 DoJE=T BraDBF=F KetDBF=T FulRan=T
         wScrn=  0.000000 ICntrl=     500 IOpCl=  0 I1Cent=   200000004 NGrid=           0
         NMat0=    1 NMatS0=      1 NMatT0=    0 NMatD0=    1 NMtDS0=    0 NMtDT0=    0
 Petite list used in FoFCou.
 Requested convergence on RMS density matrix=1.00D-08 within 128 cycles.
 Requested convergence on MAX density matrix=1.00D-06.
 Requested convergence on             energy=1.00D-06.
 No special actions if energy rises.
 Integral accuracy reduced to 1.0D-05 until final iterations.
 Initial convergence to 1.0D-05 achieved.  Increase integral accuracy.
 SCF Done:  E(RHF) =  -3100.89414666     A.U. after   16 cycles
            NFock= 16  Conv=0.54D-08     -V/T= 1.9991

 **********************************************************************

            Population analysis using the SCF density.

 **********************************************************************

 Orbital symmetries:
 BldTbl:  Degeneracy threshold= 1.00D-02
       Occupied  (A) (A) (A) (A) (A) (A) (A) (A) (A) (A) (A) (A)
                 (A) (A) (A) (A) (A) (A) (A) (A) (A) (A) (A) (A)
                 (A) (A) (A) (A) (A) (A) (A) (A) (A) (A) (A) (A)
                 (A) (A) (A) (A) (A) (A) (A) (A) (A) (A) (A) (A)
                 (A) (A) (A) (A) (A) (A) (A) (A) (A) (A) (A) (A)
       Virtual   (A) (A) (A) (A) (A) (A) (A) (A) (A) (A) (A) (A)
                 (A) (A) (A) (A) (A) (A) (A) (A) (A) (A) (A) (A)
                 (A) (A) (A) (A) (A) (A) (A) (A) (A) (A) (A) (A)
                 (A) (A) (A) (A) (A) (A) (A) (A) (A) (A) (A) (A)
                 (A) (A) (A) (A) (A) (A) (A) (A) (A) (A) (A) (A)
                 (A) (A) (A) (A) (A) (A) (A) (A) (A) (A) (A) (A)
                 (A) (A) (A) (A) (A) (A) (A) (A) (A) (A) (A) (A)
                 (A) (A) (A) (A) (A) (A) (A) (A) (A) (A) (A) (A)
                 (A) (A) (A) (A) (A) (A) (A) (A) (A) (A) (A) (A)
                 (A) (A) (A) (A) (A) (A) (A) (A) (A) (A) (A) (A)
                 (A) (A) (A) (A) (A) (A) (A) (A) (A) (A) (A) (A)
                 (A) (A) (A) (A) (A) (A) (A) (A) (A) (A) (A) (A)
                 (A) (A) (A) (A)
 The electronic state is 1-A.
 Alpha  occ. eigenvalues -- -489.84520 -64.38923 -58.55575 -58.55437 -58.55423
 Alpha  occ. eigenvalues --  -20.55791 -20.53885 -15.61994 -15.59658 -11.40484
 Alpha  occ. eigenvalues --  -11.38756 -11.33614 -11.25447 -11.24388 -11.22675
 Alpha  occ. eigenvalues --  -11.22533  -9.66643  -7.48115  -7.47398  -7.47354
 Alpha  occ. eigenvalues --   -3.22393  -3.22072  -3.22029  -3.21186  -3.21184
 Alpha  occ. eigenvalues --   -1.42177  -1.39425  -1.26358  -1.20710  -1.13655
 Alpha  occ. eigenvalues --   -1.03505  -1.00549  -0.94368  -0.89376  -0.87293
 Alpha  occ. eigenvalues --   -0.79911  -0.78226  -0.74788  -0.69918  -0.67490
 Alpha  occ. eigenvalues --   -0.65315  -0.64924  -0.63296  -0.61570  -0.60658
 Alpha  occ. eigenvalues --   -0.58261  -0.57586  -0.55064  -0.53897  -0.52459
 Alpha  occ. eigenvalues --   -0.51934  -0.51157  -0.48805  -0.47436  -0.45596
 Alpha  occ. eigenvalues --   -0.43476  -0.43287  -0.42623  -0.41617  -0.40834
 Alpha virt. eigenvalues --    0.11361   0.15929   0.19953   0.21630   0.23560
 Alpha virt. eigenvalues --    0.26408   0.27198   0.27901   0.28174   0.29637
 Alpha virt. eigenvalues --    0.30167   0.31316   0.32357   0.32832   0.34791
 Alpha virt. eigenvalues --    0.35293   0.35861   0.37900   0.38374   0.39218
 Alpha virt. eigenvalues --    0.43005   0.45173   0.48646   0.51209   0.55815
 Alpha virt. eigenvalues --    0.58883   0.60439   0.61894   0.63871   0.65708
 Alpha virt. eigenvalues --    0.66444   0.68412   0.68705   0.71081   0.72851
 Alpha virt. eigenvalues --    0.73964   0.74152   0.76542   0.78331   0.80226
 Alpha virt. eigenvalues --    0.83078   0.83826   0.84828   0.87232   0.88118
 Alpha virt. eigenvalues --    0.90138   0.91026   0.91437   0.93765   0.96393
 Alpha virt. eigenvalues --    0.99508   1.00696   1.03017   1.03955   1.05705
 Alpha virt. eigenvalues --    1.06364   1.07011   1.11685   1.12394   1.12877
 Alpha virt. eigenvalues --    1.13756   1.15086   1.15240   1.16312   1.16699
 Alpha virt. eigenvalues --    1.17296   1.18884   1.19756   1.20904   1.22910
 Alpha virt. eigenvalues --    1.24075   1.25093   1.26350   1.27421   1.29101
 Alpha virt. eigenvalues --    1.30871   1.32346   1.34606   1.37647   1.41272
 Alpha virt. eigenvalues --    1.42824   1.47108   1.49120   1.51606   1.57236
 Alpha virt. eigenvalues --    1.58818   1.62215   1.65671   1.69162   1.72980
 Alpha virt. eigenvalues --    1.75639   1.76441   1.81830   1.85194   1.92274
 Alpha virt. eigenvalues --    1.93757   1.94876   1.97654   2.01718   2.05064
 Alpha virt. eigenvalues --    2.06178   2.07943   2.10081   2.11679   2.13783
 Alpha virt. eigenvalues --    2.14330   2.18275   2.20638   2.23985   2.25641
 Alpha virt. eigenvalues --    2.27272   2.27938   2.29016   2.30801   2.33924
 Alpha virt. eigenvalues --    2.34697   2.37352   2.41260   2.43801   2.47239
 Alpha virt. eigenvalues --    2.50808   2.53339   2.58531   2.60870   2.64223
 Alpha virt. eigenvalues --    2.65266   2.66171   2.67807   2.68934   2.73966
 Alpha virt. eigenvalues --    2.76518   2.78036   2.80959   2.88315   2.90324
 Alpha virt. eigenvalues --    2.93736   2.98035   3.00083   3.02266   3.08060
 Alpha virt. eigenvalues --    3.11311   3.17318   3.22694   3.33204   3.36923
 Alpha virt. eigenvalues --    3.44122   3.64566   9.26022
          Condensed to atoms (all electrons):
               1          2          3          4          5          6
     1  C    5.160091   0.309976  -0.051708  -0.001478  -0.001215  -0.001014
     2  C    0.309976   5.171264   0.300941  -0.045993  -0.001882  -0.048618
     3  C   -0.051708   0.300941   5.330971   0.316468  -0.052064   0.353423
     4  C   -0.001478  -0.045993   0.316468   5.145552   0.321260  -0.053639
     5  C   -0.001215  -0.001882  -0.052064   0.321260   5.148467   0.003668
     6  C   -0.001014  -0.048618   0.353423  -0.053639   0.003668   4.159607
     7  O   -0.000610  -0.001376  -0.073304   0.000758   0.000290   0.582009
     8  N    0.000139  -0.000674  -0.105521   0.002803  -0.000033   0.236287
     9  C    0.000019  -0.000156   0.001967  -0.000054   0.000001  -0.017396
    10  O   -0.000008   0.000021  -0.000121   0.000001   0.000000   0.003886
    11  N    0.000000   0.000002  -0.000129   0.000001   0.000000   0.000681
    12  Br   0.004457  -0.076962   0.281878  -0.066151  -0.011693  -0.057825
    13  H    0.390801  -0.036007   0.004306  -0.000064  -0.000002   0.000066
    14  H    0.389811  -0.033723  -0.004573  -0.000092   0.000031   0.004390
    15  H    0.390918  -0.036806  -0.003702   0.000868  -0.000177  -0.000317
    16  H   -0.035577   0.404680  -0.039858  -0.004162   0.000322   0.004141
    17  H   -0.036718   0.401442  -0.041824   0.004006   0.000020  -0.006502
    18  H    0.000132  -0.002883  -0.034190   0.393141  -0.036768  -0.004959
    19  H   -0.000040   0.003862  -0.042330   0.403845  -0.036052  -0.003660
    20  H    0.000008  -0.000032   0.004304  -0.036995   0.396105  -0.000037
    21  H    0.000037  -0.000007  -0.004951  -0.035012   0.389850  -0.000073
    22  H   -0.000085   0.000295  -0.003914  -0.037097   0.390436  -0.000155
    23  H   -0.000030   0.000668  -0.003662   0.000326  -0.000001  -0.017407
    24  H    0.000000   0.000000  -0.000001   0.000000   0.000000  -0.000001
    25  H    0.000000   0.000000   0.000003   0.000000   0.000000   0.000003
               7          8          9         10         11         12
     1  C   -0.000610   0.000139   0.000019  -0.000008   0.000000   0.004457
     2  C   -0.001376  -0.000674  -0.000156   0.000021   0.000002  -0.076962
     3  C   -0.073304  -0.105521   0.001967  -0.000121  -0.000129   0.281878
     4  C    0.000758   0.002803  -0.000054   0.000001   0.000001  -0.066151
     5  C    0.000290  -0.000033   0.000001   0.000000   0.000000  -0.011693
     6  C    0.582009   0.236287  -0.017396   0.003886   0.000681  -0.057825
     7  O    8.123090  -0.082338   0.003684  -0.005028  -0.000004   0.001640
     8  N   -0.082338   7.609281   0.217068  -0.085112  -0.124724  -0.019064
     9  C    0.003684   0.217068   3.845140   0.656072   0.337343   0.000958
    10  O   -0.005028  -0.085112   0.656072   8.080789  -0.083241  -0.000010
    11  N   -0.000004  -0.124724   0.337343  -0.083241   7.185435  -0.000097
    12  Br   0.001640  -0.019064   0.000958  -0.000010  -0.000097  35.141671
    13  H    0.000080  -0.000014  -0.000001   0.000000   0.000000  -0.000086
    14  H    0.002537  -0.000293   0.000077   0.000023   0.000000  -0.000066
    15  H   -0.000050  -0.000013   0.000000   0.000000   0.000000  -0.000083
    16  H   -0.000092  -0.000089   0.000002   0.000000   0.000000  -0.004283
    17  H   -0.000028   0.003528  -0.000012  -0.000005  -0.000005  -0.002320
    18  H    0.004826   0.000226   0.000000   0.000000   0.000000   0.004108
    19  H    0.001017   0.000040  -0.000006   0.000000   0.000000  -0.002793
    20  H    0.000000   0.000000   0.000000   0.000000   0.000000   0.000065
    21  H   -0.000007  -0.000001   0.000000   0.000000   0.000000   0.003729
    22  H    0.000006   0.000000   0.000000   0.000000   0.000000   0.000513
    23  H    0.001804   0.293962  -0.013496   0.001348   0.002621   0.022505
    24  H    0.000007   0.003041  -0.019036   0.002017   0.312180   0.000049
    25  H    0.000006   0.004889  -0.020916   0.004211   0.318258  -0.000001
              13         14         15         16         17         18
     1  C    0.390801   0.389811   0.390918  -0.035577  -0.036718   0.000132
     2  C   -0.036007  -0.033723  -0.036806   0.404680   0.401442  -0.002883
     3  C    0.004306  -0.004573  -0.003702  -0.039858  -0.041824  -0.034190
     4  C   -0.000064  -0.000092   0.000868  -0.004162   0.004006   0.393141
     5  C   -0.000002   0.000031  -0.000177   0.000322   0.000020  -0.036768
     6  C    0.000066   0.004390  -0.000317   0.004141  -0.006502  -0.004959
     7  O    0.000080   0.002537  -0.000050  -0.000092  -0.000028   0.004826
     8  N   -0.000014  -0.000293  -0.000013  -0.000089   0.003528   0.000226
     9  C   -0.000001   0.000077   0.000000   0.000002  -0.000012   0.000000
    10  O    0.000000   0.000023   0.000000   0.000000  -0.000005   0.000000
    11  N    0.000000   0.000000   0.000000   0.000000  -0.000005   0.000000
    12  Br  -0.000086  -0.000066  -0.000083  -0.004283  -0.002320   0.004108
    13  H    0.518094  -0.023769  -0.027145  -0.002484  -0.003556   0.000070
    14  H   -0.023769   0.477819  -0.025176   0.003186  -0.001522  -0.000019
    15  H   -0.027145  -0.025176   0.525098  -0.002791   0.003468  -0.000885
    16  H   -0.002484   0.003186  -0.002791   0.498809  -0.026031   0.000109
    17  H   -0.003556  -0.001522   0.003468  -0.026031   0.512115  -0.000111
    18  H    0.000070  -0.000019  -0.000885   0.000109  -0.000111   0.476076
    19  H    0.000001  -0.000015   0.000051  -0.000071  -0.000067  -0.023487
    20  H    0.000000   0.000001  -0.000001   0.000029   0.000001  -0.002037
    21  H    0.000001  -0.000002  -0.000006   0.000289  -0.000027   0.003150
    22  H    0.000015  -0.000011   0.001246  -0.001337   0.000066  -0.002453
    23  H    0.000000  -0.000008   0.000001  -0.000023   0.000597  -0.000026
    24  H    0.000000   0.000000   0.000000   0.000000  -0.000001   0.000000
    25  H    0.000000   0.000000   0.000000   0.000000   0.000000   0.000000
              19         20         21         22         23         24
     1  C   -0.000040   0.000008   0.000037  -0.000085  -0.000030   0.000000
     2  C    0.003862  -0.000032  -0.000007   0.000295   0.000668   0.000000
     3  C   -0.042330   0.004304  -0.004951  -0.003914  -0.003662  -0.000001
     4  C    0.403845  -0.036995  -0.035012  -0.037097   0.000326   0.000000
     5  C   -0.036052   0.396105   0.389850   0.390436  -0.000001   0.000000
     6  C   -0.003660  -0.000037  -0.000073  -0.000155  -0.017407  -0.000001
     7  O    0.001017   0.000000  -0.000007   0.000006   0.001804   0.000007
     8  N    0.000040   0.000000  -0.000001   0.000000   0.293962   0.003041
     9  C   -0.000006   0.000000   0.000000   0.000000  -0.013496  -0.019036
    10  O    0.000000   0.000000   0.000000   0.000000   0.001348   0.002017
    11  N    0.000000   0.000000   0.000000   0.000000   0.002621   0.312180
    12  Br  -0.002793   0.000065   0.003729   0.000513   0.022505   0.000049
    13  H    0.000001   0.000000   0.000001   0.000015   0.000000   0.000000
    14  H   -0.000015   0.000001  -0.000002  -0.000011  -0.000008   0.000000
    15  H    0.000051  -0.000001  -0.000006   0.001246   0.000001   0.000000
    16  H   -0.000071   0.000029   0.000289  -0.001337  -0.000023   0.000000
    17  H   -0.000067   0.000001  -0.000027   0.000066   0.000597  -0.000001
    18  H   -0.023487  -0.002037   0.003150  -0.002453  -0.000026   0.000000
    19  H    0.503860  -0.003300  -0.001784   0.003470   0.000002   0.000000
    20  H   -0.003300   0.512903  -0.025009  -0.027231   0.000000   0.000000
    21  H   -0.001784  -0.025009   0.507301  -0.027835   0.000002   0.000000
    22  H    0.003470  -0.027231  -0.027835   0.535927  -0.000001   0.000000
    23  H    0.000002   0.000000   0.000002  -0.000001   0.274254   0.000681
    24  H    0.000000   0.000000   0.000000   0.000000   0.000681   0.327382
    25  H    0.000000   0.000000   0.000000   0.000000  -0.000076  -0.015139
              25
     1  C    0.000000
     2  C    0.000000
     3  C    0.000003
     4  C    0.000000
     5  C    0.000000
     6  C    0.000003
     7  O    0.000006
     8  N    0.004889
     9  C   -0.020916
    10  O    0.004211
    11  N    0.318258
    12  Br  -0.000001
    13  H    0.000000
    14  H    0.000000
    15  H    0.000000
    16  H    0.000000
    17  H    0.000000
    18  H    0.000000
    19  H    0.000000
    20  H    0.000000
    21  H    0.000000
    22  H    0.000000
    23  H   -0.000076
    24  H   -0.015139
    25  H    0.301388
 Mulliken charges:
               1
     1  C   -0.517906
     2  C   -0.308031
     3  C   -0.132410
     4  C   -0.308290
     5  C   -0.510565
     6  C    0.863444
     7  O   -0.558915
     8  N   -0.953388
     9  C    1.008741
    10  O   -0.574843
    11  N   -0.948322
    12  Br  -0.220137
    13  H    0.179694
    14  H    0.211394
    15  H    0.175501
    16  H    0.205232
    17  H    0.193485
    18  H    0.225979
    19  H    0.197456
    20  H    0.181224
    21  H    0.190355
    22  H    0.168145
    23  H    0.435961
    24  H    0.388820
    25  H    0.407373
 Sum of Mulliken charges =   0.00000
 Mulliken charges with hydrogens summed into heavy atoms:
               1
     1  C    0.048684
     2  C    0.090686
     3  C   -0.132410
     4  C    0.115145
     5  C    0.029159
     6  C    0.863444
     7  O   -0.558915
     8  N   -0.517427
     9  C    1.008741
    10  O   -0.574843
    11  N   -0.152128
    12  Br  -0.220137
 DipInt: DoE/N= T F RetVal/Mat= T F Init=T NMatP=  1 IDeriv=0 Min/MaxMlt=  0  4
 Entering OneElI...
 OneElI was handed   235801915 working-precision words.
 Multipole integrals L=0 to 4 MinM= 0 MaxM= 0.
 Requested accuracy = 0.1000D-12
 ShPair: Thresh= 1.00D-13 NBox=     0 BxSize= 0.00D+00 RnKept= 1.70D+01
         NSMCal=                 3403 NSMKep=                3054
 PrsmSu:  NPrtUS=   1 ThrOK=F IAlg=1 NPAlg=1 LenDen=           0.
 Prism:   IPart=     0 DynPar=F LinDyn=F Incr=          30.
 PRISM was handed   235539852 working-precision words and  3054 shell-pairs
 IPart=  0 NShTot=        3054 NBatch=         122 AvBLen=        25.0
 PrSmSu:  NxtVal=             31.
 Electronic moments (au):
       -120.00000000         -0.63241742         -1.38476320          0.53040382
      -1873.52253468       -878.17230152       -324.92314103        -14.54771381
          0.87342555          4.17513634      -3938.51625896       -411.94277382
       -146.77193284        614.28677379       -280.73500459        590.11173541
        478.93838851       -696.70063427       -460.56408464        226.13446666
     -71801.98541637     -13034.42144757      -3235.40470211       5170.86545931
      -3693.05808706        302.36605248      -1912.63014958        147.49629883
       -892.10287862      -9267.75822569      -3697.66551350      -3181.88310360
       1382.69875297       1310.41202357       1135.03413207
 Electronic spatial extent (au):  <R**2>=           3076.6180
 DipInt: DoE/N= F T RetVal/Mat= T F Init=T NMatP=  1 IDeriv=0 Min/MaxMlt=  0  4
 Nuclear    moments (au):
        120.00000000          0.00000000          0.00000000          0.00000000
       1811.59395537        812.30312457        260.50626634          0.00000000
         -0.00002098          0.00006194       3953.44082223        320.16915165
        149.81958111       -622.42973117        188.42729239       -598.59205350
       -495.41563027        675.81189244        470.74723051       -211.93078480
      66076.11480288      10460.42743826       2119.20117266      -5594.82323099
       3637.65842393       -273.62772079       1908.47454260       -172.92249849
        883.70278303       7797.76963170       2440.24733464       2531.77900727
      -1329.49657025      -1313.62718987      -1096.58298458
 Total      moments (au):
          0.00000000         -0.63241742         -1.38476320          0.53040382
        -61.92857931        -65.86917695        -64.41687469        -14.54771381
          0.87340457          4.17519828         14.92456327        -91.77362217
          3.04764827         -8.14295738        -92.30771220         -8.48031809
        -16.47724176        -20.88874183         10.18314588         14.20368186
      -5725.87061349      -2573.99400931      -1116.20352945       -423.95777168
        -55.39966314         28.73833169         -4.15560699        -25.42619966
         -8.40009559      -1469.98859399      -1257.41817886       -650.10409633
         53.20218272         -3.21516630         38.45114749
 Traceless Quadrup. (au):
          2.14296434         -1.79763330         -0.34533104        -14.54771381
          0.87340457          4.17519828
 Charge=              0.0000 electrons
 Dipole moment (field-independent basis, Debye):
    X=             -1.6074    Y=             -3.5197    Z=              1.3482  Tot=              4.0975
 Quadrupole moment (field-independent basis, Debye-Ang):
   XX=            -83.2961   YY=            -88.5963   ZZ=            -86.6429
   XY=            -19.5672   XZ=              1.1748   YZ=              5.6158
 Traceless Quadrupole moment (field-independent basis, Debye-Ang):
   XX=              2.8824   YY=             -2.4179   ZZ=             -0.4645
   XY=            -19.5672   XZ=              1.1748   YZ=              5.6158
 Octapole moment (field-independent basis, Debye-Ang**2):
  XXX=             10.6227  YYY=            -65.3209  ZZZ=              2.1692  XYY=             -5.7958
  XXY=            -65.7011  XXZ=             -6.0360  XZZ=            -11.7279  YZZ=            -14.8678
  YYZ=              7.2480  XYZ=             10.1096
 Hexadecapole moment (field-independent basis, Debye-Ang**3):
 XXXX=          -2156.6373 YYYY=           -969.4895 ZZZZ=           -420.4157 XXXY=           -159.6828
 XXXZ=            -20.8662 YYYX=             10.8242 YYYZ=             -1.5652 ZZZX=             -9.5767
 ZZZY=             -3.1639 XXYY=           -553.6682 XXZZ=           -473.6039 YYZZ=           -244.8604
 XXYZ=             20.0385 YYXZ=             -1.2110 ZZXY=             14.4825
 N-N= 1.079935418037D+03 E-N=-9.555622958269D+03  KE= 3.103664289647D+03
 Entering OneElI...
 OneElI was handed   235831190 working-precision words.
 Calculate electrostatic properties
    NBasis =   208  MinDer = 0  MaxDer = 0
    NGrid  =    25  NMatD  =   1
 Requested accuracy = 0.1000D-12
 PrtBox:  NBox=     1 Levels=  1 BoxLen=   32.44 SMaxX=       16.27
          Shift=            7.346293            3.787524            3.888557
 Box      1 Number                   0 centers from      1 to     82:
 ShPair: Thresh= 1.00D-13 NBox=     1 BxSize= 3.24D+01 RnKept= 1.70D+01
         NSMCal=                 3403 NSMKep=                2780
 PrsmSu:  NPrtUS=   1 ThrOK=F IAlg=1 NPAlg=1 LenDen=           0.
 Prism:   IPart=     0 DynPar=F LinDyn=F Incr=         512.
 PRISM was handed   235595715 working-precision words and  2780 shell-pairs
 IPart=  0 NShTot=       69500 NBatch=        2857 AvBLen=        24.3
 PrSmSu:  NxtVal=            513.
 --------------------------------------------------------
       Center         ----      EFG at Nuclei      ----
                      3XX-RR        3YY-RR        3ZZ-RR
 --------------------------------------------------------
     1   Atom        0.051400     -0.078023      0.026624
     2   Atom        0.077920      0.031031     -0.108951
     3   Atom        0.209470     -0.549045      0.339575
     4   Atom       -0.033062      0.079817     -0.046755
     5   Atom       -0.052461      0.038763      0.013698
     6   Atom        0.209969      0.041837     -0.251806
     7   Atom        1.776135     -0.777385     -0.998750
     8   Atom       -0.538483     -0.089806      0.628289
     9   Atom        0.096016      0.337123     -0.433138
    10   Atom        1.137326     -0.457931     -0.679395
    11   Atom       -0.447709     -0.540143      0.987852
    12   Atom        2.571150     -5.610482      3.039332
    13   Atom        0.148710      0.105185     -0.253894
    14   Atom       -0.193281      0.087061      0.106220
    15   Atom       -0.081948      0.061111      0.020837
    16   Atom       -0.204254      0.105132      0.099122
    17   Atom       -0.049750      0.076099     -0.026350
    18   Atom        0.125937     -0.255467      0.129530
    19   Atom        0.119678      0.046190     -0.165868
    20   Atom        0.008934      0.112573     -0.121507
    21   Atom        0.117954     -0.253298      0.135343
    22   Atom        0.112482      0.017015     -0.129497
    23   Atom        0.092861     -0.212721      0.119859
    24   Atom        0.081330     -0.258916      0.177586
    25   Atom       -0.381879      0.158978      0.222901
 --------------------------------------------------------
                        XY            XZ            YZ
 --------------------------------------------------------
     1   Atom        0.007748     -0.012794     -0.018857
     2   Atom        0.016480      0.034229     -0.067356
     3   Atom       -0.119468      0.056275      0.082096
     4   Atom        0.048997     -0.086466      0.048150
     5   Atom       -0.002612      0.012934     -0.005790
     6   Atom        0.069770     -0.105925     -0.370298
     7   Atom       -0.451830      0.082743     -0.073217
     8   Atom        0.007329     -0.065879      0.550227
     9   Atom        0.065252     -0.009614     -0.121528
    10   Atom       -1.055745      0.103299     -0.032297
    11   Atom        0.067789     -0.138186     -0.127223
    12   Atom       -1.140359     -0.003019      0.927700
    13   Atom        0.014630      0.048376     -0.122460
    14   Atom       -0.130422      0.127964      0.046557
    15   Atom        0.137855     -0.177945      0.100816
    16   Atom       -0.120960      0.125275      0.036264
    17   Atom        0.121775     -0.180951      0.101608
    18   Atom       -0.083341      0.007740      0.074050
    19   Atom        0.050924      0.071746     -0.181679
    20   Atom        0.074160     -0.189324      0.107044
    21   Atom       -0.098570      0.020915      0.080778
    22   Atom        0.063353      0.092413     -0.196936
    23   Atom       -0.130478      0.067405      0.221183
    24   Atom       -0.180673     -0.076552     -0.169717
    25   Atom       -0.051603      0.080668      0.003412
 --------------------------------------------------------


 ---------------------------------------------------------------------------------
              Nuclear Quadrupole Coupling Constant in Principal Axis System
 ---------------------------------------------------------------------------------

       Atom             a.u.   MegaHertz   Gauss  10(-4) cm-1        Axes

              Baa    -0.5493     2.638     0.941     0.880  0.9731 -0.1832  0.1400
     8 N(14)  Bbb    -0.3789     1.820     0.649     0.607  0.2275  0.8608 -0.4553
              Bcc     0.9283    -4.458    -1.591    -1.487 -0.0371  0.4749  0.8792
 
              Baa    -0.5777     2.774     0.990     0.925 -0.4327  0.9008  0.0350
    11 N(14)  Bbb    -0.4348     2.088     0.745     0.697  0.8962  0.4256  0.1251
              Bcc     1.0125    -4.862    -1.735    -1.622 -0.0978 -0.0855  0.9915
 
              Baa    -5.8613   431.064   153.814   143.787  0.1333  0.9857 -0.1027
    12 Br(79) Bbb     2.6902  -197.850   -70.598   -65.996  0.9560 -0.1006  0.2755
              Bcc     3.1711  -233.214   -83.217   -77.792 -0.2612  0.1349  0.9558
 

 ---------------------------------------------------------------------------------

 No NMR shielding tensors so no spin-rotation constants.
 Leave Link  601 at Thu Jan 16 22:39:22 2014, MaxMem=   235929600 cpu:         0.3
 FitSet:  NAtFit=    25 NAtPot=    25 NAtFrz=     0 MDM=    29 TotChg=   0.00000
 Merz-Kollman atomic radii used.
 Atom Element Radius
    1     6    1.50
    2     6    1.50
    3     6    1.50
    4     6    1.50
    5     6    1.50
    6     6    1.50
    7     8    1.40
    8     7    1.50
    9     6    1.50
   10     8    1.40
   11     7    1.50
   12    35    2.30
   13     1    1.20
   14     1    1.20
   15     1    1.20
   16     1    1.20
   17     1    1.20
   18     1    1.20
   19     1    1.20
   20     1    1.20
   21     1    1.20
   22     1    1.20
   23     1    1.20
   24     1    1.20
   25     1    1.20
 Generate VDW surfaces: Layer= 5 Dens= 2 Start= 1.400 Inc= 0.179

 **********************************************************************

            Electrostatic Properties Using The SCF Density

 **********************************************************************

       Atomic Center    1 is at  -0.967420  2.468519  1.427681
       Atomic Center    2 is at  -1.049381  0.935676  1.360200
       Atomic Center    3 is at  -0.812657  0.353754 -0.050975
       Atomic Center    4 is at  -1.797165  0.823389 -1.130956
       Atomic Center    5 is at  -3.282032  0.667795 -0.796218
       Atomic Center    6 is at   0.643816  0.657718 -0.495186
       Atomic Center    7 is at   0.863938  1.645421 -1.166297
       Atomic Center    8 is at   1.622202 -0.190966 -0.007929
       Atomic Center    9 is at   3.018254  0.040570 -0.051266
       Atomic Center   10 is at   3.532533  1.122017 -0.226893
       Atomic Center   11 is at   3.726695 -1.120112  0.218663
       Atomic Center   12 is at  -1.062462 -1.665949  0.146012
       Atomic Center   13 is at  -1.090131  2.791276  2.467030
       Atomic Center   14 is at  -0.006137  2.843714  1.065448
       Atomic Center   15 is at  -1.757099  2.943785  0.836662
       Atomic Center   16 is at  -2.030062  0.597625  1.709377
       Atomic Center   17 is at  -0.311490  0.498619  2.042004
       Atomic Center   18 is at  -1.559620  1.874117 -1.326610
       Atomic Center   19 is at  -1.565841  0.287155 -2.057736
       Atomic Center   20 is at  -3.887491  0.998997 -1.646387
       Atomic Center   21 is at  -3.536493 -0.375911 -0.586665
       Atomic Center   22 is at  -3.575699  1.270828  0.069799
       Atomic Center   23 is at   1.297103 -1.048966  0.422594
       Atomic Center   24 is at   3.350445 -2.004271 -0.100056
       Atomic Center   25 is at   4.724133 -1.015229  0.084808
      ESP Fit Center   26 is at   0.851234  2.468519  2.477681
      ESP Fit Center   27 is at   0.249497  3.820042  2.477681
      ESP Fit Center   28 is at  -2.746331  2.090400  2.477681
      ESP Fit Center   29 is at  -0.776600  4.527793  1.792342
      ESP Fit Center   30 is at  -1.533381  4.457667  1.792342
      ESP Fit Center   31 is at  -3.000303  2.088507  1.792342
      ESP Fit Center   32 is at  -0.776600  4.527793  1.063020
      ESP Fit Center   33 is at  -0.608299  3.090535 -0.545673
      ESP Fit Center   34 is at  -1.408502  0.313660  3.333555
      ESP Fit Center   35 is at  -0.661595  1.553175 -2.739649
      ESP Fit Center   36 is at  -2.681131  1.843541 -2.739649
      ESP Fit Center   37 is at  -5.060943  0.289676  0.253782
      ESP Fit Center   38 is at  -5.314915  1.047807 -0.431557
      ESP Fit Center   39 is at  -5.314915  0.287783 -0.431557
      ESP Fit Center   40 is at  -3.091212  2.727069 -1.160879
      ESP Fit Center   41 is at  -3.847993  2.656943 -1.160879
      ESP Fit Center   42 is at  -3.474136 -0.668319 -2.404911
      ESP Fit Center   43 is at   1.860733  2.009241  0.554814
      ESP Fit Center   44 is at   1.204566 -0.570152 -2.103879
      ESP Fit Center   45 is at   1.779386 -0.072068 -2.103879
      ESP Fit Center   46 is at   0.284695  0.035702 -2.468540
      ESP Fit Center   47 is at   1.002937  0.035702 -2.468540
      ESP Fit Center   48 is at   1.556903  2.845671  0.219632
      ESP Fit Center   49 is at   2.075603  2.991110 -0.416237
      ESP Fit Center   50 is at   1.423507  3.367598 -0.416237
      ESP Fit Center   51 is at   0.674658  3.446305 -0.416237
      ESP Fit Center   52 is at   2.312396  2.965864 -1.166297
      ESP Fit Center   53 is at   1.737585  3.399941 -1.166297
      ESP Fit Center   54 is at   1.044784  3.597060 -1.166297
      ESP Fit Center   55 is at   0.327559  3.530599 -1.166297
      ESP Fit Center   56 is at  -0.317226  3.209535 -1.166297
      ESP Fit Center   57 is at   2.674742  1.645421 -1.916356
      ESP Fit Center   58 is at   2.518190  2.381941 -1.916356
      ESP Fit Center   59 is at   2.075603  2.991110 -1.916356
      ESP Fit Center   60 is at   1.423507  3.367598 -1.916356
      ESP Fit Center   61 is at   0.674658  3.446305 -1.916356
      ESP Fit Center   62 is at  -0.041464  3.213623 -1.916356
      ESP Fit Center   63 is at   2.518190  0.908901 -1.916356
      ESP Fit Center   64 is at   2.249868  1.645421 -2.552226
      ESP Fit Center   65 is at   2.064188  2.338386 -2.552226
      ESP Fit Center   66 is at   1.556903  2.845671 -2.552226
      ESP Fit Center   67 is at   0.863938  3.031350 -2.552226
      ESP Fit Center   68 is at   0.170974  2.845671 -2.552226
      ESP Fit Center   69 is at  -0.336312  2.338386 -2.552226
      ESP Fit Center   70 is at   0.170974  0.445171 -2.552226
      ESP Fit Center   71 is at   0.863938  0.259492 -2.552226
      ESP Fit Center   72 is at   1.556903  0.445171 -2.552226
      ESP Fit Center   73 is at   2.064188  0.952456 -2.552226
      ESP Fit Center   74 is at   1.613998  1.645421 -2.977101
      ESP Fit Center   75 is at   1.238968  2.294991 -2.977101
      ESP Fit Center   76 is at   0.488908  2.294991 -2.977101
      ESP Fit Center   77 is at   0.113879  1.645421 -2.977101
      ESP Fit Center   78 is at   0.488908  0.995850 -2.977101
      ESP Fit Center   79 is at   1.238968  0.995850 -2.977101
      ESP Fit Center   80 is at   0.863938  1.645421 -3.126297
      ESP Fit Center   81 is at   1.622202 -0.190966  2.092071
      ESP Fit Center   82 is at   2.340444 -0.190966  1.965426
      ESP Fit Center   83 is at   1.981323  0.431050  1.965426
      ESP Fit Center   84 is at   1.981323 -0.812982  1.965426
      ESP Fit Center   85 is at   2.182952  1.036904  1.600764
      ESP Fit Center   86 is at   1.430098  1.145148  1.600764
      ESP Fit Center   87 is at   2.182952 -1.418837 -1.616622
      ESP Fit Center   88 is at   1.263081 -0.812982 -1.981283
      ESP Fit Center   89 is at   1.981323 -0.812982 -1.981283
      ESP Fit Center   90 is at   3.018254  0.040570  2.048734
      ESP Fit Center   91 is at   3.377375  0.662586  1.922089
      ESP Fit Center   92 is at   2.659133  0.662586  1.922089
      ESP Fit Center   93 is at   4.368108  0.040570 -1.659959
      ESP Fit Center   94 is at   3.736496  0.040570 -2.024620
      ESP Fit Center   95 is at   2.659133  0.662586 -2.024620
      ESP Fit Center   96 is at   2.300012  0.040570 -2.024620
      ESP Fit Center   97 is at   2.659133 -0.581446 -2.024620
      ESP Fit Center   98 is at   3.377375 -0.581446 -2.024620
      ESP Fit Center   99 is at   3.018254  0.040570 -2.151266
      ESP Fit Center  100 is at   3.532533  1.122017  1.733107
      ESP Fit Center  101 is at   4.282593  1.122017  1.583911
      ESP Fit Center  102 is at   3.907563  1.771587  1.583911
      ESP Fit Center  103 is at   3.157503  1.771587  1.583911
      ESP Fit Center  104 is at   4.918462  1.122017  1.159036
      ESP Fit Center  105 is at   4.732783  1.814981  1.159036
      ESP Fit Center  106 is at   4.225498  2.322267  1.159036
      ESP Fit Center  107 is at   3.532533  2.507946  1.159036
      ESP Fit Center  108 is at   2.839569  2.322267  1.159036
      ESP Fit Center  109 is at   2.332283  1.814981  1.159036
      ESP Fit Center  110 is at   5.343337  1.122017  0.523167
      ESP Fit Center  111 is at   5.186785  1.858537  0.523167
      ESP Fit Center  112 is at   4.744198  2.467706  0.523167
      ESP Fit Center  113 is at   4.092102  2.844194  0.523167
      ESP Fit Center  114 is at   3.343253  2.922901  0.523167
      ESP Fit Center  115 is at   2.627131  2.690219  0.523167
      ESP Fit Center  116 is at   2.067562  2.186381  0.523167
      ESP Fit Center  117 is at   5.492533  1.122017 -0.226893
      ESP Fit Center  118 is at   5.360179  1.830050 -0.226893
      ESP Fit Center  119 is at   4.980991  2.442460 -0.226893
      ESP Fit Center  120 is at   4.406180  2.876537 -0.226893
      ESP Fit Center  121 is at   3.713379  3.073656 -0.226893
      ESP Fit Center  122 is at   2.996154  3.007195 -0.226893
      ESP Fit Center  123 is at   2.351369  2.686130 -0.226893
      ESP Fit Center  124 is at   5.343337  1.122017 -0.976952
      ESP Fit Center  125 is at   5.186785  1.858537 -0.976952
      ESP Fit Center  126 is at   4.744198  2.467706 -0.976952
      ESP Fit Center  127 is at   4.092102  2.844194 -0.976952
      ESP Fit Center  128 is at   3.343253  2.922901 -0.976952
      ESP Fit Center  129 is at   2.627131  2.690219 -0.976952
      ESP Fit Center  130 is at   5.186785  0.385496 -0.976952
      ESP Fit Center  131 is at   4.918462  1.122017 -1.612822
      ESP Fit Center  132 is at   4.732783  1.814981 -1.612822
      ESP Fit Center  133 is at   4.225498  2.322267 -1.612822
      ESP Fit Center  134 is at   3.532533  2.507946 -1.612822
      ESP Fit Center  135 is at   2.839569  2.322267 -1.612822
      ESP Fit Center  136 is at   4.732783  0.429052 -1.612822
      ESP Fit Center  137 is at   4.282593  1.122017 -2.037697
      ESP Fit Center  138 is at   3.907563  1.771587 -2.037697
      ESP Fit Center  139 is at   3.157503  1.771587 -2.037697
      ESP Fit Center  140 is at   2.782474  1.122017 -2.037697
      ESP Fit Center  141 is at   3.907563  0.472446 -2.037697
      ESP Fit Center  142 is at   3.532533  1.122017 -2.186893
      ESP Fit Center  143 is at   3.726695 -1.120112  2.318663
      ESP Fit Center  144 is at   4.444937 -1.120112  2.192018
      ESP Fit Center  145 is at   4.085816 -0.498096  2.192018
      ESP Fit Center  146 is at   3.367574 -0.498096  2.192018
      ESP Fit Center  147 is at   3.008453 -1.120112  2.192018
      ESP Fit Center  148 is at   3.367574 -1.742128  2.192018
      ESP Fit Center  149 is at   4.085816 -1.742128  2.192018
      ESP Fit Center  150 is at   5.076549 -1.120112  1.827356
      ESP Fit Center  151 is at   4.862264 -0.390326  1.827356
      ESP Fit Center  152 is at   4.287445  0.107758  1.827356
      ESP Fit Center  153 is at   2.431520 -1.500410  1.827356
      ESP Fit Center  154 is at   2.842729 -2.140264  1.827356
      ESP Fit Center  155 is at   3.534591 -2.456227  1.827356
      ESP Fit Center  156 is at   4.287445 -2.347983  1.827356
      ESP Fit Center  157 is at   4.862264 -1.849898  1.827356
      ESP Fit Center  158 is at   4.943612  0.231411  1.268663
      ESP Fit Center  159 is at   2.255374 -2.189090  1.268663
      ESP Fit Center  160 is at   4.288690 -2.849754  1.268663
      ESP Fit Center  161 is at   4.943612 -2.471635  1.268663
      ESP Fit Center  162 is at   4.648525 -2.971396  0.583324
      ESP Fit Center  163 is at   4.943612 -2.471635 -0.831337
      ESP Fit Center  164 is at   4.862264 -1.849898 -1.390030
      ESP Fit Center  165 is at   4.444937 -1.120112 -1.754691
      ESP Fit Center  166 is at   4.085816 -1.742128 -1.754691
      ESP Fit Center  167 is at   3.726695 -1.120112 -1.881337
      ESP Fit Center  168 is at  -1.062462 -1.665949  3.366012
      ESP Fit Center  169 is at  -0.345945 -1.665949  3.285280
      ESP Fit Center  170 is at  -0.704203 -1.045427  3.285280
      ESP Fit Center  171 is at  -1.420721 -1.045427  3.285280
      ESP Fit Center  172 is at  -1.778979 -1.665949  3.285280
      ESP Fit Center  173 is at  -1.420721 -2.286471  3.285280
      ESP Fit Center  174 is at  -0.704203 -2.286471  3.285280
      ESP Fit Center  175 is at   0.334644 -1.665949  3.047132
      ESP Fit Center  176 is at   0.147467 -0.967396  3.047132
      ESP Fit Center  177 is at  -1.761015 -0.456020  3.047132
      ESP Fit Center  178 is at  -2.272391 -0.967396  3.047132
      ESP Fit Center  179 is at  -2.459568 -1.665949  3.047132
      ESP Fit Center  180 is at  -2.272391 -2.364502  3.047132
      ESP Fit Center  181 is at  -1.761015 -2.875878  3.047132
      ESP Fit Center  182 is at  -1.062462 -3.063055  3.047132
      ESP Fit Center  183 is at  -0.363909 -2.875878  3.047132
      ESP Fit Center  184 is at   0.147467 -2.364502  3.047132
      ESP Fit Center  185 is at   0.945175 -1.665949  2.663509
      ESP Fit Center  186 is at   0.809604 -0.940707  2.663509
      ESP Fit Center  187 is at  -2.769390 -0.609064  2.663509
      ESP Fit Center  188 is at  -3.035915 -1.297047  2.663509
      ESP Fit Center  189 is at  -3.035915 -2.034851  2.663509
      ESP Fit Center  190 is at  -2.769390 -2.722834  2.663509
      ESP Fit Center  191 is at  -2.272334 -3.268078  2.663509
      ESP Fit Center  192 is at  -1.611878 -3.596946  2.663509
      ESP Fit Center  193 is at  -0.877221 -3.665022  2.663509
      ESP Fit Center  194 is at  -0.167581 -3.463112  2.663509
      ESP Fit Center  195 is at   0.421200 -3.018485  2.663509
      ESP Fit Center  196 is at   0.809604 -2.391191  2.663509
      ESP Fit Center  197 is at   1.455035 -1.665949  2.153649
      ESP Fit Center  198 is at   1.343190 -0.923904  2.153649
      ESP Fit Center  199 is at  -3.330649 -0.573648  2.153649
      ESP Fit Center  200 is at  -3.551841 -1.290735  2.153649
      ESP Fit Center  201 is at  -3.551841 -2.041163  2.153649
      ESP Fit Center  202 is at  -3.330649 -2.758250  2.153649
      ESP Fit Center  203 is at  -2.907918 -3.378282  2.153649
      ESP Fit Center  204 is at  -2.321211 -3.846166  2.153649
      ESP Fit Center  205 is at  -1.622658 -4.120327  2.153649
      ESP Fit Center  206 is at  -0.874329 -4.176407  2.153649
      ESP Fit Center  207 is at  -0.142717 -4.009421  2.153649
      ESP Fit Center  208 is at   0.507172 -3.634208  2.153649
      ESP Fit Center  209 is at   1.017592 -3.084106  2.153649
      ESP Fit Center  210 is at   1.343190 -2.407994  2.153649
      ESP Fit Center  211 is at  -3.759855 -0.597976  1.543118
      ESP Fit Center  212 is at  -3.940706 -1.302342  1.543118
      ESP Fit Center  213 is at  -3.940706 -2.029556  1.543118
      ESP Fit Center  214 is at  -3.759855 -2.733922  1.543118
      ESP Fit Center  215 is at  -3.409517 -3.371184  1.543118
      ESP Fit Center  216 is at  -2.911705 -3.901300  1.543118
      ESP Fit Center  217 is at  -2.297699 -4.290961  1.543118
      ESP Fit Center  218 is at  -1.606078 -4.515682  1.543118
      ESP Fit Center  219 is at  -0.880299 -4.561344  1.543118
      ESP Fit Center  220 is at  -0.165967 -4.425078  1.543118
      ESP Fit Center  221 is at   0.492036 -4.115445  1.543118
      ESP Fit Center  222 is at   1.052363 -3.651902  1.543118
      ESP Fit Center  223 is at   1.479809 -3.063574  1.543118
      ESP Fit Center  224 is at   1.747514 -2.387428  1.543118
      ESP Fit Center  225 is at  -4.180503 -1.301502  0.862530
      ESP Fit Center  226 is at  -4.180503 -2.030396  0.862530
      ESP Fit Center  227 is at  -4.012409 -2.739642  0.862530
      ESP Fit Center  228 is at  -3.685282 -3.391005  0.862530
      ESP Fit Center  229 is at  -3.216758 -3.949370  0.862530
      ESP Fit Center  230 is at  -2.632096 -4.384635  0.862530
      ESP Fit Center  231 is at  -1.962814 -4.673335  0.862530
      ESP Fit Center  232 is at  -1.244994 -4.799906  0.862530
      ESP Fit Center  233 is at  -0.517334 -4.757524  0.862530
      ESP Fit Center  234 is at   0.180938 -4.548475  0.862530
      ESP Fit Center  235 is at   0.812179 -4.184029  0.862530
      ESP Fit Center  236 is at   1.342357 -3.683831  0.862530
      ESP Fit Center  237 is at   1.742890 -3.074850  0.862530
      ESP Fit Center  238 is at  -4.201730 -2.382466  0.146012
      ESP Fit Center  239 is at  -3.963582 -3.063055  0.146012
      ESP Fit Center  240 is at  -3.579959 -3.673586  0.146012
      ESP Fit Center  241 is at  -3.070099 -4.183446  0.146012
      ESP Fit Center  242 is at  -2.459568 -4.567069  0.146012
      ESP Fit Center  243 is at  -1.778979 -4.805217  0.146012
      ESP Fit Center  244 is at  -1.062462 -4.885949  0.146012
      ESP Fit Center  245 is at  -0.345945 -4.805217  0.146012
      ESP Fit Center  246 is at   0.334644 -4.567069  0.146012
      ESP Fit Center  247 is at   0.945175 -4.183446  0.146012
      ESP Fit Center  248 is at   1.455035 -3.673586  0.146012
      ESP Fit Center  249 is at   1.838658 -3.063055  0.146012
      ESP Fit Center  250 is at  -4.180503 -2.030396 -0.570505
      ESP Fit Center  251 is at  -4.012409 -2.739642 -0.570505
      ESP Fit Center  252 is at  -3.685282 -3.391005 -0.570505
      ESP Fit Center  253 is at  -3.216758 -3.949370 -0.570505
      ESP Fit Center  254 is at  -2.632096 -4.384635 -0.570505
      ESP Fit Center  255 is at  -1.962814 -4.673335 -0.570505
      ESP Fit Center  256 is at  -1.244994 -4.799906 -0.570505
      ESP Fit Center  257 is at  -0.517334 -4.757524 -0.570505
      ESP Fit Center  258 is at   0.180938 -4.548475 -0.570505
      ESP Fit Center  259 is at   0.812179 -4.184029 -0.570505
      ESP Fit Center  260 is at   1.342357 -3.683831 -0.570505
      ESP Fit Center  261 is at   1.742890 -3.074850 -0.570505
      ESP Fit Center  262 is at  -3.940706 -2.029556 -1.251094
      ESP Fit Center  263 is at  -3.759855 -2.733922 -1.251094
      ESP Fit Center  264 is at  -3.409517 -3.371184 -1.251094
      ESP Fit Center  265 is at  -2.911705 -3.901300 -1.251094
      ESP Fit Center  266 is at  -2.297699 -4.290961 -1.251094
      ESP Fit Center  267 is at  -1.606078 -4.515682 -1.251094
      ESP Fit Center  268 is at  -0.880299 -4.561344 -1.251094
      ESP Fit Center  269 is at  -0.165967 -4.425078 -1.251094
      ESP Fit Center  270 is at   0.492036 -4.115445 -1.251094
      ESP Fit Center  271 is at   1.052363 -3.651902 -1.251094
      ESP Fit Center  272 is at   1.479809 -3.063574 -1.251094
      ESP Fit Center  273 is at   1.747514 -2.387428 -1.251094
      ESP Fit Center  274 is at   1.455035 -1.665949 -1.861625
      ESP Fit Center  275 is at  -3.551841 -2.041163 -1.861625
      ESP Fit Center  276 is at  -3.330649 -2.758250 -1.861625
      ESP Fit Center  277 is at  -2.907918 -3.378282 -1.861625
      ESP Fit Center  278 is at  -2.321211 -3.846166 -1.861625
      ESP Fit Center  279 is at  -1.622658 -4.120327 -1.861625
      ESP Fit Center  280 is at  -0.874329 -4.176407 -1.861625
      ESP Fit Center  281 is at  -0.142717 -4.009421 -1.861625
      ESP Fit Center  282 is at   0.507172 -3.634208 -1.861625
      ESP Fit Center  283 is at   1.017592 -3.084106 -1.861625
      ESP Fit Center  284 is at   1.343190 -2.407994 -1.861625
      ESP Fit Center  285 is at   0.945175 -1.665949 -2.371485
      ESP Fit Center  286 is at   0.809604 -0.940707 -2.371485
      ESP Fit Center  287 is at   0.421200 -0.313413 -2.371485
      ESP Fit Center  288 is at  -3.035915 -1.297047 -2.371485
      ESP Fit Center  289 is at  -3.035915 -2.034851 -2.371485
      ESP Fit Center  290 is at  -2.769390 -2.722834 -2.371485
      ESP Fit Center  291 is at  -2.272334 -3.268078 -2.371485
      ESP Fit Center  292 is at  -1.611878 -3.596946 -2.371485
      ESP Fit Center  293 is at  -0.877221 -3.665022 -2.371485
      ESP Fit Center  294 is at  -0.167581 -3.463112 -2.371485
      ESP Fit Center  295 is at   0.421200 -3.018485 -2.371485
      ESP Fit Center  296 is at   0.809604 -2.391191 -2.371485
      ESP Fit Center  297 is at   0.334644 -1.665949 -2.755108
      ESP Fit Center  298 is at   0.147467 -0.967396 -2.755108
      ESP Fit Center  299 is at  -2.459568 -1.665949 -2.755108
      ESP Fit Center  300 is at  -2.272391 -2.364502 -2.755108
      ESP Fit Center  301 is at  -1.761015 -2.875878 -2.755108
      ESP Fit Center  302 is at  -1.062462 -3.063055 -2.755108
      ESP Fit Center  303 is at  -0.363909 -2.875878 -2.755108
      ESP Fit Center  304 is at   0.147467 -2.364502 -2.755108
      ESP Fit Center  305 is at  -0.345945 -1.665949 -2.993256
      ESP Fit Center  306 is at  -0.704203 -1.045427 -2.993256
      ESP Fit Center  307 is at  -1.778979 -1.665949 -2.993256
      ESP Fit Center  308 is at  -1.420721 -2.286471 -2.993256
      ESP Fit Center  309 is at  -0.704203 -2.286471 -2.993256
      ESP Fit Center  310 is at  -1.062462 -1.665949 -3.073988
      ESP Fit Center  311 is at  -1.090131  2.791276  4.147030
      ESP Fit Center  312 is at  -0.361206  2.791276  3.980658
      ESP Fit Center  313 is at  -0.725668  3.422543  3.980658
      ESP Fit Center  314 is at  -1.454593  3.422543  3.980658
      ESP Fit Center  315 is at  -1.819055  2.791276  3.980658
      ESP Fit Center  316 is at  -1.454593  2.160009  3.980658
      ESP Fit Center  317 is at  -0.725668  2.160009  3.980658
      ESP Fit Center  318 is at   0.223346  2.791276  3.514493
      ESP Fit Center  319 is at  -0.027506  3.563318  3.514493
      ESP Fit Center  320 is at  -0.684244  4.040467  3.514493
      ESP Fit Center  321 is at  -1.496017  4.040467  3.514493
      ESP Fit Center  322 is at  -2.152756  3.563318  3.514493
      ESP Fit Center  323 is at  -2.403608  2.791276  3.514493
      ESP Fit Center  324 is at  -2.152756  2.019234  3.514493
      ESP Fit Center  325 is at  -1.496017  1.542085  3.514493
      ESP Fit Center  326 is at  -0.684244  1.542085  3.514493
      ESP Fit Center  327 is at  -0.027506  2.019234  3.514493
      ESP Fit Center  328 is at   0.360139  3.552436  2.840865
      ESP Fit Center  329 is at  -0.159709  4.139224  2.840865
      ESP Fit Center  330 is at  -0.892706  4.417213  2.840865
      ESP Fit Center  331 is at  -1.670931  4.322719  2.840865
      ESP Fit Center  332 is at  -2.316101  3.877391  2.840865
      ESP Fit Center  333 is at  -2.680416  3.183246  2.840865
      ESP Fit Center  334 is at  -2.680416  2.399306  2.840865
      ESP Fit Center  335 is at   1.307340  2.843714  2.112911
      ESP Fit Center  336 is at   1.056488  3.615756  2.112911
      ESP Fit Center  337 is at   0.399750  4.092905  2.112911
      ESP Fit Center  338 is at   1.056488  2.071672  2.112911
      ESP Fit Center  339 is at   1.631742  2.843714  1.439283
      ESP Fit Center  340 is at   1.444133  3.604874  1.439283
      ESP Fit Center  341 is at   0.924285  4.191662  1.439283
      ESP Fit Center  342 is at   0.191288  4.469651  1.439283
      ESP Fit Center  343 is at   1.444133  2.082554  1.439283
      ESP Fit Center  344 is at   1.631742  2.843714  0.691613
      ESP Fit Center  345 is at   1.444133  3.604874  0.691613
      ESP Fit Center  346 is at   0.924285  4.191662  0.691613
      ESP Fit Center  347 is at   0.191288  4.469651  0.691613
      ESP Fit Center  348 is at   1.056488  3.615756  0.017985
      ESP Fit Center  349 is at   0.399750  4.092905  0.017985
      ESP Fit Center  350 is at  -0.412023  4.092905  0.017985
      ESP Fit Center  351 is at   0.358326  3.474981 -0.448180
      ESP Fit Center  352 is at  -0.370599  3.474981 -0.448180
      ESP Fit Center  353 is at  -2.162985  4.192976  1.884125
      ESP Fit Center  354 is at  -2.819724  3.715827  1.884125
      ESP Fit Center  355 is at  -3.070576  2.943785  1.884125
      ESP Fit Center  356 is at  -1.559674  4.569722  1.210497
      ESP Fit Center  357 is at  -2.337899  4.475228  1.210497
      ESP Fit Center  358 is at  -2.983069  4.029900  1.210497
      ESP Fit Center  359 is at  -3.347384  3.335755  1.210497
      ESP Fit Center  360 is at  -3.347384  2.551815  1.210497
      ESP Fit Center  361 is at  -1.559674  4.569722  0.462827
      ESP Fit Center  362 is at  -2.337899  4.475228  0.462827
      ESP Fit Center  363 is at  -2.983069  4.029900  0.462827
      ESP Fit Center  364 is at  -3.347384  3.335755  0.462827
      ESP Fit Center  365 is at  -1.351212  4.192976 -0.210801
      ESP Fit Center  366 is at  -2.162985  4.192976 -0.210801
      ESP Fit Center  367 is at  -2.819724  3.715827 -0.210801
      ESP Fit Center  368 is at  -3.070576  2.943785 -0.210801
      ESP Fit Center  369 is at  -1.392636  3.575052 -0.676966
      ESP Fit Center  370 is at  -2.121561  3.575052 -0.676966
      ESP Fit Center  371 is at  -2.030062  0.597625  3.389377
      ESP Fit Center  372 is at  -2.394524  1.228892  3.223005
      ESP Fit Center  373 is at  -2.758987  0.597625  3.223005
      ESP Fit Center  374 is at  -2.394524 -0.033642  3.223005
      ESP Fit Center  375 is at  -1.665599 -0.033642  3.223005
      ESP Fit Center  376 is at  -3.092687  1.369667  2.756840
      ESP Fit Center  377 is at  -3.343539  0.597625  2.756840
      ESP Fit Center  378 is at  -3.092687 -0.174417  2.756840
      ESP Fit Center  379 is at  -3.256032  1.683740  2.083212
      ESP Fit Center  380 is at  -3.620347  0.989595  2.083212
      ESP Fit Center  381 is at  -3.620347  0.205655  2.083212
      ESP Fit Center  382 is at  -0.311490  0.498619  3.722004
      ESP Fit Center  383 is at   0.417435  0.498619  3.555632
      ESP Fit Center  384 is at   0.052972  1.129886  3.555632
      ESP Fit Center  385 is at  -0.675952  1.129886  3.555632
      ESP Fit Center  386 is at  -1.040415  0.498619  3.555632
      ESP Fit Center  387 is at  -0.675952 -0.132648  3.555632
      ESP Fit Center  388 is at   0.052972 -0.132648  3.555632
      ESP Fit Center  389 is at   1.001987  0.498619  3.089467
      ESP Fit Center  390 is at   0.751135  1.270661  3.089467
      ESP Fit Center  391 is at  -1.374115 -0.273423  3.089467
      ESP Fit Center  392 is at   0.094397 -0.750572  3.089467
      ESP Fit Center  393 is at   0.751135 -0.273423  3.089467
      ESP Fit Center  394 is at   1.326389  0.498619  2.415839
      ESP Fit Center  395 is at   1.138780  1.259779  2.415839
      ESP Fit Center  396 is at   1.138780 -0.262541  2.415839
      ESP Fit Center  397 is at   1.138780  1.259779  1.668169
      ESP Fit Center  398 is at  -0.629198  3.222065 -0.952775
      ESP Fit Center  399 is at  -1.362195  3.500054 -0.952775
      ESP Fit Center  400 is at  -2.140420  3.405560 -0.952775
      ESP Fit Center  401 is at  -2.785590  2.960232 -0.952775
      ESP Fit Center  402 is at  -0.629198  3.222065 -1.700445
      ESP Fit Center  403 is at  -1.362195  3.500054 -1.700445
      ESP Fit Center  404 is at  -2.140420  3.405560 -1.700445
      ESP Fit Center  405 is at  -2.785590  2.960232 -1.700445
      ESP Fit Center  406 is at  -0.496995  2.646159 -2.374073
      ESP Fit Center  407 is at  -1.153733  3.123308 -2.374073
      ESP Fit Center  408 is at  -1.965506  3.123308 -2.374073
      ESP Fit Center  409 is at  -2.622245  2.646159 -2.374073
      ESP Fit Center  410 is at  -0.830695  1.874117 -2.840238
      ESP Fit Center  411 is at  -1.195157  2.505384 -2.840238
      ESP Fit Center  412 is at  -1.924082  2.505384 -2.840238
      ESP Fit Center  413 is at  -1.559620  1.874117 -3.006610
      ESP Fit Center  414 is at  -2.791811 -0.798960 -2.431571
      ESP Fit Center  415 is at  -0.252364  0.287155 -3.105199
      ESP Fit Center  416 is at  -0.503216  1.059197 -3.105199
      ESP Fit Center  417 is at  -1.159954  1.536346 -3.105199
      ESP Fit Center  418 is at  -1.971728  1.536346 -3.105199
      ESP Fit Center  419 is at  -2.628466  1.059197 -3.105199
      ESP Fit Center  420 is at  -2.879318  0.287155 -3.105199
      ESP Fit Center  421 is at  -2.628466 -0.484887 -3.105199
      ESP Fit Center  422 is at  -1.971728 -0.962036 -3.105199
      ESP Fit Center  423 is at  -1.159954 -0.962036 -3.105199
      ESP Fit Center  424 is at  -0.503216 -0.484887 -3.105199
      ESP Fit Center  425 is at  -0.836916  0.287155 -3.571364
      ESP Fit Center  426 is at  -1.201379  0.918422 -3.571364
      ESP Fit Center  427 is at  -1.930303  0.918422 -3.571364
      ESP Fit Center  428 is at  -2.294766  0.287155 -3.571364
      ESP Fit Center  429 is at  -1.930303 -0.344112 -3.571364
      ESP Fit Center  430 is at  -1.201379 -0.344112 -3.571364
      ESP Fit Center  431 is at  -1.565841  0.287155 -3.737736
      ESP Fit Center  432 is at  -4.468291  2.530441 -1.272552
      ESP Fit Center  433 is at  -5.113461  2.085112 -1.272552
      ESP Fit Center  434 is at  -5.477776  1.390967 -1.272552
      ESP Fit Center  435 is at  -5.477776  0.607027 -1.272552
      ESP Fit Center  436 is at  -3.690066  2.624934 -2.020222
      ESP Fit Center  437 is at  -4.468291  2.530441 -2.020222
      ESP Fit Center  438 is at  -5.113461  2.085112 -2.020222
      ESP Fit Center  439 is at  -5.477776  1.390967 -2.020222
      ESP Fit Center  440 is at  -5.477776  0.607027 -2.020222
      ESP Fit Center  441 is at  -5.113461 -0.087117 -2.020222
      ESP Fit Center  442 is at  -3.481604  2.248188 -2.693850
      ESP Fit Center  443 is at  -4.293377  2.248188 -2.693850
      ESP Fit Center  444 is at  -4.950116  1.771040 -2.693850
      ESP Fit Center  445 is at  -5.200968  0.998997 -2.693850
      ESP Fit Center  446 is at  -4.950116  0.226955 -2.693850
      ESP Fit Center  447 is at  -4.293377 -0.250194 -2.693850
      ESP Fit Center  448 is at  -3.481604 -0.250194 -2.693850
      ESP Fit Center  449 is at  -3.158566  0.998997 -3.160015
      ESP Fit Center  450 is at  -3.523028  1.630264 -3.160015
      ESP Fit Center  451 is at  -4.251953  1.630264 -3.160015
      ESP Fit Center  452 is at  -4.616415  0.998997 -3.160015
      ESP Fit Center  453 is at  -4.251953  0.367730 -3.160015
      ESP Fit Center  454 is at  -3.523028  0.367730 -3.160015
      ESP Fit Center  455 is at  -3.887491  0.998997 -3.326387
      ESP Fit Center  456 is at  -4.265418 -0.375911  0.926963
      ESP Fit Center  457 is at  -4.849970 -0.375911  0.460798
      ESP Fit Center  458 is at  -4.599118 -1.147953  0.460798
      ESP Fit Center  459 is at  -5.126778 -0.767881 -0.212830
      ESP Fit Center  460 is at  -4.762463 -1.462025 -0.212830
      ESP Fit Center  461 is at  -5.126778 -0.767881 -0.960500
      ESP Fit Center  462 is at  -4.762463 -1.462025 -0.960500
      ESP Fit Center  463 is at  -4.117293 -1.907354 -0.960500
      ESP Fit Center  464 is at  -4.599118 -1.147953 -1.634128
      ESP Fit Center  465 is at  -3.942380 -1.625102 -1.634128
      ESP Fit Center  466 is at  -3.900955 -1.007178 -2.100293
      ESP Fit Center  467 is at  -3.575699  1.270828  1.749799
      ESP Fit Center  468 is at  -3.211236  1.902095  1.583427
      ESP Fit Center  469 is at  -3.940161  1.902095  1.583427
      ESP Fit Center  470 is at  -4.304623  1.270828  1.583427
      ESP Fit Center  471 is at  -3.940161  0.639561  1.583427
      ESP Fit Center  472 is at  -3.981585  2.520019  1.117262
      ESP Fit Center  473 is at  -4.638324  2.042871  1.117262
      ESP Fit Center  474 is at  -4.889176  1.270828  1.117262
      ESP Fit Center  475 is at  -4.638324  0.498786  1.117262
      ESP Fit Center  476 is at  -3.981585  0.021637  1.117262
      ESP Fit Center  477 is at  -4.156499  2.802272  0.443634
      ESP Fit Center  478 is at  -4.801669  2.356943  0.443634
      ESP Fit Center  479 is at  -5.165984  1.662798  0.443634
      ESP Fit Center  480 is at  -5.165984  0.878858  0.443634
      ESP Fit Center  481 is at  -3.378274  2.896765 -0.304036
      ESP Fit Center  482 is at  -4.156499  2.802272 -0.304036
      ESP Fit Center  483 is at  -4.801669  2.356943 -0.304036
      ESP Fit Center  484 is at  -5.165984  1.662798 -0.304036
      ESP Fit Center  485 is at   2.026028 -1.048966  1.936222
      ESP Fit Center  486 is at   1.661565 -1.680233  1.936222
      ESP Fit Center  487 is at   2.287820 -2.776314  0.947407
      ESP Fit Center  488 is at   2.944558 -3.253462  0.947407
      ESP Fit Center  489 is at   3.756332 -3.253462  0.947407
      ESP Fit Center  490 is at   2.124475 -3.090386  0.273779
      ESP Fit Center  491 is at   2.769645 -3.535715  0.273779
      ESP Fit Center  492 is at   3.547869 -3.630208  0.273779
      ESP Fit Center  493 is at   4.280866 -3.352219  0.273779
      ESP Fit Center  494 is at   2.124475 -3.090386 -0.473891
      ESP Fit Center  495 is at   2.769645 -3.535715 -0.473891
      ESP Fit Center  496 is at   3.547869 -3.630208 -0.473891
      ESP Fit Center  497 is at   4.280866 -3.352219 -0.473891
      ESP Fit Center  498 is at   2.036968 -2.004271 -1.147519
      ESP Fit Center  499 is at   2.287820 -2.776314 -1.147519
      ESP Fit Center  500 is at   2.944558 -3.253462 -1.147519
      ESP Fit Center  501 is at   3.756332 -3.253462 -1.147519
      ESP Fit Center  502 is at   4.413070 -2.776314 -1.147519
      ESP Fit Center  503 is at   2.621520 -2.004271 -1.613684
      ESP Fit Center  504 is at   2.985983 -2.635539 -1.613684
      ESP Fit Center  505 is at   3.714907 -2.635539 -1.613684
      ESP Fit Center  506 is at   3.350445 -2.004271 -1.780056
      ESP Fit Center  507 is at   5.453058 -1.015229  1.598436
      ESP Fit Center  508 is at   6.037610 -1.015229  1.132271
      ESP Fit Center  509 is at   5.786758 -0.243187  1.132271
      ESP Fit Center  510 is at   5.130020  0.233961  1.132271
      ESP Fit Center  511 is at   5.786758 -1.787272  1.132271
      ESP Fit Center  512 is at   6.362012 -1.015229  0.458643
      ESP Fit Center  513 is at   6.174403 -0.254069  0.458643
      ESP Fit Center  514 is at   5.654554  0.332719  0.458643
      ESP Fit Center  515 is at   5.654554 -2.363177  0.458643
      ESP Fit Center  516 is at   6.174403 -1.776390  0.458643
      ESP Fit Center  517 is at   6.362012 -1.015229 -0.289027
      ESP Fit Center  518 is at   6.174403 -0.254069 -0.289027
      ESP Fit Center  519 is at   5.654554  0.332719 -0.289027
      ESP Fit Center  520 is at   5.654554 -2.363177 -0.289027
      ESP Fit Center  521 is at   6.174403 -1.776390 -0.289027
      ESP Fit Center  522 is at   6.037610 -1.015229 -0.962655
      ESP Fit Center  523 is at   5.786758 -0.243187 -0.962655
      ESP Fit Center  524 is at   5.130020  0.233961 -0.962655
      ESP Fit Center  525 is at   5.130020 -2.264420 -0.962655
      ESP Fit Center  526 is at   5.786758 -1.787272 -0.962655
      ESP Fit Center  527 is at   5.453058 -1.015229 -1.428820
      ESP Fit Center  528 is at   5.088595 -0.383962 -1.428820
      ESP Fit Center  529 is at   5.088595 -1.646497 -1.428820
      ESP Fit Center  530 is at   0.948598  2.468519  2.819749
      ESP Fit Center  531 is at   0.802750  3.201747  2.819749
      ESP Fit Center  532 is at  -0.414485  4.652010  2.159535
      ESP Fit Center  533 is at  -1.153423  4.713240  2.159535
      ESP Fit Center  534 is at  -1.872204  4.531220  2.159535
      ESP Fit Center  535 is at  -2.492938  4.125674  2.159535
      ESP Fit Center  536 is at  -3.189114  2.839254  2.159535
      ESP Fit Center  537 is at  -3.189114  2.097784  2.159535
      ESP Fit Center  538 is at   1.162952  1.737161  2.159535
      ESP Fit Center  539 is at  -0.235566  4.720933  1.427681
      ESP Fit Center  540 is at  -0.967420  4.836847  1.427681
      ESP Fit Center  541 is at  -1.781234  0.935676  3.612614
      ESP Fit Center  542 is at  -1.415308  0.301872  3.612614
      ESP Fit Center  543 is at  -2.708776  1.875444 -3.046974
      ESP Fit Center  544 is at  -5.052201 -0.065433  0.595850
      ESP Fit Center  545 is at  -5.503726  1.038530 -0.064364
      ESP Fit Center  546 is at  -5.503726  0.297060 -0.064364
      ESP Fit Center  547 is at  -3.282032  3.036123 -0.796218
      ESP Fit Center  548 is at  -4.013885  2.920209 -0.796218
      ESP Fit Center  549 is at  -4.674100  2.583813 -0.796218
      ESP Fit Center  550 is at  -5.534446  1.399649 -0.796218
      ESP Fit Center  551 is at  -5.650360  0.667795 -0.796218
      ESP Fit Center  552 is at  -5.534446 -0.064058 -0.796218
      ESP Fit Center  553 is at  -3.468035  2.912516 -1.528072
      ESP Fit Center  554 is at  -5.262971 -0.404235 -1.528072
      ESP Fit Center  555 is at  -4.636861 -0.687034 -2.188286
      ESP Fit Center  556 is at  -3.480144 -0.710104 -2.712236
      ESP Fit Center  557 is at   1.814899 -0.094891 -2.411204
      ESP Fit Center  558 is at   1.009743  0.023914 -2.747600
      ESP Fit Center  559 is at   2.217551  2.999033 -0.061077
      ESP Fit Center  560 is at   1.596508  3.414001 -0.061077
      ESP Fit Center  561 is at   2.531508  3.044678 -0.782458
      ESP Fit Center  562 is at   1.952367  3.530635 -0.782458
      ESP Fit Center  563 is at   1.241946  3.789208 -0.782458
      ESP Fit Center  564 is at   0.485931  3.789208 -0.782458
      ESP Fit Center  565 is at  -0.224491  3.530635 -0.782458
      ESP Fit Center  566 is at   2.531508  3.044678 -1.550136
      ESP Fit Center  567 is at   1.952367  3.530635 -1.550136
      ESP Fit Center  568 is at   1.241946  3.789208 -1.550136
      ESP Fit Center  569 is at   0.485931  3.789208 -1.550136
      ESP Fit Center  570 is at  -0.224491  3.530635 -1.550136
      ESP Fit Center  571 is at   2.778235  1.645421 -2.271517
      ESP Fit Center  572 is at   2.632518  2.377991 -2.271517
      ESP Fit Center  573 is at   2.217551  2.999033 -2.271517
      ESP Fit Center  574 is at   1.596508  3.414001 -2.271517
      ESP Fit Center  575 is at   0.863938  3.559718 -2.271517
      ESP Fit Center  576 is at   0.131369  3.414001 -2.271517
      ESP Fit Center  577 is at   2.217551  0.291809 -2.271517
      ESP Fit Center  578 is at   2.632518  0.912851 -2.271517
      ESP Fit Center  579 is at   2.284781  1.645421 -2.859592
      ESP Fit Center  580 is at   2.094425  2.355842 -2.859592
      ESP Fit Center  581 is at   1.574360  2.875907 -2.859592
      ESP Fit Center  582 is at   0.863938  3.066264 -2.859592
      ESP Fit Center  583 is at   0.153517  2.875907 -2.859592
      ESP Fit Center  584 is at  -0.366548  2.355842 -2.859592
      ESP Fit Center  585 is at   0.153517  0.414935 -2.859592
      ESP Fit Center  586 is at   0.863938  0.224578 -2.859592
      ESP Fit Center  587 is at   1.574360  0.414935 -2.859592
      ESP Fit Center  588 is at   2.094425  0.934999 -2.859592
      ESP Fit Center  589 is at   1.619953  1.645421 -3.243431
      ESP Fit Center  590 is at   1.241946  2.300149 -3.243431
      ESP Fit Center  591 is at   0.485931  2.300149 -3.243431
      ESP Fit Center  592 is at   0.107923  1.645421 -3.243431
      ESP Fit Center  593 is at   0.485931  0.990693 -3.243431
      ESP Fit Center  594 is at   1.241946  0.990693 -3.243431
      ESP Fit Center  595 is at   0.863938  1.645421 -3.376736
      ESP Fit Center  596 is at   1.622202 -0.190966  2.360399
[...]
 2576 Fit      -0.030341
 2577 Fit      -0.029546
 2578 Fit      -0.026626
 2579 Fit      -0.022441
 2580 Fit      -0.017573
 2581 Fit      -0.015071
 2582 Fit      -0.021582
 2583 Fit      -0.024158
 2584 Fit      -0.025563
 2585 Fit      -0.022132
 2586 Fit      -0.017257
 2587 Fit      -0.015258
 2588 Fit      -0.018610
 2589 Fit      -0.020880
 2590 Fit      -0.001185
 2591 Fit      -0.005483
 2592 Fit      -0.000807
 2593 Fit      -0.010229
 2594 Fit      -0.011432
 2595 Fit      -0.008637
 2596 Fit      -0.001970
 2597 Fit      -0.010481
 2598 Fit      -0.009783
 2599 Fit       0.008016
 2600 Fit      -0.000080
 2601 Fit      -0.010338
 2602 Fit      -0.001984
 2603 Fit      -0.001816
 2604 Fit      -0.010826
 2605 Fit      -0.016212
 2606 Fit      -0.013021
 2607 Fit      -0.014946
 2608 Fit      -0.019156
 2609 Fit      -0.021182
 2610 Fit      -0.020298
 2611 Fit      -0.015962
 2612 Fit      -0.014784
 2613 Fit      -0.020303
 2614 Fit      -0.023848
 2615 Fit      -0.025500
 2616 Fit      -0.025270
 2617 Fit      -0.022679
 2618 Fit      -0.013854
 2619 Fit      -0.020760
 2620 Fit      -0.025214
 2621 Fit      -0.027906
 2622 Fit      -0.029270
 2623 Fit      -0.029365
 2624 Fit      -0.027729
 2625 Fit      -0.013083
 2626 Fit      -0.021034
 2627 Fit      -0.026082
 2628 Fit      -0.029328
 2629 Fit      -0.031426
 2630 Fit      -0.032703
 2631 Fit      -0.033174
 2632 Fit      -0.032430
 2633 Fit      -0.013212
 2634 Fit      -0.021733
 2635 Fit      -0.027108
 2636 Fit      -0.030652
 2637 Fit      -0.033138
 2638 Fit      -0.035026
 2639 Fit      -0.036552
 2640 Fit      -0.037774
 2641 Fit      -0.014428
 2642 Fit      -0.022714
 2643 Fit      -0.028094
 2644 Fit      -0.031784
 2645 Fit      -0.034561
 2646 Fit      -0.036962
 2647 Fit      -0.039409
 2648 Fit      -0.042414
 2649 Fit      -0.016372
 2650 Fit      -0.023904
 2651 Fit      -0.029079
 2652 Fit      -0.032838
 2653 Fit      -0.035905
 2654 Fit      -0.038879
 2655 Fit      -0.042415
 2656 Fit      -0.018510
 2657 Fit      -0.025431
 2658 Fit      -0.030476
 2659 Fit      -0.034419
 2660 Fit      -0.038038
 2661 Fit      -0.042193
 2662 Fit      -0.009204
 2663 Fit      -0.020489
 2664 Fit      -0.027008
 2665 Fit      -0.032096
 2666 Fit      -0.036512
 2667 Fit      -0.041297
 2668 Fit      -0.012443
 2669 Fit      -0.022265
 2670 Fit      -0.028821
 2671 Fit      -0.034337
 2672 Fit      -0.039763
 2673 Fit      -0.014847
 2674 Fit      -0.024099
 2675 Fit      -0.031473
 2676 Fit      -0.036137
 2677 Fit      -0.017499
 2678 Fit      -0.026606
 2679 Fit      -0.002242
 2680 Fit      -0.003106
 2681 Fit      -0.004457
 2682 Fit      -0.002174
 2683 Fit       0.000868
 2684 Fit       0.000600
 2685 Fit      -0.001111
 2686 Fit      -0.001888
 2687 Fit      -0.004573
 2688 Fit      -0.006724
 2689 Fit      -0.005855
 2690 Fit       0.004405
 2691 Fit       0.002750
 2692 Fit       0.001345
 2693 Fit      -0.000002
 2694 Fit       0.001159
 2695 Fit      -0.002271
 2696 Fit      -0.006771
 2697 Fit      -0.010561
 2698 Fit       0.007972
 2699 Fit       0.006388
 2700 Fit       0.005132
 2701 Fit       0.004172
 2702 Fit       0.003109
 2703 Fit       0.005640
 2704 Fit       0.001561
 2705 Fit      -0.004721
 2706 Fit      -0.012281
 2707 Fit       0.012962
 2708 Fit       0.011284
 2709 Fit       0.009880
 2710 Fit       0.008948
 2711 Fit       0.008394
 2712 Fit       0.007624
 2713 Fit       0.018574
 2714 Fit       0.016738
 2715 Fit       0.015042
 2716 Fit       0.013869
 2717 Fit       0.013362
 2718 Fit       0.013262
 2719 Fit       0.020996
 2720 Fit       0.019060
 2721 Fit       0.017910
 2722 Fit       0.017649
 2723 Fit       0.022353
 2724 Fit       0.021089
 2725 Fit       0.020866
 2726 Fit       0.024875
 2727 Fit       0.023062
 2728 Fit       0.022404
 2729 Fit       0.023739
 2730 Fit       0.022316
 2731 Fit       0.021427
 2732 Fit       0.019654
 2733 Fit       0.009798
 2734 Fit       0.001607
 2735 Fit       0.019954
 2736 Fit       0.017370
 2737 Fit       0.014472
 2738 Fit       0.006805
 2739 Fit      -0.001368
 2740 Fit       0.017155
 2741 Fit       0.017490
 2742 Fit       0.015419
 2743 Fit       0.012034
 2744 Fit       0.005303
 2745 Fit       0.011364
 2746 Fit       0.010655
 2747 Fit       0.005298
 2748 Fit       0.004621
 2749 Fit       0.005099
 2750 Fit       0.005780
 2751 Fit       0.005392
 2752 Fit       0.004244
 2753 Fit       0.003711
 2754 Fit       0.004189
 2755 Fit       0.005617
 2756 Fit       0.006459
 2757 Fit       0.007196
 2758 Fit       0.007259
 2759 Fit       0.006529
 2760 Fit       0.005266
 2761 Fit       0.003983
 2762 Fit       0.003189
 2763 Fit       0.003032
 2764 Fit       0.003396
 2765 Fit       0.004079
 2766 Fit       0.004855
 2767 Fit       0.006078
 2768 Fit       0.006747
 2769 Fit       0.007770
 2770 Fit       0.008961
 2771 Fit       0.008087
 2772 Fit       0.006738
 2773 Fit       0.005170
 2774 Fit       0.003813
 2775 Fit       0.002919
 2776 Fit       0.002525
 2777 Fit       0.002561
 2778 Fit       0.002928
 2779 Fit       0.003531
 2780 Fit       0.004270
 2781 Fit       0.005003
 2782 Fit       0.005590
 2783 Fit       0.006318
 2784 Fit       0.006589
 2785 Fit       0.007397
 2786 Fit       0.008657
 2787 Fit       0.006836
 2788 Fit       0.005077
 2789 Fit       0.003686
 2790 Fit       0.002750
 2791 Fit       0.002246
 2792 Fit       0.002110
 2793 Fit       0.002268
 2794 Fit       0.002655
 2795 Fit       0.003221
 2796 Fit       0.003932
 2797 Fit       0.004732
 2798 Fit       0.005506
 2799 Fit       0.006064
 2800 Fit       0.006280
 2801 Fit       0.005975
 2802 Fit       0.005687
 2803 Fit       0.006107
 2804 Fit       0.007927
 2805 Fit       0.005852
 2806 Fit       0.004206
 2807 Fit       0.003031
 2808 Fit       0.002285
 2809 Fit       0.001909
 2810 Fit       0.001838
 2811 Fit       0.002011
 2812 Fit       0.002376
 2813 Fit       0.002897
 2814 Fit       0.003558
 2815 Fit       0.004355
 2816 Fit       0.005268
 2817 Fit       0.006206
 2818 Fit       0.006955
 2819 Fit       0.007189
 2820 Fit       0.006730
 2821 Fit       0.003665
 2822 Fit       0.004306
 2823 Fit       0.007814
 2824 Fit       0.005668
 2825 Fit       0.004050
 2826 Fit       0.002905
 2827 Fit       0.002157
 2828 Fit       0.001750
 2829 Fit       0.001632
 2830 Fit       0.001750
 2831 Fit       0.002055
 2832 Fit       0.002509
 2833 Fit       0.003093
 2834 Fit       0.003811
 2835 Fit       0.004681
 2836 Fit       0.005722
 2837 Fit       0.006901
 2838 Fit       0.008061
 2839 Fit       0.008793
 2840 Fit       0.008416
 2841 Fit       0.006476
 2842 Fit       0.009875
 2843 Fit       0.007285
 2844 Fit       0.005305
 2845 Fit       0.003855
 2846 Fit       0.002806
 2847 Fit       0.002087
 2848 Fit       0.001662
 2849 Fit       0.001499
 2850 Fit       0.001560
 2851 Fit       0.001803
 2852 Fit       0.002191
 2853 Fit       0.002700
 2854 Fit       0.003323
 2855 Fit       0.004076
 2856 Fit       0.004998
 2857 Fit       0.006137
 2858 Fit       0.007528
 2859 Fit       0.009131
 2860 Fit       0.010688
 2861 Fit       0.011451
 2862 Fit       0.007735
 2863 Fit       0.005677
 2864 Fit       0.004255
 2865 Fit       0.003185
 2866 Fit       0.002372
 2867 Fit       0.001807
 2868 Fit       0.001490
 2869 Fit       0.001403
 2870 Fit       0.001517
 2871 Fit       0.001793
 2872 Fit       0.002201
 2873 Fit       0.002718
 2874 Fit       0.003342
 2875 Fit       0.004092
 2876 Fit       0.005014
 2877 Fit       0.006178
 2878 Fit       0.007673
 2879 Fit       0.009584
 2880 Fit       0.011927
 2881 Fit       0.014448
 2882 Fit       0.016028
 2883 Fit       0.004579
 2884 Fit       0.003597
 2885 Fit       0.002743
 2886 Fit       0.002056
 2887 Fit       0.001591
 2888 Fit       0.001366
 2889 Fit       0.001364
 2890 Fit       0.001553
 2891 Fit       0.001894
 2892 Fit       0.002358
 2893 Fit       0.002930
 2894 Fit       0.003618
 2895 Fit       0.004455
 2896 Fit       0.005510
 2897 Fit       0.006888
 2898 Fit       0.008739
 2899 Fit       0.011266
 2900 Fit       0.014708
 2901 Fit       0.019246
 2902 Fit       0.003950
 2903 Fit       0.003197
 2904 Fit       0.002437
 2905 Fit       0.001824
 2906 Fit       0.001437
 2907 Fit       0.001288
 2908 Fit       0.001353
 2909 Fit       0.001594
 2910 Fit       0.001977
 2911 Fit       0.002477
 2912 Fit       0.003086
 2913 Fit       0.003822
 2914 Fit       0.004734
 2915 Fit       0.005907
 2916 Fit       0.007482
 2917 Fit       0.009670
 2918 Fit       0.012805
 2919 Fit       0.017445
 2920 Fit       0.003250
 2921 Fit       0.002486
 2922 Fit       0.001836
 2923 Fit       0.001412
 2924 Fit       0.001232
 2925 Fit       0.001272
 2926 Fit       0.001496
 2927 Fit       0.001866
 2928 Fit       0.002358
 2929 Fit       0.002967
 2930 Fit       0.003710
 2931 Fit       0.004640
 2932 Fit       0.005851
 2933 Fit       0.007496
 2934 Fit       0.009818
 2935 Fit       0.013225
 2936 Fit       0.018466
 2937 Fit       0.002825
 2938 Fit       0.002091
 2939 Fit       0.001533
 2940 Fit       0.001219
 2941 Fit       0.001144
 2942 Fit       0.001275
 2943 Fit       0.001574
 2944 Fit       0.002012
 2945 Fit       0.002575
 2946 Fit       0.003276
 2947 Fit       0.004157
 2948 Fit       0.005303
 2949 Fit       0.006855
 2950 Fit       0.009037
 2951 Fit       0.012215
 2952 Fit       0.017033
 2953 Fit       0.024744
 2954 Fit       0.003001
 2955 Fit       0.002303
 2956 Fit       0.001676
 2957 Fit       0.001250
 2958 Fit       0.001058
 2959 Fit       0.001081
 2960 Fit       0.001288
 2961 Fit       0.001647
 2962 Fit       0.002142
 2963 Fit       0.002774
 2964 Fit       0.003575
 2965 Fit       0.004612
 2966 Fit       0.005997
 2967 Fit       0.007901
 2968 Fit       0.010583
 2969 Fit       0.014435
 2970 Fit       0.020020
 2971 Fit       0.002417
 2972 Fit       0.001760
 2973 Fit       0.001266
 2974 Fit       0.000997
 2975 Fit       0.000953
 2976 Fit       0.001109
 2977 Fit       0.001436
 2978 Fit       0.001917
 2979 Fit       0.002555
 2980 Fit       0.003384
 2981 Fit       0.004475
 2982 Fit       0.005937
 2983 Fit       0.007922
 2984 Fit       0.010617
 2985 Fit       0.014176
 2986 Fit       0.018481
 2987 Fit       0.010445
 2988 Fit       0.003054
 2989 Fit       0.002210
 2990 Fit       0.001551
 2991 Fit       0.001099
 2992 Fit       0.000886
 2993 Fit       0.000904
 2994 Fit       0.001129
 2995 Fit       0.001537
 2996 Fit       0.002125
 2997 Fit       0.002916
 2998 Fit       0.003966
 2999 Fit       0.005354
 3000 Fit       0.007161
 3001 Fit       0.009397
 3002 Fit       0.011831
 3003 Fit       0.013698
 3004 Fit       0.013602
 3005 Fit       0.005336
 3006 Fit       0.000418
 3007 Fit      -0.006797
 3008 Fit       0.003016
 3009 Fit       0.002068
 3010 Fit       0.001403
 3011 Fit       0.000993
 3012 Fit       0.000839
 3013 Fit       0.000925
 3014 Fit       0.001227
 3015 Fit       0.001730
 3016 Fit       0.002442
 3017 Fit       0.003388
 3018 Fit       0.004591
 3019 Fit       0.006012
 3020 Fit       0.007442
 3021 Fit       0.008351
 3022 Fit       0.007899
 3023 Fit       0.002554
 3024 Fit      -0.001107
 3025 Fit      -0.005914
 3026 Fit      -0.010347
 3027 Fit       0.004984
 3028 Fit       0.003554
 3029 Fit       0.002396
 3030 Fit       0.001582
 3031 Fit       0.001081
 3032 Fit       0.000880
 3033 Fit       0.000957
 3034 Fit       0.001283
 3035 Fit       0.001838
 3036 Fit       0.002602
 3037 Fit       0.003527
 3038 Fit       0.004450
 3039 Fit       0.004991
 3040 Fit       0.004547
 3041 Fit       0.001227
 3042 Fit      -0.001313
 3043 Fit      -0.003840
 3044 Fit      -0.004379
 3045 Fit       0.003319
 3046 Fit       0.002247
 3047 Fit       0.001460
 3048 Fit       0.001048
 3049 Fit       0.001004
 3050 Fit       0.001282
 3051 Fit       0.001809
 3052 Fit       0.002448
 3053 Fit       0.002903
 3054 Fit       0.002661
 3055 Fit       0.000798
 3056 Fit      -0.000569
 3057 Fit      -0.000743
 3058 Fit       0.001076
 3059 Fit       0.002768
 3060 Fit       0.002805
 3061 Fit       0.002016
 3062 Fit       0.001350
 3063 Fit       0.001129
 3064 Fit       0.001318
 3065 Fit       0.001665
 3066 Fit       0.001666
 3067 Fit       0.000901
 3068 Fit       0.000794
 3069 Fit       0.001768
 3070 Fit       0.001677
 3071 Fit       0.001267
 3072 Fit       0.001248
 3073 Fit       0.001263
 3074 Fit       0.007324
 3075 Fit       0.006394
 3076 Fit       0.005978
 3077 Fit       0.006806
 3078 Fit       0.007916
 3079 Fit       0.008528
 3080 Fit       0.007906
 3081 Fit       0.005030
 3082 Fit       0.004174
 3083 Fit       0.004525
 3084 Fit       0.005463
 3085 Fit       0.006573
 3086 Fit       0.007715
 3087 Fit       0.008816
 3088 Fit       0.009611
 3089 Fit       0.009806
 3090 Fit       0.009143
 3091 Fit       0.007146
 3092 Fit       0.003131
 3093 Fit       0.001998
 3094 Fit       0.002118
 3095 Fit       0.002915
 3096 Fit       0.003973
 3097 Fit       0.005082
 3098 Fit       0.006186
 3099 Fit       0.007323
 3100 Fit       0.008559
 3101 Fit       0.009865
 3102 Fit       0.005822
 3103 Fit      -0.000591
 3104 Fit       0.000257
 3105 Fit       0.001407
 3106 Fit       0.002632
 3107 Fit       0.003832
 3108 Fit       0.004993
 3109 Fit       0.006162
 3110 Fit       0.007438
 3111 Fit       0.008943
 3112 Fit       0.002378
 3113 Fit       0.003811
 3114 Fit      -0.006405
 3115 Fit      -0.006697
 3116 Fit      -0.014811
 3117 Fit      -0.013372
 3118 Fit      -0.010429
 3119 Fit      -0.007552
 3120 Fit      -0.022540
 3121 Fit      -0.016450
 3122 Fit      -0.011737
 3123 Fit      -0.008205
 3124 Fit      -0.023297
 3125 Fit      -0.016328
 3126 Fit      -0.011500
 3127 Fit      -0.007882
 3128 Fit      -0.030090
 3129 Fit      -0.020974
 3130 Fit      -0.014821
 3131 Fit      -0.010244
 3132 Fit      -0.022259
 3133 Fit      -0.014940
 3134 Fit       0.004700
 3135 Fit       0.006336
 3136 Fit       0.008175
 3137 Fit       0.002007
 3138 Fit       0.003978
 3139 Fit       0.005808
 3140 Fit       0.007670
 3141 Fit      -0.001077
 3142 Fit       0.001584
 3143 Fit       0.003879
 3144 Fit       0.005903
 3145 Fit       0.007834
 3146 Fit      -0.001040
 3147 Fit       0.002009
 3148 Fit       0.004516
 3149 Fit       0.006635
 3150 Fit      -0.006848
 3151 Fit      -0.001454
 3152 Fit       0.002484
 3153 Fit       0.005514
 3154 Fit       0.009670
 3155 Fit       0.011127
 3156 Fit       0.010232
 3157 Fit       0.010806
 3158 Fit       0.009954
 3159 Fit       0.011750
 3160 Fit       0.011349
 3161 Fit       0.009012
 3162 Fit       0.008500
 3163 Fit       0.008855
 3164 Fit       0.007756
 3165 Fit       0.007217
 3166 Fit       0.006622
 3167 Fit       0.005189
 3168 Fit       0.002548
 3169 Fit      -0.015058
 3170 Fit      -0.005829
 3171 Fit       0.000016
 3172 Fit       0.003701
 3173 Fit      -0.013235
 3174 Fit      -0.005479
 3175 Fit      -0.000434
 3176 Fit       0.002929
 3177 Fit      -0.014044
 3178 Fit      -0.006131
 3179 Fit      -0.000907
 3180 Fit       0.002722
 3181 Fit      -0.011731
 3182 Fit      -0.004565
 3183 Fit       0.000362
 3184 Fit      -0.007679
 3185 Fit      -0.006133
 3186 Fit       0.002361
 3187 Fit       0.004391
 3188 Fit       0.004527
 3189 Fit      -0.001139
 3190 Fit      -0.001972
 3191 Fit       0.000901
 3192 Fit       0.002967
 3193 Fit       0.002969
 3194 Fit       0.001139
 3195 Fit       0.005351
 3196 Fit       0.005174
 3197 Fit       0.004884
 3198 Fit       0.005196
 3199 Fit       0.005282
 3200 Fit       0.005369
 3201 Fit       0.005335
 3202 Fit       0.005124
 3203 Fit       0.004733
 3204 Fit       0.004212
 3205 Fit       0.004666
 3206 Fit       0.005034
 3207 Fit       0.005351
 3208 Fit       0.005520
 3209 Fit       0.005486
 3210 Fit       0.005235
 3211 Fit       0.004795
 3212 Fit       0.004235
 3213 Fit       0.003742
 3214 Fit       0.004479
 3215 Fit       0.005089
 3216 Fit       0.005485
 3217 Fit       0.005599
 3218 Fit       0.005414
 3219 Fit       0.004980
 3220 Fit       0.004423
 3221 Fit       0.003955
 3222 Fit       0.003979
 3223 Fit       0.004755
 3224 Fit       0.005334
 3225 Fit       0.005501
 3226 Fit       0.005251
 3227 Fit       0.004807
 3228 Fit       0.004647
 3229 Fit       0.004862
 3230 Fit       0.004552
 3231 Fit       0.005068
 3232 Fit       0.005257
 3233 Fit       0.005045
 3234 Fit       0.005158
 3235 Fit       0.005006
 3236 Fit       0.003381
 3237 Fit       0.010581
 3238 Fit       0.009755
 3239 Fit       0.009306
 3240 Fit       0.009974
 3241 Fit       0.009136
 3242 Fit       0.008415
 3243 Fit       0.007774
 3244 Fit       0.007250
 3245 Fit       0.009314
 3246 Fit       0.008369
 3247 Fit       0.007689
 3248 Fit       0.007084
 3249 Fit       0.006496
 3250 Fit       0.007593
 3251 Fit       0.006903
 3252 Fit       0.006351
 3253 Fit       0.005812
 3254 Fit       0.007588
 3255 Fit       0.006617
 3256 Fit       0.006077
 3257 Fit       0.022237
 3258 Fit       0.021310
 3259 Fit       0.024313
 3260 Fit       0.023793
 3261 Fit       0.025412
 3262 Fit       0.025113
 3263 Fit       0.025456
 3264 Fit       0.025281
 3265 Fit       0.025111
 3266 Fit       0.024457
 3267 Fit       0.024238
 3268 Fit       0.022454
 3269 Fit       0.022195
 3270 Fit       0.019271
 3271 Fit       0.008645
 3272 Fit       0.004062
 3273 Fit       0.011206
 3274 Fit       0.011259
 3275 Fit       0.006816
 3276 Fit       0.000032
 3277 Fit       0.015842
 3278 Fit       0.014088
 3279 Fit       0.012782
 3280 Fit       0.007921
 3281 Fit       0.000404
 3282 Fit       0.020034
 3283 Fit       0.018175
 3284 Fit       0.015975
 3285 Fit       0.013306
 3286 Fit       0.008051
 3287 Fit      -0.000121
 3288 Fit       0.021704
 3289 Fit       0.019366
 3290 Fit       0.016819
 3291 Fit       0.012926
 3292 Fit       0.007302
 3293 Fit      -0.001405
 3294 Fit       0.019569
 3295 Fit       0.016731
 3296 Fit       0.011773
 3297 Fit       0.004967
 3298 Fit      -0.005864
 3299 Fit       0.019573
 3300 Fit       0.016229
 3301 Fit       0.010068
 3302 Fit       0.001642
 3303 Fit       0.015336
 -----------------------------------------------------------------
 Leave Link  602 at Thu Jan 16 22:39:23 2014, MaxMem=   235929600 cpu:         1.3

 Test job not archived.
 1\1\GINC-G54\SP\RHF\Gen\C7H13Br1N2O2\KOLAR\16-Jan-2014\0\\# hf/gen pop
 =mk iop(6/33=2,6/41=5,6/42=2)\\na resp\\0,1\C,0,-0.96742,2.468519,1.42
 7681\C,0,-1.049381,0.935676,1.3602\C,0,-0.812657,0.353754,-0.050975\C,
 0,-1.797165,0.823389,-1.130956\C,0,-3.282032,0.667795,-0.796218\C,0,0.
 643816,0.657718,-0.495186\O,0,0.863938,1.645421,-1.166297\N,0,1.622202
 ,-0.190966,-0.007929\C,0,3.018254,0.04057,-0.051266\O,0,3.532533,1.122
 017,-0.226893\N,0,3.726695,-1.120112,0.218663\Br,0,-1.062462,-1.665949
 ,0.146012\H,0,-1.090131,2.791276,2.46703\H,0,-0.006137,2.843714,1.0654
 48\H,0,-1.757099,2.943785,0.836662\H,0,-2.030062,0.597625,1.709377\H,0
 ,-0.31149,0.498619,2.042004\H,0,-1.55962,1.874117,-1.32661\H,0,-1.5658
 41,0.287155,-2.057736\H,0,-3.887491,0.998997,-1.646387\H,0,-3.536493,-
 0.375911,-0.586665\H,0,-3.575699,1.270828,0.069799\H,0,1.297103,-1.048
 966,0.422594\H,0,3.350445,-2.004271,-0.100056\H,0,4.724133,-1.015229,0
 .084808\\Version=AM64L-G09RevD.01\State=1-A\HF=-3100.8941467\RMSD=5.38
 4e-09\Dipole=-0.6324173,-1.3847632,0.5304038\Quadrupole=2.1429663,-1.7
 976352,-0.345331,-14.5477136,0.8734043,4.1751983\PG=C01 [X(C7H13Br1N2O
 2)]\\@


 RESEARCH IS WHAT I AM DOING WHEN I DON'T KNOW WHAT I AM DOING.
     -- WERNER VON BRAUN
 Job cpu time:       0 days  0 hours  2 minutes 36.3 seconds.
 File lengths (MBytes):  RWF=     25 Int=      0 D2E=      0 Chk=      3 Scr=      1
 Normal termination of Gaussian 09 at Thu Jan 16 22:39:23 2014.
155.88user 0.39system 2:36.67elapsed 99%CPU (0avgtext+0avgdata 603440maxresident)k
8inputs+102736outputs (0major+171168minor)pagefaults 0swaps
