Linux g33 2.6.38.6-client #1 SMP Tue Jun 12 11:27:21 CEST 2012 x86_64 GNU/Linux
Thu Jan 16 22:36:46 CET 2014

 Entering Gaussian System, Link 0=/usr/local/programs/common/gaussian/gaussian09_d01/arch/amd64-pgi_10.4.0-acml/g09/g09
 Initial command:
 /usr/local/programs/common/gaussian/gaussian09_d01/arch/amd64-pgi_10.4.0-acml/g09/l1.exe "/scratch/kolar/g09_25994/Gau-1825.inp" -scrdir="/scratch/kolar/g09_25994/"
 Entering Link 1 = /usr/local/programs/common/gaussian/gaussian09_d01/arch/amd64-pgi_10.4.0-acml/g09/l1.exe PID=      1829.
  
 Copyright (c) 1988,1990,1992,1993,1995,1998,2003,2009,2013,
            Gaussian, Inc.  All Rights Reserved.
  
 This is part of the Gaussian(R) 09 program.  It is based on
 the Gaussian(R) 03 system (copyright 2003, Gaussian, Inc.),
 the Gaussian(R) 98 system (copyright 1998, Gaussian, Inc.),
 the Gaussian(R) 94 system (copyright 1995, Gaussian, Inc.),
 the Gaussian 92(TM) system (copyright 1992, Gaussian, Inc.),
 the Gaussian 90(TM) system (copyright 1990, Gaussian, Inc.),
 the Gaussian 88(TM) system (copyright 1988, Gaussian, Inc.),
 the Gaussian 86(TM) system (copyright 1986, Carnegie Mellon
 University), and the Gaussian 82(TM) system (copyright 1983,
 Carnegie Mellon University). Gaussian is a federally registered
 trademark of Gaussian, Inc.
  
 This software contains proprietary and confidential information,
 including trade secrets, belonging to Gaussian, Inc.
  
 This software is provided under written license and may be
 used, copied, transmitted, or stored only in accord with that
 written license.
  
 The following legend is applicable only to US Government
 contracts under FAR:
  
                    RESTRICTED RIGHTS LEGEND
  
 Use, reproduction and disclosure by the US Government is
 subject to restrictions as set forth in subparagraphs (a)
 and (c) of the Commercial Computer Software - Restricted
 Rights clause in FAR 52.227-19.
  
 Gaussian, Inc.
 340 Quinnipiac St., Bldg. 40, Wallingford CT 06492
  
  
 ---------------------------------------------------------------
 Warning -- This program may not be used in any manner that
 competes with the business of Gaussian, Inc. or will provide
 assistance to any competitor of Gaussian, Inc.  The licensee
 of this program is prohibited from giving any competitor of
 Gaussian, Inc. access to this program.  By using this program,
 the user acknowledges that Gaussian, Inc. is engaged in the
 business of creating and licensing software in the field of
 computational chemistry and represents and warrants to the
 licensee that it is not a competitor of Gaussian, Inc. and that
 it will not use this program in any manner prohibited above.
 ---------------------------------------------------------------
  

 Cite this work as:
 Gaussian 09, Revision D.01,
 M. J. Frisch, G. W. Trucks, H. B. Schlegel, G. E. Scuseria, 
 M. A. Robb, J. R. Cheeseman, G. Scalmani, V. Barone, B. Mennucci, 
 G. A. Petersson, H. Nakatsuji, M. Caricato, X. Li, H. P. Hratchian, 
 A. F. Izmaylov, J. Bloino, G. Zheng, J. L. Sonnenberg, M. Hada, 
 M. Ehara, K. Toyota, R. Fukuda, J. Hasegawa, M. Ishida, T. Nakajima, 
 Y. Honda, O. Kitao, H. Nakai, T. Vreven, J. A. Montgomery, Jr., 
 J. E. Peralta, F. Ogliaro, M. Bearpark, J. J. Heyd, E. Brothers, 
 K. N. Kudin, V. N. Staroverov, T. Keith, R. Kobayashi, J. Normand, 
 K. Raghavachari, A. Rendell, J. C. Burant, S. S. Iyengar, J. Tomasi, 
 M. Cossi, N. Rega, J. M. Millam, M. Klene, J. E. Knox, J. B. Cross, 
 V. Bakken, C. Adamo, J. Jaramillo, R. Gomperts, R. E. Stratmann, 
 O. Yazyev, A. J. Austin, R. Cammi, C. Pomelli, J. W. Ochterski, 
 R. L. Martin, K. Morokuma, V. G. Zakrzewski, G. A. Voth, 
 P. Salvador, J. J. Dannenberg, S. Dapprich, A. D. Daniels, 
 O. Farkas, J. B. Foresman, J. V. Ortiz, J. Cioslowski, 
 and D. J. Fox, Gaussian, Inc., Wallingford CT, 2013.
 
 ******************************************
 Gaussian 09:  AM64L-G09RevD.01 24-Apr-2013
                16-Jan-2014 
 ******************************************
 %mem=1800mb
 -----------------------------------------
 # hf/gen pop=mk iop(6/33=2,6/41=5,6/42=2)
 -----------------------------------------
 1/38=1/1;
 2/12=2,17=6,18=5,40=1/2;
 3/5=7,11=9,16=1,25=1,30=1/1,2,3;
 4//1;
 5/5=2,38=5/2;
 6/7=2,8=2,9=2,10=2,15=8,20=1,28=1,33=2,41=5,42=2/1,2;
 99/5=1,9=1/99;
 -------
 na resp
 -------
 Symbolic Z-matrix:
 Charge =  0 Multiplicity = 1
 7                     3.33343  -1.84712  -0.00082 
 7                     3.24477  -0.46931  -0.00008 
 6                     4.5077    0.03401   0.00053 
 7                     5.3612   -0.98074   0.0001 
 7                     4.59149  -2.1066   -0.0008 
 7                     2.09353   0.26647  -0.00005 
 6                     0.97037  -0.38099  -0.00011 
 6                    -0.30624   0.30583  -0.00016 
 6                    -0.42015   1.72161  -0.00045 
 6                    -1.6902    2.3132   -0.0005 
 6                    -2.83541   1.5283   -0.00025 
 6                    -2.72555   0.13225   0.00001 
 6                    -1.48169  -0.47353   0.00005 
 8                     0.65471   2.53396  -0.0007 
 35                   -4.30648  -0.93836   0.00029 
 7                     4.81103   1.34887   0.00139 
 1                    -3.81537   1.99332  -0.00027 
 1                    -1.75464   3.39629  -0.00073 
 1                    -1.40234  -1.5561    0.00024 
 1                     0.96533  -1.47089  -0.0001 
 1                     4.09382   2.05441   0.00214 
 1                     5.78105   1.61955   0.00194 
 1                     1.46021   1.96916  -0.00077 
 
                          Input orientation:                          
 ---------------------------------------------------------------------
 Center     Atomic      Atomic             Coordinates (Angstroms)
 Number     Number       Type             X           Y           Z
 ---------------------------------------------------------------------
      1          7           0        3.333434   -1.847115   -0.000821
      2          7           0        3.244766   -0.469307   -0.000075
      3          6           0        4.507700    0.034005    0.000529
      4          7           0        5.361201   -0.980738    0.000097
      5          7           0        4.591493   -2.106599   -0.000800
      6          7           0        2.093527    0.266470   -0.000045
      7          6           0        0.970370   -0.380994   -0.000112
      8          6           0       -0.306236    0.305831   -0.000157
      9          6           0       -0.420151    1.721605   -0.000452
     10          6           0       -1.690199    2.313203   -0.000496
     11          6           0       -2.835407    1.528301   -0.000254
     12          6           0       -2.725551    0.132252    0.000009
     13          6           0       -1.481693   -0.473534    0.000051
     14          8           0        0.654708    2.533957   -0.000704
     15         35           0       -4.306483   -0.938356    0.000293
     16          7           0        4.811033    1.348870    0.001391
     17          1           0       -3.815370    1.993317   -0.000268
     18          1           0       -1.754638    3.396285   -0.000730
     19          1           0       -1.402340   -1.556104    0.000244
     20          1           0        0.965325   -1.470887   -0.000102
     21          1           0        4.093821    2.054405    0.002139
     22          1           0        5.781053    1.619549    0.001939
     23          1           0        1.460209    1.969159   -0.000773
 ---------------------------------------------------------------------
                    Distance matrix (angstroms):
                    1          2          3          4          5
     1  N    0.000000
     2  N    1.380658   0.000000
     3  C    2.217547   1.359531   0.000000
     4  N    2.205096   2.177351   1.325959   0.000000
     5  N    1.284541   2.120000   2.142244   1.363823   0.000000
     6  N    2.450431   1.366279   2.425339   3.497602   3.445474
     7  C    2.780932   2.276110   3.561591   4.431601   4.011265
     8  C    4.228756   3.634619   4.821604   5.811635   5.459631
     9  C    5.179301   4.269861   5.208811   6.381747   6.306483
    10  C    6.522663   5.665355   6.603688   7.782820   7.680775
    11  C    7.031930   6.399917   7.493607   8.572028   8.268697
    12  C    6.374103   6.000547   7.233918   8.162984   7.651901
    13  C    5.007212   4.726461   6.010859   6.861666   6.288918
    14  O    5.135111   3.965854   4.592963   5.874024   6.085477
    15  Br   7.693775   7.565803   8.867655   9.667777   8.974340
    16  N    3.521026   2.399784   1.349400   2.393692   3.462437
    17  H    8.115067   7.477301   8.550579   9.646474   9.353323
    18  H    7.306280   6.319560   7.107869   8.354250   8.399709
    19  H    4.744707   4.772496   6.120214   6.787970   6.019060
    20  H    2.397809   2.489782   3.848782   4.423118   3.681470
    21  H    3.974928   2.662709   2.062357   3.289126   4.190661
    22  H    4.243655   3.285738   2.033563   2.633965   3.911424
    23  H    4.251226   3.021715   3.609989   4.890770   5.139722
                    6          7          8          9         10
     6  N    0.000000
     7  C    1.296415   0.000000
     8  C    2.400086   1.449638   0.000000
     9  C    2.904478   2.520808   1.420350   0.000000
    10  C    4.301825   3.786466   2.438216   1.401075   0.000000
    11  C    5.087888   4.257857   2.809117   2.422979   1.388370
    12  C    4.820947   3.731388   2.425534   2.800163   2.414229
    13  C    3.651000   2.453809   1.410358   2.438341   2.794526
    14  O    2.685460   2.931993   2.426512   1.347308   2.355275
    15  Br   6.512429   5.306207   4.189269   4.709455   4.173437
    16  N    2.925138   4.212259   5.222487   5.244447   6.572363
    17  H    6.156059   5.342346   3.893794   3.406074   2.149111
    18  H    4.960254   4.657629   3.413030   2.141357   1.084997
    19  H    3.942444   2.647761   2.160612   3.421706   3.880000
    20  H    2.071533   1.089905   2.184856   3.480165   4.622894
    21  H    2.682889   3.960697   4.734767   4.526224   5.789807
    22  H    3.927935   5.210072   6.227435   6.202044   7.503384
    23  H    1.816657   2.400659   2.426312   1.896586   3.169138
                   11         12         13         14         15
    11  C    0.000000
    12  C    1.400365   0.000000
    13  C    2.416585   1.383531   0.000000
    14  O    3.632113   4.146606   3.689067   0.000000
    15  Br   2.872014   1.909332   2.862778   6.055607   0.000000
    16  N    7.648545   7.634151   6.551302   4.321976   9.400027
    17  H    1.084697   2.156680   3.395792   4.502654   2.972524
    18  H    2.158107   3.405376   3.879433   2.559015   5.030013
    19  H    3.401064   2.145095   1.085474   4.578214   2.969118
    20  H    4.841559   4.024006   2.642463   4.016872   5.298637
    21  H    6.949172   7.085091   6.121833   3.472388   8.917496
    22  H    8.616943   8.635645   7.558338   5.207261  10.406789
    23  H    4.318179   4.571085   3.823812   0.983783   6.458203
                   16         17         18         19         20
    16  N    0.000000
    17  H    8.650442   0.000000
    18  H    6.877496   2.492977   0.000000
    19  H    6.858927   4.291981   4.964904   0.000000
    20  H    4.768700   5.903876   5.575622   2.369198   0.000000
    21  H    1.006068   7.909427   6.000427   6.575984   4.713298
    22  H    1.007078   9.603699   7.742315   7.854038   5.722066
    23  H    3.407754   5.275634   3.517375   4.541109   3.475461
                   21         22         23
    21  H    0.000000
    22  H    1.742370   0.000000
    23  H    2.634993   4.334966   0.000000
 Stoichiometry    C8H7BrN6O
 Framework group  C1[X(C8H7BrN6O)]
 Deg. of freedom    63
 Full point group                 C1      NOp   1
 Largest Abelian subgroup         C1      NOp   1
 Largest concise Abelian subgroup C1      NOp   1
                         Standard orientation:                         
 ---------------------------------------------------------------------
 Center     Atomic      Atomic             Coordinates (Angstroms)
 Number     Number       Type             X           Y           Z
 ---------------------------------------------------------------------
      1          7           0        3.333434   -1.847115   -0.000821
      2          7           0        3.244766   -0.469307   -0.000075
      3          6           0        4.507700    0.034005    0.000529
      4          7           0        5.361201   -0.980738    0.000097
      5          7           0        4.591493   -2.106599   -0.000800
      6          7           0        2.093527    0.266470   -0.000045
      7          6           0        0.970370   -0.380994   -0.000112
      8          6           0       -0.306236    0.305831   -0.000157
      9          6           0       -0.420151    1.721605   -0.000452
     10          6           0       -1.690199    2.313203   -0.000496
     11          6           0       -2.835407    1.528301   -0.000254
     12          6           0       -2.725551    0.132252    0.000009
     13          6           0       -1.481693   -0.473534    0.000051
     14          8           0        0.654708    2.533957   -0.000704
     15         35           0       -4.306483   -0.938356    0.000293
     16          7           0        4.811033    1.348870    0.001391
     17          1           0       -3.815370    1.993317   -0.000268
     18          1           0       -1.754638    3.396285   -0.000730
     19          1           0       -1.402340   -1.556104    0.000244
     20          1           0        0.965325   -1.470887   -0.000102
     21          1           0        4.093821    2.054405    0.002139
     22          1           0        5.781053    1.619549    0.001939
     23          1           0        1.460209    1.969159   -0.000773
 ---------------------------------------------------------------------
 Rotational constants (GHZ):      1.0343314      0.1474189      0.1290289
 General basis read from cards:  (5D, 7F)
 There are   269 symmetry adapted cartesian basis functions of A   symmetry.
 There are   252 symmetry adapted basis functions of A   symmetry.
   252 basis functions,   531 primitive gaussians,   269 cartesian basis functions
    70 alpha electrons       70 beta electrons
       nuclear repulsion energy      1299.4954935295 Hartrees.
 NAtoms=   23 NActive=   23 NUniq=   23 SFac= 1.00D+00 NAtFMM=   60 NAOKFM=F Big=F
 Integral buffers will be    131072 words long.
 Raffenetti 1 integral format.
 Two-electron integral symmetry is turned on.
 One-electron integrals computed using PRISM.
 NBasis=   252 RedAO= T EigKep=  4.29D-04  NBF=   252
 NBsUse=   252 1.00D-06 EigRej= -1.00D+00 NBFU=   252
 ExpMin= 1.43D-01 ExpMax= 5.74D+05 ExpMxC= 5.74D+03 IAcc=2 IRadAn=         4 AccDes= 0.00D+00
 Harris functional with IExCor=  205 and IRadAn=       4 diagonalized for initial guess.
 HarFok:  IExCor=  205 AccDes= 0.00D+00 IRadAn=         4 IDoV= 1 UseB2=F ITyADJ=14
 ICtDFT=  3500011 ScaDFX=  1.000000  1.000000  1.000000  1.000000
 FoFCou: FMM=F IPFlag=           0 FMFlag=      100000 FMFlg1=           0
         NFxFlg=           0 DoJE=T BraDBF=F KetDBF=T FulRan=T
         wScrn=  0.000000 ICntrl=     500 IOpCl=  0 I1Cent=   200000004 NGrid=           0
         NMat0=    1 NMatS0=      1 NMatT0=    0 NMatD0=    1 NMtDS0=    0 NMtDT0=    0
 Petite list used in FoFCou.
 Requested convergence on RMS density matrix=1.00D-08 within 128 cycles.
 Requested convergence on MAX density matrix=1.00D-06.
 Requested convergence on             energy=1.00D-06.
 No special actions if energy rises.
 Integral accuracy reduced to 1.0D-05 until final iterations.
 Initial convergence to 1.0D-05 achieved.  Increase integral accuracy.
 SCF Done:  E(RHF) =  -3278.05215078     A.U. after   17 cycles
            NFock= 17  Conv=0.52D-08     -V/T= 1.9993

 **********************************************************************

            Population analysis using the SCF density.

 **********************************************************************

 Orbital symmetries:
 BldTbl:  Degeneracy threshold= 1.00D-02
       Occupied  (A) (A) (A) (A) (A) (A) (A) (A) (A) (A) (A) (A)
                 (A) (A) (A) (A) (A) (A) (A) (A) (A) (A) (A) (A)
                 (A) (A) (A) (A) (A) (A) (A) (A) (A) (A) (A) (A)
                 (A) (A) (A) (A) (A) (A) (A) (A) (A) (A) (A) (A)
                 (A) (A) (A) (A) (A) (A) (A) (A) (A) (A) (A) (A)
                 (A) (A) (A) (A) (A) (A) (A) (A) (A) (A)
       Virtual   (A) (A) (A) (A) (A) (A) (A) (A) (A) (A) (A) (A)
                 (A) (A) (A) (A) (A) (A) (A) (A) (A) (A) (A) (A)
                 (A) (A) (A) (A) (A) (A) (A) (A) (A) (A) (A) (A)
                 (A) (A) (A) (A) (A) (A) (A) (A) (A) (A) (A) (A)
                 (A) (A) (A) (A) (A) (A) (A) (A) (A) (A) (A) (A)
                 (A) (A) (A) (A) (A) (A) (A) (A) (A) (A) (A) (A)
                 (A) (A) (A) (A) (A) (A) (A) (A) (A) (A) (A) (A)
                 (A) (A) (A) (A) (A) (A) (A) (A) (A) (A) (A) (A)
                 (A) (A) (A) (A) (A) (A) (A) (A) (A) (A) (A) (A)
                 (A) (A) (A) (A) (A) (A) (A) (A) (A) (A) (A) (A)
                 (A) (A) (A) (A) (A) (A) (A) (A) (A) (A) (A) (A)
                 (A) (A) (A) (A) (A) (A) (A) (A) (A) (A) (A) (A)
                 (A) (A) (A) (A) (A) (A) (A) (A) (A) (A) (A) (A)
                 (A) (A) (A) (A) (A) (A) (A) (A) (A) (A) (A) (A)
                 (A) (A) (A) (A) (A) (A) (A) (A) (A) (A) (A) (A)
                 (A) (A)
 The electronic state is 1-A.
 Alpha  occ. eigenvalues -- -489.85501 -64.39873 -58.56559 -58.56381 -58.56371
 Alpha  occ. eigenvalues --  -20.60899 -15.70133 -15.66224 -15.65735 -15.65620
 Alpha  occ. eigenvalues --  -15.61544 -15.58618 -11.38172 -11.34670 -11.34054
 Alpha  occ. eigenvalues --  -11.31141 -11.28750 -11.28323 -11.27998 -11.25992
 Alpha  occ. eigenvalues --   -9.67627  -7.49200  -7.48314  -7.48295  -3.23522
 Alpha  occ. eigenvalues --   -3.23098  -3.23082  -3.22051  -3.22051  -1.49654
 Alpha  occ. eigenvalues --   -1.43043  -1.35266  -1.28212  -1.20308  -1.18093
 Alpha  occ. eigenvalues --   -1.14989  -1.07666  -1.06607  -0.97626  -0.95203
 Alpha  occ. eigenvalues --   -0.90271  -0.86144  -0.85606  -0.81800  -0.79538
 Alpha  occ. eigenvalues --   -0.74088  -0.72475  -0.71125  -0.70163  -0.68800
 Alpha  occ. eigenvalues --   -0.67456  -0.64325  -0.62818  -0.61766  -0.59977
 Alpha  occ. eigenvalues --   -0.57624  -0.55913  -0.55677  -0.53025  -0.52526
 Alpha  occ. eigenvalues --   -0.51623  -0.51063  -0.46378  -0.44990  -0.44829
 Alpha  occ. eigenvalues --   -0.42537  -0.41919  -0.37151  -0.35265  -0.32329
 Alpha virt. eigenvalues --    0.04437   0.11769   0.14459   0.15194   0.18537
 Alpha virt. eigenvalues --    0.19769   0.22999   0.24003   0.24263   0.25708
 Alpha virt. eigenvalues --    0.29345   0.30678   0.33120   0.34657   0.35521
 Alpha virt. eigenvalues --    0.37046   0.38929   0.42186   0.43738   0.44898
 Alpha virt. eigenvalues --    0.45900   0.46864   0.49134   0.51775   0.54484
 Alpha virt. eigenvalues --    0.59125   0.59925   0.62211   0.63404   0.63926
 Alpha virt. eigenvalues --    0.64224   0.65123   0.65347   0.67670   0.68552
 Alpha virt. eigenvalues --    0.68683   0.70113   0.71372   0.73203   0.74297
 Alpha virt. eigenvalues --    0.74779   0.75618   0.76081   0.78526   0.80098
 Alpha virt. eigenvalues --    0.80816   0.81808   0.83139   0.83704   0.84131
 Alpha virt. eigenvalues --    0.86009   0.87948   0.88459   0.91015   0.91497
 Alpha virt. eigenvalues --    0.92427   0.92979   0.95234   0.95376   0.97356
 Alpha virt. eigenvalues --    0.98008   0.98467   1.01462   1.01987   1.02557
 Alpha virt. eigenvalues --    1.04040   1.05076   1.06072   1.07207   1.09412
 Alpha virt. eigenvalues --    1.10803   1.12440   1.12480   1.13330   1.14127
 Alpha virt. eigenvalues --    1.15557   1.16143   1.20517   1.21984   1.24106
 Alpha virt. eigenvalues --    1.24669   1.26207   1.27182   1.28534   1.30274
 Alpha virt. eigenvalues --    1.30765   1.34517   1.37062   1.40033   1.42356
 Alpha virt. eigenvalues --    1.44990   1.45530   1.46662   1.47553   1.48875
 Alpha virt. eigenvalues --    1.51455   1.54327   1.57243   1.57933   1.58483
 Alpha virt. eigenvalues --    1.60529   1.62534   1.63596   1.64639   1.68192
 Alpha virt. eigenvalues --    1.70267   1.72171   1.73879   1.76396   1.77943
 Alpha virt. eigenvalues --    1.77972   1.79297   1.80310   1.82206   1.89543
 Alpha virt. eigenvalues --    1.90562   1.91930   1.98946   2.00185   2.00865
 Alpha virt. eigenvalues --    2.03050   2.05741   2.09486   2.10374   2.13087
 Alpha virt. eigenvalues --    2.17360   2.19528   2.20875   2.21794   2.24318
 Alpha virt. eigenvalues --    2.25009   2.28572   2.29434   2.33403   2.35832
 Alpha virt. eigenvalues --    2.38841   2.39942   2.40673   2.41464   2.46020
 Alpha virt. eigenvalues --    2.47149   2.51079   2.54940   2.55372   2.57032
 Alpha virt. eigenvalues --    2.57700   2.59960   2.60395   2.62475   2.63944
 Alpha virt. eigenvalues --    2.67137   2.67740   2.70235   2.74917   2.79769
 Alpha virt. eigenvalues --    2.80819   2.81405   2.85021   2.87551   2.91201
 Alpha virt. eigenvalues --    2.93998   2.94658   2.95767   2.96348   2.96973
 Alpha virt. eigenvalues --    2.98972   3.02450   3.05000   3.09420   3.15416
 Alpha virt. eigenvalues --    3.18985   3.21810   3.22989   3.27124   3.29458
 Alpha virt. eigenvalues --    3.37167   3.41422   3.49639   3.64089   3.65290
 Alpha virt. eigenvalues --    3.76175   9.16251
          Condensed to atoms (all electrons):
               1          2          3          4          5          6
     1  N    6.728993   0.193197  -0.094747  -0.101879   0.368435  -0.035612
     2  N    0.193197   7.010398   0.295445  -0.065809  -0.080728   0.203203
     3  C   -0.094747   0.295445   4.190929   0.476837  -0.137949  -0.059307
     4  N   -0.101879  -0.065809   0.476837   6.881119   0.342664   0.004727
     5  N    0.368435  -0.080728  -0.137949   0.342664   6.529313   0.006683
     6  N   -0.035612   0.203203  -0.059307   0.004727   0.006683   6.919779
     7  C   -0.003885  -0.100077   0.004964  -0.000240  -0.000044   0.500865
     8  C    0.000222   0.004134   0.000032   0.000003   0.000014  -0.057538
     9  C    0.000016  -0.000227   0.000011   0.000000   0.000000   0.003340
    10  C    0.000000   0.000000   0.000000   0.000000   0.000000   0.000022
    11  C    0.000000   0.000000   0.000000   0.000000   0.000000   0.000007
    12  C    0.000000   0.000000   0.000000   0.000000   0.000000  -0.000075
    13  C   -0.000043  -0.000027  -0.000001   0.000000   0.000000   0.000966
    14  O   -0.000006   0.000570   0.000032   0.000000   0.000000  -0.025929
    15  Br   0.000000   0.000000   0.000000   0.000000   0.000000   0.000000
    16  N    0.001468  -0.058575   0.320987  -0.056816   0.002571   0.000507
    17  H    0.000000   0.000000   0.000000   0.000000   0.000000   0.000000
    18  H    0.000000   0.000000   0.000000   0.000000   0.000000   0.000003
    19  H   -0.000011  -0.000008   0.000000   0.000000   0.000000   0.000096
    20  H    0.010786  -0.009007   0.000234   0.000049  -0.000344  -0.033549
    21  H    0.000019  -0.004593  -0.020515   0.001551  -0.000197   0.005364
    22  H   -0.000002   0.002621  -0.025306   0.001822  -0.000059  -0.000087
    23  H    0.000040  -0.001359  -0.000213   0.000008  -0.000001   0.042217
               7          8          9         10         11         12
     1  N   -0.003885   0.000222   0.000016   0.000000   0.000000   0.000000
     2  N   -0.100077   0.004134  -0.000227   0.000000   0.000000   0.000000
     3  C    0.004964   0.000032   0.000011   0.000000   0.000000   0.000000
     4  N   -0.000240   0.000003   0.000000   0.000000   0.000000   0.000000
     5  N   -0.000044   0.000014   0.000000   0.000000   0.000000   0.000000
     6  N    0.500865  -0.057538   0.003340   0.000022   0.000007  -0.000075
     7  C    4.717410   0.378143  -0.043423   0.003107   0.000126   0.002435
     8  C    0.378143   5.082638   0.506612  -0.056723  -0.021686  -0.045806
     9  C   -0.043423   0.506612   4.345369   0.559885  -0.040159  -0.024811
    10  C    0.003107  -0.056723   0.559885   4.993632   0.530510  -0.046173
    11  C    0.000126  -0.021686  -0.040159   0.530510   4.904704   0.527985
    12  C    0.002435  -0.045806  -0.024811  -0.046173   0.527985   4.828700
    13  C   -0.035610   0.477659  -0.018393  -0.033664  -0.047424   0.550994
    14  O   -0.008485  -0.058397   0.277122  -0.048386   0.002304  -0.000028
    15  Br  -0.000140   0.002785   0.000395   0.002716  -0.061395   0.286667
    16  N   -0.000097   0.000012  -0.000012   0.000000   0.000000   0.000000
    17  H    0.000003   0.000077   0.001737  -0.025320   0.378848  -0.028727
    18  H   -0.000077   0.003451  -0.025879   0.375115  -0.026324   0.001798
    19  H    0.000627  -0.032970   0.000712   0.000147   0.002486  -0.021163
    20  H    0.386958  -0.046679   0.001518  -0.000049  -0.000005   0.000255
    21  H   -0.000079  -0.000005  -0.000024   0.000000   0.000000   0.000000
    22  H    0.000007   0.000000   0.000000   0.000000   0.000000   0.000000
    23  H   -0.004481  -0.002447  -0.023907   0.002976  -0.000144   0.000008
              13         14         15         16         17         18
     1  N   -0.000043  -0.000006   0.000000   0.001468   0.000000   0.000000
     2  N   -0.000027   0.000570   0.000000  -0.058575   0.000000   0.000000
     3  C   -0.000001   0.000032   0.000000   0.320987   0.000000   0.000000
     4  N    0.000000   0.000000   0.000000  -0.056816   0.000000   0.000000
     5  N    0.000000   0.000000   0.000000   0.002571   0.000000   0.000000
     6  N    0.000966  -0.025929   0.000000   0.000507   0.000000   0.000003
     7  C   -0.035610  -0.008485  -0.000140  -0.000097   0.000003  -0.000077
     8  C    0.477659  -0.058397   0.002785   0.000012   0.000077   0.003451
     9  C   -0.018393   0.277122   0.000395  -0.000012   0.001737  -0.025879
    10  C   -0.033664  -0.048386   0.002716   0.000000  -0.025320   0.375115
    11  C   -0.047424   0.002304  -0.061395   0.000000   0.378848  -0.026324
    12  C    0.550994  -0.000028   0.286667   0.000000  -0.028727   0.001798
    13  C    4.956464   0.003785  -0.063540   0.000000   0.002818   0.000054
    14  O    0.003785   8.451795   0.000001  -0.000068  -0.000036  -0.000232
    15  Br  -0.063540   0.000001  34.962627   0.000000  -0.001165  -0.000083
    16  N    0.000000  -0.000068   0.000000   7.147584   0.000000   0.000000
    17  H    0.002818  -0.000036  -0.001165   0.000000   0.424608  -0.001622
    18  H    0.000054  -0.000232  -0.000083   0.000000  -0.001622   0.431592
    19  H    0.374972  -0.000025  -0.001111   0.000000  -0.000088   0.000009
    20  H    0.002021  -0.000164  -0.000005  -0.000009   0.000000   0.000001
    21  H    0.000000   0.000350   0.000000   0.322469   0.000000   0.000000
    22  H    0.000000   0.000000   0.000000   0.326792   0.000000   0.000000
    23  H    0.000092   0.236315   0.000000   0.000605   0.000002   0.000004
              19         20         21         22         23
     1  N   -0.000011   0.010786   0.000019  -0.000002   0.000040
     2  N   -0.000008  -0.009007  -0.004593   0.002621  -0.001359
     3  C    0.000000   0.000234  -0.020515  -0.025306  -0.000213
     4  N    0.000000   0.000049   0.001551   0.001822   0.000008
     5  N    0.000000  -0.000344  -0.000197  -0.000059  -0.000001
     6  N    0.000096  -0.033549   0.005364  -0.000087   0.042217
     7  C    0.000627   0.386958  -0.000079   0.000007  -0.004481
     8  C   -0.032970  -0.046679  -0.000005   0.000000  -0.002447
     9  C    0.000712   0.001518  -0.000024   0.000000  -0.023907
    10  C    0.000147  -0.000049   0.000000   0.000000   0.002976
    11  C    0.002486  -0.000005   0.000000   0.000000  -0.000144
    12  C   -0.021163   0.000255   0.000000   0.000000   0.000008
    13  C    0.374972   0.002021   0.000000   0.000000   0.000092
    14  O   -0.000025  -0.000164   0.000350   0.000000   0.236315
    15  Br  -0.001111  -0.000005   0.000000   0.000000   0.000000
    16  N    0.000000  -0.000009   0.322469   0.326792   0.000605
    17  H   -0.000088   0.000000   0.000000   0.000000   0.000002
    18  H    0.000009   0.000001   0.000000   0.000000   0.000004
    19  H    0.421014   0.002627   0.000000   0.000000  -0.000002
    20  H    0.002627   0.400379   0.000007   0.000000   0.000364
    21  H    0.000000   0.000007   0.279057  -0.012495   0.001423
    22  H    0.000000   0.000000  -0.012495   0.276128  -0.000011
    23  H   -0.000002   0.000364   0.001423  -0.000011   0.209552
 Mulliken charges:
               1
     1  N   -0.066991
     2  N   -0.389157
     3  C    1.048566
     4  N   -0.484035
     5  N   -0.030359
     6  N   -0.475681
     7  C    0.201994
     8  C   -0.133529
     9  C    0.480120
    10  C   -0.257794
    11  C   -0.149834
    12  C   -0.032057
    13  C   -0.171126
    14  O   -0.830517
    15  Br  -0.127751
    16  N   -1.007420
    17  H    0.248865
    18  H    0.242190
    19  H    0.252687
    20  H    0.284611
    21  H    0.427668
    22  H    0.430589
    23  H    0.538960
 Sum of Mulliken charges =   0.00000
 Mulliken charges with hydrogens summed into heavy atoms:
               1
     1  N   -0.066991
     2  N   -0.389157
     3  C    1.048566
     4  N   -0.484035
     5  N   -0.030359
     6  N   -0.475681
     7  C    0.486604
     8  C   -0.133529
     9  C    0.480120
    10  C   -0.015604
    11  C    0.099031
    12  C   -0.032057
    13  C    0.081561
    14  O   -0.291557
    15  Br  -0.127751
    16  N   -0.149162
 DipInt: DoE/N= T F RetVal/Mat= T F Init=T NMatP=  1 IDeriv=0 Min/MaxMlt=  0  4
 Entering OneElI...
 OneElI was handed   235742093 working-precision words.
 Multipole integrals L=0 to 4 MinM= 0 MaxM= 0.
 Requested accuracy = 0.1000D-12
 ShPair: Thresh= 1.00D-13 NBox=     0 BxSize= 0.00D+00 RnKept= 1.97D+01
         NSMCal=                 3741 NSMKep=                2898
 PrsmSu:  NPrtUS=   1 ThrOK=F IAlg=1 NPAlg=1 LenDen=           0.
 Prism:   IPart=     0 DynPar=F LinDyn=F Incr=          28.
 PRISM was handed   235458259 working-precision words and  2898 shell-pairs
 IPart=  0 NShTot=        2898 NBatch=         134 AvBLen=        21.6
 PrSmSu:  NxtVal=             29.
 Electronic moments (au):
       -140.00000000         -0.75336082          1.77946683          0.00159635
      -6054.48965251       -993.77131649        -80.08146743         15.39701170
          0.01585996          0.00262513      -5353.37627330      -1262.28083574
          0.01062217       -935.82896504       5714.64516134         -2.42599685
        -45.90955646        -15.75317650          0.57760140         -1.60729717
    -419937.70032952     -16921.72308010       -283.44825441      -6456.96502921
         -4.60390487       5963.89202648          0.71666883         -0.12402762
         -0.01927282     -35493.99103095      -3281.16301783       -624.56375698
         -7.20723347          0.75117443        115.40272783
 Electronic spatial extent (au):  <R**2>=           7128.3424
 DipInt: DoE/N= F T RetVal/Mat= T F Init=T NMatP=  1 IDeriv=0 Min/MaxMlt=  0  4
 Nuclear    moments (au):
        140.00000000          0.00000000          0.00000000          0.00000000
       5965.97244474        915.07544498          0.00015872          0.00000000
         -0.00022683         -0.00009297       5095.59309424       1267.96049738
          0.00000017        843.01116378      -5502.07102966          2.56828446
          0.00091201          0.00021566         -0.53319246          1.64724522
     400002.56767019      13557.89765418          0.00000000       8769.43258032
          5.95380834      -5314.11364534         -0.69904785          0.00000183
          0.00000075      31876.43786240          0.00979798          0.00177723
          7.54279616         -0.42996339          0.00124317
 Total      moments (au):
          0.00000000         -0.75336082          1.77946683          0.00159635
        -88.51720777        -78.69587151        -80.08130871         15.39701170
          0.01563313          0.00253216       -257.78317906          5.67966164
          0.01062234        -92.81780126        212.57413168          0.14228761
        -45.90864445        -15.75296084          0.04440894          0.03994805
     -19935.13265933      -3363.82542591       -283.44825441       2312.46755111
          1.34990347        649.77838114          0.01762099         -0.12402578
         -0.01927207      -3617.55316855      -3281.15321986       -624.56197974
          0.33556269          0.32121104        115.40397099
 Traceless Quadrup. (au):
         -6.08574511          3.73559115          2.35015396         15.39701170
          0.01563313          0.00253216
 Charge=              0.0000 electrons
 Dipole moment (field-independent basis, Debye):
    X=             -1.9149    Y=              4.5230    Z=              0.0041  Tot=              4.9116
 Quadrupole moment (field-independent basis, Debye-Ang):
   XX=           -119.0587   YY=           -105.8486   ZZ=           -107.7121
   XY=             20.7095   XZ=              0.0210   YZ=              0.0034
 Traceless Quadrupole moment (field-independent basis, Debye-Ang):
   XX=             -8.1855   YY=              5.0245   ZZ=              3.1610
   XY=             20.7095   XZ=              0.0210   YZ=              0.0034
 Octapole moment (field-independent basis, Debye-Ang**2):
  XXX=           -183.4801  YYY=              4.0426  ZZZ=              0.0076  XYY=            -66.0641
  XXY=            151.3021  XXZ=              0.1013  XZZ=            -32.6760  YZZ=            -11.2123
  YYZ=              0.0316  XYZ=              0.0284
 Hexadecapole moment (field-independent basis, Debye-Ang**3):
 XXXX=          -7508.5264 YYYY=          -1266.9779 ZZZZ=           -106.7602 XXXY=            870.9861
 XXXZ=              0.5084 YYYX=            244.7377 YYYZ=              0.0066 ZZZX=             -0.0467
 ZZZY=             -0.0073 XXYY=          -1362.5439 XXZZ=          -1235.8396 YYZZ=           -235.2400
 XXYZ=              0.1264 YYXZ=              0.1210 ZZXY=             43.4667
 N-N= 1.299495493529D+03 E-N=-1.040674239987D+04  KE= 3.280360400754D+03
 Entering OneElI...
 OneElI was handed   235786438 working-precision words.
 Calculate electrostatic properties
    NBasis =   252  MinDer = 0  MaxDer = 0
    NGrid  =    23  NMatD  =   1
 Requested accuracy = 0.1000D-12
 PrtBox:  NBox=     1 Levels=  1 BoxLen=   32.44 SMaxX=       19.06
          Shift=            8.138073            3.980895            0.001552
 Box      1 Number                   0 centers from      1 to     86:
 ShPair: Thresh= 1.00D-13 NBox=     1 BxSize= 3.24D+01 RnKept= 1.83D+01
         NSMCal=                 3741 NSMKep=                2521
 PrsmSu:  NPrtUS=   1 ThrOK=F IAlg=1 NPAlg=1 LenDen=           0.
 Prism:   IPart=     0 DynPar=F LinDyn=F Incr=         512.
 PRISM was handed   235533032 working-precision words and  2521 shell-pairs
 IPart=  0 NShTot=       57983 NBatch=        2529 AvBLen=        22.9
 PrSmSu:  NxtVal=            513.
 --------------------------------------------------------
       Center         ----      EFG at Nuclei      ----
                      3XX-RR        3YY-RR        3ZZ-RR
 --------------------------------------------------------
     1   Atom        0.513347     -0.449131     -0.064216
     2   Atom       -0.506698     -0.525590      1.032288
     3   Atom        0.087978      0.228498     -0.316477
     4   Atom        0.767949     -0.784325      0.016376
     5   Atom       -0.241446      0.994417     -0.752971
     6   Atom       -0.670722      0.774350     -0.103628
     7   Atom        0.205166      0.279549     -0.484714
     8   Atom        0.042954      0.064960     -0.107914
     9   Atom        0.132213      0.224985     -0.357198
    10   Atom        0.106526      0.117788     -0.224314
    11   Atom        0.228855      0.179113     -0.407968
    12   Atom       -0.104055      0.114767     -0.010713
    13   Atom        0.194165      0.179069     -0.373235
    14   Atom       -1.525468      0.114602      1.410866
    15   Atom       -3.757150      0.171208      3.585942
    16   Atom       -0.481921     -0.684790      1.166710
    17   Atom       -0.221534      0.059076      0.162458
    18   Atom        0.139039     -0.307791      0.168752
    19   Atom        0.135193     -0.300467      0.165274
    20   Atom        0.130763     -0.281550      0.150787
    21   Atom       -0.128237     -0.121990      0.250227
    22   Atom       -0.364672      0.117648      0.247024
    23   Atom       -0.203421     -0.007160      0.210581
 --------------------------------------------------------
                        XY            XZ            YZ
 --------------------------------------------------------
     1   Atom        0.770702      0.000646     -0.000061
     2   Atom        0.135832     -0.000405     -0.000779
     3   Atom       -0.142225      0.000008      0.000341
     4   Atom       -0.161669      0.000003     -0.000562
     5   Atom       -0.613680     -0.000235      0.000940
     6   Atom        0.531954      0.000002      0.000105
     7   Atom       -0.060518      0.000074      0.000011
     8   Atom        0.047381     -0.000011     -0.000033
     9   Atom       -0.223139      0.000017     -0.000113
    10   Atom        0.024584     -0.000033     -0.000073
    11   Atom        0.019547     -0.000052     -0.000118
    12   Atom       -0.283608      0.000055     -0.000007
    13   Atom       -0.002513     -0.000040     -0.000103
    14   Atom       -0.386669      0.000602      0.000079
    15   Atom       -4.849606      0.001282      0.000879
    16   Atom       -0.047611     -0.000191     -0.001555
    17   Atom        0.175017     -0.000005      0.000007
    18   Atom        0.029939     -0.000005      0.000102
    19   Atom        0.035964     -0.000005      0.000083
    20   Atom       -0.011110     -0.000002      0.000009
    21   Atom        0.287522      0.000306     -0.000385
    22   Atom       -0.152491     -0.000329     -0.000163
    23   Atom        0.219680      0.000041     -0.000020
 --------------------------------------------------------


 ---------------------------------------------------------------------------------
              Nuclear Quadrupole Coupling Constant in Principal Axis System
 ---------------------------------------------------------------------------------

       Atom             a.u.   MegaHertz   Gauss  10(-4) cm-1        Axes

              Baa    -0.8765     4.210     1.502     1.404 -0.4850  0.8745  0.0005
     1 N(14)  Bbb    -0.0642     0.308     0.110     0.103 -0.0002 -0.0007  1.0000
              Bcc     0.9407    -4.518    -1.612    -1.507  0.8745  0.4850  0.0005
 
              Baa    -0.6523     3.133     1.118     1.045 -0.6821  0.7312  0.0002
     2 N(14)  Bbb    -0.3800     1.825     0.651     0.609  0.7312  0.6821  0.0006
              Bcc     1.0323    -4.958    -1.769    -1.654 -0.0003 -0.0005  1.0000
 
              Baa    -0.8010     3.847     1.373     1.283  0.1025  0.9947  0.0007
     4 N(14)  Bbb     0.0164    -0.079    -0.028    -0.026 -0.0001 -0.0007  1.0000
              Bcc     0.7846    -3.768    -1.345    -1.257  0.9947 -0.1025  0.0001
 
              Baa    -0.7530     3.616     1.290     1.206 -0.0003 -0.0007  1.0000
     5 N(14)  Bbb    -0.4944     2.374     0.847     0.792  0.9245  0.3811  0.0005
              Bcc     1.2474    -5.991    -2.138    -1.998 -0.3811  0.9245  0.0005
 
              Baa    -0.8454     4.060     1.449     1.354  0.9501 -0.3120  0.0000
     6 N(14)  Bbb    -0.1036     0.498     0.178     0.166 -0.0001 -0.0001  1.0000
              Bcc     0.9491    -4.558    -1.626    -1.520  0.3120  0.9501  0.0001
 
              Baa    -7.0252   516.664   184.359   172.341  0.8293  0.5588 -0.0001
    15 Br(79) Bbb     3.4393  -252.940   -90.255   -84.372 -0.5588  0.8293 -0.0001
              Bcc     3.5859  -263.724   -94.103   -87.969  0.0001  0.0002  1.0000
 
              Baa    -0.6954     3.340     1.192     1.114  0.2177  0.9760  0.0008
    16 N(14)  Bbb    -0.4713     2.264     0.808     0.755  0.9760 -0.2177 -0.0001
              Bcc     1.1667    -5.603    -1.999    -1.869 -0.0001 -0.0008  1.0000
 

 ---------------------------------------------------------------------------------

 No NMR shielding tensors so no spin-rotation constants.
 Leave Link  601 at Thu Jan 16 22:40:29 2014, MaxMem=   235929600 cpu:         0.4
 FitSet:  NAtFit=    23 NAtPot=    23 NAtFrz=     0 MDM=    27 TotChg=   0.00000
 Merz-Kollman atomic radii used.
 Atom Element Radius
    1     7    1.50
    2     7    1.50
    3     6    1.50
    4     7    1.50
    5     7    1.50
    6     7    1.50
    7     6    1.50
    8     6    1.50
    9     6    1.50
   10     6    1.50
   11     6    1.50
   12     6    1.50
   13     6    1.50
   14     8    1.40
   15    35    2.30
   16     7    1.50
   17     1    1.20
   18     1    1.20
   19     1    1.20
   20     1    1.20
   21     1    1.20
   22     1    1.20
   23     1    1.20
 Generate VDW surfaces: Layer= 5 Dens= 2 Start= 1.400 Inc= 0.179

 **********************************************************************

            Electrostatic Properties Using The SCF Density

 **********************************************************************

       Atomic Center    1 is at   3.333434 -1.847115 -0.000821
       Atomic Center    2 is at   3.244766 -0.469307 -0.000075
       Atomic Center    3 is at   4.507700  0.034005  0.000529
       Atomic Center    4 is at   5.361201 -0.980738  0.000097
       Atomic Center    5 is at   4.591493 -2.106599 -0.000800
       Atomic Center    6 is at   2.093527  0.266470 -0.000045
       Atomic Center    7 is at   0.970370 -0.380994 -0.000112
       Atomic Center    8 is at  -0.306236  0.305831 -0.000157
       Atomic Center    9 is at  -0.420151  1.721605 -0.000452
       Atomic Center   10 is at  -1.690199  2.313203 -0.000496
       Atomic Center   11 is at  -2.835407  1.528301 -0.000254
       Atomic Center   12 is at  -2.725551  0.132252  0.000009
       Atomic Center   13 is at  -1.481693 -0.473534  0.000051
       Atomic Center   14 is at   0.654708  2.533957 -0.000704
       Atomic Center   15 is at  -4.306483 -0.938356  0.000293
       Atomic Center   16 is at   4.811033  1.348870  0.001391
       Atomic Center   17 is at  -3.815370  1.993317 -0.000268
       Atomic Center   18 is at  -1.754638  3.396285 -0.000730
       Atomic Center   19 is at  -1.402340 -1.556104  0.000244
       Atomic Center   20 is at   0.965325 -1.470887 -0.000102
       Atomic Center   21 is at   4.093821  2.054405  0.002139
       Atomic Center   22 is at   5.781053  1.619549  0.001939
       Atomic Center   23 is at   1.460209  1.969159 -0.000773
      ESP Fit Center   24 is at   3.333434 -1.847115  2.099179
      ESP Fit Center   25 is at   3.692555 -1.225099  1.972533
      ESP Fit Center   26 is at   2.974313 -1.225099  1.972533
      ESP Fit Center   27 is at   2.615192 -1.847115  1.972533
      ESP Fit Center   28 is at   2.974313 -2.469131  1.972533
      ESP Fit Center   29 is at   3.692555 -2.469131  1.972533
      ESP Fit Center   30 is at   2.038259 -1.466817  1.607872
      ESP Fit Center   31 is at   2.038259 -2.227413  1.607872
      ESP Fit Center   32 is at   2.449468 -2.867267  1.607872
      ESP Fit Center   33 is at   3.141330 -3.183230  1.607872
      ESP Fit Center   34 is at   1.862113 -2.916093  1.049179
      ESP Fit Center   35 is at   2.424107 -3.422115  1.049179
      ESP Fit Center   36 is at   3.143333 -3.655806  1.049179
      ESP Fit Center   37 is at   2.087128 -3.497492  0.363840
      ESP Fit Center   38 is at   2.767473 -3.836263  0.363840
      ESP Fit Center   39 is at   3.524254 -3.906389  0.363840
      ESP Fit Center   40 is at   2.087128 -3.497492 -0.365482
      ESP Fit Center   41 is at   2.767473 -3.836263 -0.365482
      ESP Fit Center   42 is at   3.524254 -3.906389 -0.365482
      ESP Fit Center   43 is at   1.862113 -2.916093 -1.050821
      ESP Fit Center   44 is at   2.424107 -3.422115 -1.050821
      ESP Fit Center   45 is at   3.143333 -3.655806 -1.050821
      ESP Fit Center   46 is at   2.038259 -1.466817 -1.609514
      ESP Fit Center   47 is at   2.038259 -2.227413 -1.609514
      ESP Fit Center   48 is at   2.449468 -2.867267 -1.609514
      ESP Fit Center   49 is at   3.141330 -3.183230 -1.609514
      ESP Fit Center   50 is at   3.692555 -1.225099 -1.974176
      ESP Fit Center   51 is at   2.974313 -1.225099 -1.974176
      ESP Fit Center   52 is at   2.615192 -1.847115 -1.974176
      ESP Fit Center   53 is at   2.974313 -2.469131 -1.974176
      ESP Fit Center   54 is at   3.692555 -2.469131 -1.974176
      ESP Fit Center   55 is at   3.333434 -1.847115 -2.100821
      ESP Fit Center   56 is at   3.244766 -0.469307  2.099925
      ESP Fit Center   57 is at   3.963008 -0.469307  1.973279
      ESP Fit Center   58 is at   3.603887  0.152709  1.973279
      ESP Fit Center   59 is at   2.885645  0.152709  1.973279
      ESP Fit Center   60 is at   2.526524 -0.469307  1.973279
      ESP Fit Center   61 is at   2.885645 -1.091323  1.973279
      ESP Fit Center   62 is at   3.603887 -1.091323  1.973279
      ESP Fit Center   63 is at   3.963008 -0.469307 -1.973430
      ESP Fit Center   64 is at   3.603887  0.152709 -1.973430
      ESP Fit Center   65 is at   2.885645  0.152709 -1.973430
      ESP Fit Center   66 is at   2.526524 -0.469307 -1.973430
      ESP Fit Center   67 is at   2.885645 -1.091323 -1.973430
      ESP Fit Center   68 is at   3.603887 -1.091323 -1.973430
      ESP Fit Center   69 is at   3.244766 -0.469307 -2.100075
      ESP Fit Center   70 is at   4.507700  0.034005  2.100529
      ESP Fit Center   71 is at   5.225942  0.034005  1.973883
      ESP Fit Center   72 is at   4.148579  0.656021  1.973883
      ESP Fit Center   73 is at   3.789458  0.034005  1.973883
      ESP Fit Center   74 is at   4.148579 -0.588011  1.973883
      ESP Fit Center   75 is at   5.225942  0.034005 -1.972826
      ESP Fit Center   76 is at   4.148579  0.656021 -1.972826
      ESP Fit Center   77 is at   3.789458  0.034005 -1.972826
      ESP Fit Center   78 is at   4.148579 -0.588011 -1.972826
      ESP Fit Center   79 is at   4.507700  0.034005 -2.099471
      ESP Fit Center   80 is at   5.361201 -0.980738  2.100097
      ESP Fit Center   81 is at   6.079443 -0.980738  1.973451
      ESP Fit Center   82 is at   5.720322 -0.358722  1.973451
      ESP Fit Center   83 is at   4.642959 -0.980738  1.973451
      ESP Fit Center   84 is at   5.720322 -1.602754  1.973451
      ESP Fit Center   85 is at   6.711055 -0.980738  1.608790
      ESP Fit Center   86 is at   6.496770 -0.250952  1.608790
      ESP Fit Center   87 is at   5.921951  0.247132  1.608790
      ESP Fit Center   88 is at   6.496770 -1.710524  1.608790
      ESP Fit Center   89 is at   7.179854 -0.980738  1.050097
      ESP Fit Center   90 is at   7.022624 -0.241025  1.050097
      ESP Fit Center   91 is at   6.578118  0.370785  1.050097
      ESP Fit Center   92 is at   6.578118 -2.332261  1.050097
      ESP Fit Center   93 is at   7.022624 -1.720451  1.050097
      ESP Fit Center   94 is at   7.429297 -0.980738  0.364758
      ESP Fit Center   95 is at   7.289643 -0.233656  0.364758
      ESP Fit Center   96 is at   6.889543 -2.374006  0.364758
      ESP Fit Center   97 is at   7.289643 -1.727821  0.364758
      ESP Fit Center   98 is at   7.429297 -0.980738 -0.364564
      ESP Fit Center   99 is at   7.289643 -0.233656 -0.364564
      ESP Fit Center  100 is at   6.889543 -2.374006 -0.364564
      ESP Fit Center  101 is at   7.289643 -1.727821 -0.364564
      ESP Fit Center  102 is at   7.179854 -0.980738 -1.049903
      ESP Fit Center  103 is at   7.022624 -0.241025 -1.049903
      ESP Fit Center  104 is at   6.578118  0.370785 -1.049903
      ESP Fit Center  105 is at   6.578118 -2.332261 -1.049903
      ESP Fit Center  106 is at   7.022624 -1.720451 -1.049903
      ESP Fit Center  107 is at   6.711055 -0.980738 -1.608596
      ESP Fit Center  108 is at   6.496770 -0.250952 -1.608596
      ESP Fit Center  109 is at   5.921951  0.247132 -1.608596
      ESP Fit Center  110 is at   6.496770 -1.710524 -1.608596
      ESP Fit Center  111 is at   6.079443 -0.980738 -1.973258
      ESP Fit Center  112 is at   5.720322 -0.358722 -1.973258
      ESP Fit Center  113 is at   4.642959 -0.980738 -1.973258
      ESP Fit Center  114 is at   5.720322 -1.602754 -1.973258
      ESP Fit Center  115 is at   5.361201 -0.980738 -2.099903
      ESP Fit Center  116 is at   4.591493 -2.106599  2.099200
      ESP Fit Center  117 is at   5.309735 -2.106599  1.972554
      ESP Fit Center  118 is at   4.232372 -1.484583  1.972554
      ESP Fit Center  119 is at   4.232372 -2.728615  1.972554
      ESP Fit Center  120 is at   4.950614 -2.728615  1.972554
      ESP Fit Center  121 is at   4.399389 -3.442714  1.607893
      ESP Fit Center  122 is at   5.152243 -3.334469  1.607893
      ESP Fit Center  123 is at   5.727062 -2.836385  1.607893
      ESP Fit Center  124 is at   3.682166 -3.681599  1.049200
      ESP Fit Center  125 is at   4.401392 -3.915290  1.049200
      ESP Fit Center  126 is at   5.153488 -3.836241  1.049200
      ESP Fit Center  127 is at   5.808410 -3.458122  1.049200
      ESP Fit Center  128 is at   6.252915 -2.846312  1.049200
      ESP Fit Center  129 is at   4.025532 -4.095747  0.363861
      ESP Fit Center  130 is at   4.782313 -4.165873  0.363861
      ESP Fit Center  131 is at   5.513323 -3.957883  0.363861
      ESP Fit Center  132 is at   6.119835 -3.499867  0.363861
      ESP Fit Center  133 is at   6.519935 -2.853682  0.363861
      ESP Fit Center  134 is at   4.025532 -4.095747 -0.365461
      ESP Fit Center  135 is at   4.782313 -4.165873 -0.365461
      ESP Fit Center  136 is at   5.513323 -3.957883 -0.365461
      ESP Fit Center  137 is at   6.119835 -3.499867 -0.365461
      ESP Fit Center  138 is at   6.519935 -2.853682 -0.365461
      ESP Fit Center  139 is at   3.682166 -3.681599 -1.050800
      ESP Fit Center  140 is at   4.401392 -3.915290 -1.050800
      ESP Fit Center  141 is at   5.153488 -3.836241 -1.050800
      ESP Fit Center  142 is at   5.808410 -3.458122 -1.050800
      ESP Fit Center  143 is at   6.252915 -2.846312 -1.050800
      ESP Fit Center  144 is at   4.399389 -3.442714 -1.609493
      ESP Fit Center  145 is at   5.152243 -3.334469 -1.609493
      ESP Fit Center  146 is at   5.727062 -2.836385 -1.609493
      ESP Fit Center  147 is at   5.309735 -2.106599 -1.974155
      ESP Fit Center  148 is at   4.232372 -1.484583 -1.974155
      ESP Fit Center  149 is at   4.232372 -2.728615 -1.974155
      ESP Fit Center  150 is at   4.950614 -2.728615 -1.974155
      ESP Fit Center  151 is at   4.591493 -2.106599 -2.100800
      ESP Fit Center  152 is at   2.093527  0.266470  2.099955
      ESP Fit Center  153 is at   2.811769  0.266470  1.973309
      ESP Fit Center  154 is at   2.452648  0.888486  1.973309
      ESP Fit Center  155 is at   1.734406  0.888486  1.973309
      ESP Fit Center  156 is at   1.375285  0.266470  1.973309
      ESP Fit Center  157 is at   1.734406 -0.355546  1.973309
      ESP Fit Center  158 is at   2.452648 -0.355546  1.973309
      ESP Fit Center  159 is at   3.229096  0.996256  1.608648
      ESP Fit Center  160 is at   2.654277  1.494340  1.608648
      ESP Fit Center  161 is at   1.901423  1.602584  1.608648
      ESP Fit Center  162 is at   1.209561  1.286622  1.608648
      ESP Fit Center  163 is at   3.229096  0.996256 -1.608738
      ESP Fit Center  164 is at   2.654277  1.494340 -1.608738
      ESP Fit Center  165 is at   1.901423  1.602584 -1.608738
      ESP Fit Center  166 is at   1.209561  1.286622 -1.608738
      ESP Fit Center  167 is at   2.811769  0.266470 -1.973400
      ESP Fit Center  168 is at   2.452648  0.888486 -1.973400
      ESP Fit Center  169 is at   1.734406  0.888486 -1.973400
      ESP Fit Center  170 is at   1.375285  0.266470 -1.973400
      ESP Fit Center  171 is at   1.734406 -0.355546 -1.973400
      ESP Fit Center  172 is at   2.452648 -0.355546 -1.973400
      ESP Fit Center  173 is at   2.093527  0.266470 -2.100045
      ESP Fit Center  174 is at   0.970370 -0.380994  2.099888
      ESP Fit Center  175 is at   1.688612 -0.380994  1.973242
      ESP Fit Center  176 is at   1.329491  0.241022  1.973242
      ESP Fit Center  177 is at   0.611249  0.241022  1.973242
      ESP Fit Center  178 is at   0.252128 -0.380994  1.973242
      ESP Fit Center  179 is at   0.611249 -1.003010  1.973242
      ESP Fit Center  180 is at   1.329491 -1.003010  1.973242
      ESP Fit Center  181 is at   0.086404 -1.401146  1.608581
      ESP Fit Center  182 is at   1.531120 -1.608864  1.608581
      ESP Fit Center  183 is at   0.086404 -1.401146 -1.608805
      ESP Fit Center  184 is at   1.531120 -1.608864 -1.608805
      ESP Fit Center  185 is at   1.688612 -0.380994 -1.973467
      ESP Fit Center  186 is at   1.329491  0.241022 -1.973467
      ESP Fit Center  187 is at   0.611249  0.241022 -1.973467
      ESP Fit Center  188 is at   0.252128 -0.380994 -1.973467
      ESP Fit Center  189 is at   0.611249 -1.003010 -1.973467
      ESP Fit Center  190 is at   1.329491 -1.003010 -1.973467
      ESP Fit Center  191 is at   0.970370 -0.380994 -2.100112
      ESP Fit Center  192 is at  -0.306236  0.305831  2.099843
      ESP Fit Center  193 is at   0.412006  0.305831  1.973197
      ESP Fit Center  194 is at   0.052885  0.927847  1.973197
      ESP Fit Center  195 is at  -0.665357  0.927847  1.973197
      ESP Fit Center  196 is at  -1.024478  0.305831  1.973197
      ESP Fit Center  197 is at  -0.665357 -0.316185  1.973197
      ESP Fit Center  198 is at   0.052885 -0.316185  1.973197
      ESP Fit Center  199 is at   0.829333  1.035617  1.608536
      ESP Fit Center  200 is at   0.829333  1.035617 -1.608850
      ESP Fit Center  201 is at   0.412006  0.305831 -1.973512
      ESP Fit Center  202 is at   0.052885  0.927847 -1.973512
      ESP Fit Center  203 is at  -0.665357  0.927847 -1.973512
      ESP Fit Center  204 is at  -1.024478  0.305831 -1.973512
      ESP Fit Center  205 is at  -0.665357 -0.316185 -1.973512
      ESP Fit Center  206 is at   0.052885 -0.316185 -1.973512
      ESP Fit Center  207 is at  -0.306236  0.305831 -2.100157
      ESP Fit Center  208 is at  -0.420151  1.721605  2.099548
      ESP Fit Center  209 is at   0.298091  1.721605  1.972902
      ESP Fit Center  210 is at  -0.061030  2.343621  1.972902
      ESP Fit Center  211 is at  -0.779272  2.343621  1.972902
      ESP Fit Center  212 is at  -1.138393  1.721605  1.972902
      ESP Fit Center  213 is at  -0.779272  1.099589  1.972902
      ESP Fit Center  214 is at  -0.061030  1.099589  1.972902
      ESP Fit Center  215 is at   0.298091  1.721605 -1.973807
      ESP Fit Center  216 is at  -0.061030  2.343621 -1.973807
      ESP Fit Center  217 is at  -0.779272  2.343621 -1.973807
      ESP Fit Center  218 is at  -1.138393  1.721605 -1.973807
      ESP Fit Center  219 is at  -0.779272  1.099589 -1.973807
      ESP Fit Center  220 is at  -0.061030  1.099589 -1.973807
      ESP Fit Center  221 is at  -0.420151  1.721605 -2.100452
      ESP Fit Center  222 is at  -1.690199  2.313203  2.099504
      ESP Fit Center  223 is at  -0.971957  2.313203  1.972858
      ESP Fit Center  224 is at  -1.331078  2.935219  1.972858
      ESP Fit Center  225 is at  -2.049320  2.935219  1.972858
      ESP Fit Center  226 is at  -2.408441  2.313203  1.972858
      ESP Fit Center  227 is at  -2.049320  1.691187  1.972858
      ESP Fit Center  228 is at  -1.331078  1.691187  1.972858
      ESP Fit Center  229 is at  -1.129449  3.541073  1.608197
      ESP Fit Center  230 is at  -2.574165  3.333355  1.608197
      ESP Fit Center  231 is at  -3.161520  3.382181  1.049504
      ESP Fit Center  232 is at  -3.161520  3.382181 -1.050496
      ESP Fit Center  233 is at  -1.129449  3.541073 -1.609189
      ESP Fit Center  234 is at  -2.574165  3.333355 -1.609189
      ESP Fit Center  235 is at  -0.971957  2.313203 -1.973851
      ESP Fit Center  236 is at  -1.331078  2.935219 -1.973851
      ESP Fit Center  237 is at  -2.049320  2.935219 -1.973851
      ESP Fit Center  238 is at  -2.408441  2.313203 -1.973851
      ESP Fit Center  239 is at  -2.049320  1.691187 -1.973851
      ESP Fit Center  240 is at  -1.331078  1.691187 -1.973851
      ESP Fit Center  241 is at  -1.690199  2.313203 -2.100496
      ESP Fit Center  242 is at  -2.835407  1.528301  2.099746
      ESP Fit Center  243 is at  -2.117165  1.528301  1.973100
      ESP Fit Center  244 is at  -2.476286  2.150317  1.973100
      ESP Fit Center  245 is at  -3.194528  2.150317  1.973100
      ESP Fit Center  246 is at  -3.553649  1.528301  1.973100
      ESP Fit Center  247 is at  -2.476286  0.906285  1.973100
      ESP Fit Center  248 is at  -3.027511  2.864415  1.608439
      ESP Fit Center  249 is at  -3.719373  2.548453  1.608439
      ESP Fit Center  250 is at  -3.027511  2.864415 -1.608947
      ESP Fit Center  251 is at  -3.719373  2.548453 -1.608947
      ESP Fit Center  252 is at  -2.117165  1.528301 -1.973609
      ESP Fit Center  253 is at  -2.476286  2.150317 -1.973609
      ESP Fit Center  254 is at  -3.194528  2.150317 -1.973609
      ESP Fit Center  255 is at  -3.553649  1.528301 -1.973609
      ESP Fit Center  256 is at  -2.476286  0.906285 -1.973609
      ESP Fit Center  257 is at  -2.835407  1.528301 -2.100254
      ESP Fit Center  258 is at  -2.366430  0.754268  1.973363
      ESP Fit Center  259 is at  -2.366430  0.754268 -1.973346
      ESP Fit Center  260 is at  -1.481693 -0.473534  2.100051
      ESP Fit Center  261 is at  -0.763451 -0.473534  1.973405
      ESP Fit Center  262 is at  -1.122572  0.148482  1.973405
      ESP Fit Center  263 is at  -1.840814  0.148482  1.973405
      ESP Fit Center  264 is at  -1.122572 -1.095550  1.973405
      ESP Fit Center  265 is at  -0.920943 -1.701404  1.608744
      ESP Fit Center  266 is at  -0.346124 -1.203320  1.608744
      ESP Fit Center  267 is at  -0.920943 -1.701404 -1.608642
      ESP Fit Center  268 is at  -0.346124 -1.203320 -1.608642
      ESP Fit Center  269 is at  -0.763451 -0.473534 -1.973304
      ESP Fit Center  270 is at  -1.122572  0.148482 -1.973304
      ESP Fit Center  271 is at  -1.840814  0.148482 -1.973304
      ESP Fit Center  272 is at  -1.122572 -1.095550 -1.973304
      ESP Fit Center  273 is at  -1.481693 -0.473534 -2.099949
      ESP Fit Center  274 is at   0.654708  2.533957  1.959296
      ESP Fit Center  275 is at   1.404768  2.533957  1.810100
      ESP Fit Center  276 is at   1.029738  3.183528  1.810100
      ESP Fit Center  277 is at   0.279678  3.183528  1.810100
      ESP Fit Center  278 is at   1.029738  1.884386  1.810100
      ESP Fit Center  279 is at   1.854958  3.226922  1.385225
      ESP Fit Center  280 is at   1.347673  3.734207  1.385225
      ESP Fit Center  281 is at   0.654708  3.919886  1.385225
      ESP Fit Center  282 is at  -0.038257  3.734207  1.385225
      ESP Fit Center  283 is at   2.308960  3.270477  0.749355
      ESP Fit Center  284 is at   1.866372  3.879647  0.749355
      ESP Fit Center  285 is at   1.214277  4.256134  0.749355
      ESP Fit Center  286 is at   0.465428  4.334841  0.749355
      ESP Fit Center  287 is at  -0.250694  4.102159  0.749355
      ESP Fit Center  288 is at   2.103166  3.854400 -0.000704
      ESP Fit Center  289 is at   1.528355  4.288477 -0.000704
      ESP Fit Center  290 is at   0.835554  4.485596 -0.000704
      ESP Fit Center  291 is at   0.118329  4.419135 -0.000704
      ESP Fit Center  292 is at   2.308960  3.270477 -0.750764
      ESP Fit Center  293 is at   1.866372  3.879647 -0.750764
      ESP Fit Center  294 is at   1.214277  4.256134 -0.750764
      ESP Fit Center  295 is at   0.465428  4.334841 -0.750764
      ESP Fit Center  296 is at  -0.250694  4.102159 -0.750764
      ESP Fit Center  297 is at   1.854958  3.226922 -1.386633
      ESP Fit Center  298 is at   1.347673  3.734207 -1.386633
      ESP Fit Center  299 is at   0.654708  3.919886 -1.386633
      ESP Fit Center  300 is at  -0.038257  3.734207 -1.386633
      ESP Fit Center  301 is at   1.404768  2.533957 -1.811508
      ESP Fit Center  302 is at   1.029738  3.183528 -1.811508
      ESP Fit Center  303 is at   0.279678  3.183528 -1.811508
      ESP Fit Center  304 is at   1.029738  1.884386 -1.811508
      ESP Fit Center  305 is at   0.654708  2.533957 -1.960704
      ESP Fit Center  306 is at  -4.306483 -0.938356  3.220293
      ESP Fit Center  307 is at  -3.589966 -0.938356  3.139561
      ESP Fit Center  308 is at  -3.948224 -0.317834  3.139561
      ESP Fit Center  309 is at  -4.664742 -0.317834  3.139561
      ESP Fit Center  310 is at  -5.023000 -0.938356  3.139561
      ESP Fit Center  311 is at  -4.664742 -1.558878  3.139561
      ESP Fit Center  312 is at  -3.948224 -1.558878  3.139561
      ESP Fit Center  313 is at  -2.909377 -0.938356  2.901413
      ESP Fit Center  314 is at  -3.096554 -0.239803  2.901413
      ESP Fit Center  315 is at  -3.607930  0.271573  2.901413
      ESP Fit Center  316 is at  -4.306483  0.458750  2.901413
      ESP Fit Center  317 is at  -5.005036  0.271573  2.901413
      ESP Fit Center  318 is at  -5.516412 -0.239803  2.901413
      ESP Fit Center  319 is at  -5.703589 -0.938356  2.901413
      ESP Fit Center  320 is at  -5.516412 -1.636909  2.901413
      ESP Fit Center  321 is at  -5.005036 -2.148285  2.901413
      ESP Fit Center  322 is at  -4.306483 -2.335462  2.901413
      ESP Fit Center  323 is at  -3.607930 -2.148285  2.901413
      ESP Fit Center  324 is at  -3.096554 -1.636909  2.901413
      ESP Fit Center  325 is at  -2.298846 -0.938356  2.517790
      ESP Fit Center  326 is at  -2.434417 -0.213114  2.517790
      ESP Fit Center  327 is at  -2.822821  0.414181  2.517790
      ESP Fit Center  328 is at  -3.411602  0.858807  2.517790
      ESP Fit Center  329 is at  -4.121242  1.060717  2.517790
      ESP Fit Center  330 is at  -4.855899  0.992641  2.517790
      ESP Fit Center  331 is at  -5.516355  0.663773  2.517790
      ESP Fit Center  332 is at  -6.013411  0.118529  2.517790
      ESP Fit Center  333 is at  -6.279936 -0.569454  2.517790
      ESP Fit Center  334 is at  -6.279936 -1.307258  2.517790
      ESP Fit Center  335 is at  -6.013411 -1.995241  2.517790
      ESP Fit Center  336 is at  -5.516355 -2.540485  2.517790
      ESP Fit Center  337 is at  -4.855899 -2.869353  2.517790
      ESP Fit Center  338 is at  -4.121242 -2.937429  2.517790
      ESP Fit Center  339 is at  -3.411602 -2.735519  2.517790
      ESP Fit Center  340 is at  -2.822821 -2.290892  2.517790
      ESP Fit Center  341 is at  -2.434417 -1.663598  2.517790
      ESP Fit Center  342 is at  -4.118350  1.572102  2.007930
      ESP Fit Center  343 is at  -4.866679  1.516023  2.007930
      ESP Fit Center  344 is at  -5.565232  1.241861  2.007930
      ESP Fit Center  345 is at  -6.151939  0.773977  2.007930
      ESP Fit Center  346 is at  -6.574670  0.153945  2.007930
      ESP Fit Center  347 is at  -6.795862 -0.563142  2.007930
      ESP Fit Center  348 is at  -6.795862 -1.313569  2.007930
      ESP Fit Center  349 is at  -6.574670 -2.030657  2.007930
      ESP Fit Center  350 is at  -6.151939 -2.650689  2.007930
      ESP Fit Center  351 is at  -5.565232 -3.118573  2.007930
      ESP Fit Center  352 is at  -4.866679 -3.392734  2.007930
      ESP Fit Center  353 is at  -4.118350 -3.448814  2.007930
      ESP Fit Center  354 is at  -3.386738 -3.281828  2.007930
      ESP Fit Center  355 is at  -2.736849 -2.906615  2.007930
      ESP Fit Center  356 is at  -2.226429 -2.356513  2.007930
      ESP Fit Center  357 is at  -1.900831 -1.680401  2.007930
      ESP Fit Center  358 is at  -4.850099  1.911377  1.397399
      ESP Fit Center  359 is at  -5.541720  1.686656  1.397399
      ESP Fit Center  360 is at  -6.155726  1.296995  1.397399
      ESP Fit Center  361 is at  -6.653538  0.766880  1.397399
      ESP Fit Center  362 is at  -7.003876  0.129618  1.397399
      ESP Fit Center  363 is at  -7.184727 -0.574749  1.397399
      ESP Fit Center  364 is at  -7.184727 -1.301963  1.397399
      ESP Fit Center  365 is at  -7.003876 -2.006329  1.397399
      ESP Fit Center  366 is at  -6.653538 -2.643591  1.397399
      ESP Fit Center  367 is at  -6.155726 -3.173707  1.397399
      ESP Fit Center  368 is at  -5.541720 -3.563368  1.397399
      ESP Fit Center  369 is at  -4.850099 -3.788089  1.397399
      ESP Fit Center  370 is at  -4.124320 -3.833751  1.397399
      ESP Fit Center  371 is at  -3.409988 -3.697485  1.397399
      ESP Fit Center  372 is at  -2.751985 -3.387852  1.397399
      ESP Fit Center  373 is at  -2.191658 -2.924309  1.397399
      ESP Fit Center  374 is at  -5.876117  1.780330  0.716810
      ESP Fit Center  375 is at  -6.460779  1.345065  0.716810
      ESP Fit Center  376 is at  -6.929303  0.786700  0.716810
      ESP Fit Center  377 is at  -7.256430  0.135337  0.716810
      ESP Fit Center  378 is at  -7.424524 -0.573909  0.716810
      ESP Fit Center  379 is at  -7.424524 -1.302803  0.716810
      ESP Fit Center  380 is at  -7.256430 -2.012049  0.716810
      ESP Fit Center  381 is at  -6.929303 -2.663412  0.716810
      ESP Fit Center  382 is at  -6.460779 -3.221777  0.716810
      ESP Fit Center  383 is at  -5.876117 -3.657042  0.716810
      ESP Fit Center  384 is at  -5.206835 -3.945742  0.716810
      ESP Fit Center  385 is at  -4.489015 -4.072313  0.716810
      ESP Fit Center  386 is at  -3.761355 -4.029931  0.716810
      ESP Fit Center  387 is at  -3.063083 -3.820882  0.716810
      ESP Fit Center  388 is at  -2.431842 -3.456435  0.716810
      ESP Fit Center  389 is at  -5.703589  1.962764  0.000293
      ESP Fit Center  390 is at  -6.314120  1.579141  0.000293
      ESP Fit Center  391 is at  -6.823980  1.069281  0.000293
      ESP Fit Center  392 is at  -7.207603  0.458750  0.000293
      ESP Fit Center  393 is at  -7.445751 -0.221838  0.000293
      ESP Fit Center  394 is at  -7.526483 -0.938356  0.000293
      ESP Fit Center  395 is at  -7.445751 -1.654873  0.000293
      ESP Fit Center  396 is at  -7.207603 -2.335462  0.000293
      ESP Fit Center  397 is at  -6.823980 -2.945993  0.000293
      ESP Fit Center  398 is at  -6.314120 -3.455853  0.000293
      ESP Fit Center  399 is at  -5.703589 -3.839476  0.000293
      ESP Fit Center  400 is at  -5.023000 -4.077624  0.000293
      ESP Fit Center  401 is at  -4.306483 -4.158356  0.000293
      ESP Fit Center  402 is at  -3.589966 -4.077624  0.000293
      ESP Fit Center  403 is at  -2.909377 -3.839476  0.000293
      ESP Fit Center  404 is at  -2.298846 -3.455853  0.000293
      ESP Fit Center  405 is at  -5.876117  1.780330 -0.716224
      ESP Fit Center  406 is at  -6.460779  1.345065 -0.716224
      ESP Fit Center  407 is at  -6.929303  0.786700 -0.716224
      ESP Fit Center  408 is at  -7.256430  0.135337 -0.716224
      ESP Fit Center  409 is at  -7.424524 -0.573909 -0.716224
      ESP Fit Center  410 is at  -7.424524 -1.302803 -0.716224
      ESP Fit Center  411 is at  -7.256430 -2.012049 -0.716224
      ESP Fit Center  412 is at  -6.929303 -2.663412 -0.716224
      ESP Fit Center  413 is at  -6.460779 -3.221777 -0.716224
      ESP Fit Center  414 is at  -5.876117 -3.657042 -0.716224
      ESP Fit Center  415 is at  -5.206835 -3.945742 -0.716224
      ESP Fit Center  416 is at  -4.489015 -4.072313 -0.716224
      ESP Fit Center  417 is at  -3.761355 -4.029931 -0.716224
      ESP Fit Center  418 is at  -3.063083 -3.820882 -0.716224
      ESP Fit Center  419 is at  -2.431842 -3.456435 -0.716224
      ESP Fit Center  420 is at  -4.850099  1.911377 -1.396813
      ESP Fit Center  421 is at  -5.541720  1.686656 -1.396813
      ESP Fit Center  422 is at  -6.155726  1.296995 -1.396813
      ESP Fit Center  423 is at  -6.653538  0.766880 -1.396813
      ESP Fit Center  424 is at  -7.003876  0.129618 -1.396813
      ESP Fit Center  425 is at  -7.184727 -0.574749 -1.396813
      ESP Fit Center  426 is at  -7.184727 -1.301963 -1.396813
      ESP Fit Center  427 is at  -7.003876 -2.006329 -1.396813
      ESP Fit Center  428 is at  -6.653538 -2.643591 -1.396813
      ESP Fit Center  429 is at  -6.155726 -3.173707 -1.396813
      ESP Fit Center  430 is at  -5.541720 -3.563368 -1.396813
      ESP Fit Center  431 is at  -4.850099 -3.788089 -1.396813
      ESP Fit Center  432 is at  -4.124320 -3.833751 -1.396813
      ESP Fit Center  433 is at  -3.409988 -3.697485 -1.396813
      ESP Fit Center  434 is at  -2.751985 -3.387852 -1.396813
      ESP Fit Center  435 is at  -2.191658 -2.924309 -1.396813
      ESP Fit Center  436 is at  -4.118350  1.572102 -2.007344
      ESP Fit Center  437 is at  -4.866679  1.516023 -2.007344
      ESP Fit Center  438 is at  -5.565232  1.241861 -2.007344
      ESP Fit Center  439 is at  -6.151939  0.773977 -2.007344
      ESP Fit Center  440 is at  -6.574670  0.153945 -2.007344
      ESP Fit Center  441 is at  -6.795862 -0.563142 -2.007344
      ESP Fit Center  442 is at  -6.795862 -1.313569 -2.007344
      ESP Fit Center  443 is at  -6.574670 -2.030657 -2.007344
      ESP Fit Center  444 is at  -6.151939 -2.650689 -2.007344
      ESP Fit Center  445 is at  -5.565232 -3.118573 -2.007344
      ESP Fit Center  446 is at  -4.866679 -3.392734 -2.007344
      ESP Fit Center  447 is at  -4.118350 -3.448814 -2.007344
      ESP Fit Center  448 is at  -3.386738 -3.281828 -2.007344
      ESP Fit Center  449 is at  -2.736849 -2.906615 -2.007344
      ESP Fit Center  450 is at  -2.226429 -2.356513 -2.007344
      ESP Fit Center  451 is at  -1.900831 -1.680401 -2.007344
      ESP Fit Center  452 is at  -2.298846 -0.938356 -2.517204
      ESP Fit Center  453 is at  -2.434417 -0.213114 -2.517204
      ESP Fit Center  454 is at  -2.822821  0.414181 -2.517204
      ESP Fit Center  455 is at  -3.411602  0.858807 -2.517204
      ESP Fit Center  456 is at  -4.121242  1.060717 -2.517204
      ESP Fit Center  457 is at  -4.855899  0.992641 -2.517204
      ESP Fit Center  458 is at  -5.516355  0.663773 -2.517204
      ESP Fit Center  459 is at  -6.013411  0.118529 -2.517204
      ESP Fit Center  460 is at  -6.279936 -0.569454 -2.517204
      ESP Fit Center  461 is at  -6.279936 -1.307258 -2.517204
      ESP Fit Center  462 is at  -6.013411 -1.995241 -2.517204
      ESP Fit Center  463 is at  -5.516355 -2.540485 -2.517204
      ESP Fit Center  464 is at  -4.855899 -2.869353 -2.517204
      ESP Fit Center  465 is at  -4.121242 -2.937429 -2.517204
      ESP Fit Center  466 is at  -3.411602 -2.735519 -2.517204
      ESP Fit Center  467 is at  -2.822821 -2.290892 -2.517204
      ESP Fit Center  468 is at  -2.434417 -1.663598 -2.517204
      ESP Fit Center  469 is at  -2.909377 -0.938356 -2.900827
      ESP Fit Center  470 is at  -3.096554 -0.239803 -2.900827
      ESP Fit Center  471 is at  -3.607930  0.271573 -2.900827
      ESP Fit Center  472 is at  -4.306483  0.458750 -2.900827
      ESP Fit Center  473 is at  -5.005036  0.271573 -2.900827
      ESP Fit Center  474 is at  -5.516412 -0.239803 -2.900827
      ESP Fit Center  475 is at  -5.703589 -0.938356 -2.900827
      ESP Fit Center  476 is at  -5.516412 -1.636909 -2.900827
      ESP Fit Center  477 is at  -5.005036 -2.148285 -2.900827
      ESP Fit Center  478 is at  -4.306483 -2.335462 -2.900827
      ESP Fit Center  479 is at  -3.607930 -2.148285 -2.900827
      ESP Fit Center  480 is at  -3.096554 -1.636909 -2.900827
      ESP Fit Center  481 is at  -3.589966 -0.938356 -3.138975
      ESP Fit Center  482 is at  -3.948224 -0.317834 -3.138975
      ESP Fit Center  483 is at  -4.664742 -0.317834 -3.138975
      ESP Fit Center  484 is at  -5.023000 -0.938356 -3.138975
      ESP Fit Center  485 is at  -4.664742 -1.558878 -3.138975
      ESP Fit Center  486 is at  -3.948224 -1.558878 -3.138975
      ESP Fit Center  487 is at  -4.306483 -0.938356 -3.219707
      ESP Fit Center  488 is at   4.811033  1.348870  2.101391
      ESP Fit Center  489 is at   5.529275  1.348870  1.974745
      ESP Fit Center  490 is at   5.170154  1.970886  1.974745
      ESP Fit Center  491 is at   4.451912  1.970886  1.974745
      ESP Fit Center  492 is at   4.092791  1.348870  1.974745
      ESP Fit Center  493 is at   5.170154  0.726854  1.974745
      ESP Fit Center  494 is at   5.946603  2.078656  1.610084
      ESP Fit Center  495 is at   5.371783  2.576740  1.610084
      ESP Fit Center  496 is at   4.618929  2.684984  1.610084
      ESP Fit Center  497 is at   3.515858  1.729168  1.610084
      ESP Fit Center  498 is at   3.515858  0.968572  1.610084
      ESP Fit Center  499 is at   5.946603  0.619084  1.610084
      ESP Fit Center  500 is at   5.373028  3.078512  1.051391
      ESP Fit Center  501 is at   5.373028  3.078512 -1.048609
      ESP Fit Center  502 is at   5.946603  2.078656 -1.607302
      ESP Fit Center  503 is at   5.371783  2.576740 -1.607302
      ESP Fit Center  504 is at   4.618929  2.684984 -1.607302
      ESP Fit Center  505 is at   3.515858  1.729168 -1.607302
      ESP Fit Center  506 is at   3.515858  0.968572 -1.607302
      ESP Fit Center  507 is at   5.946603  0.619084 -1.607302
      ESP Fit Center  508 is at   5.529275  1.348870 -1.971964
      ESP Fit Center  509 is at   5.170154  1.970886 -1.971964
      ESP Fit Center  510 is at   4.451912  1.970886 -1.971964
      ESP Fit Center  511 is at   4.092791  1.348870 -1.971964
      ESP Fit Center  512 is at   5.170154  0.726854 -1.971964
      ESP Fit Center  513 is at   4.811033  1.348870 -2.098609
      ESP Fit Center  514 is at  -4.179832  2.624584  1.513360
      ESP Fit Center  515 is at  -4.544295  1.993317  1.513360
      ESP Fit Center  516 is at  -4.221257  3.242508  1.047195
      ESP Fit Center  517 is at  -4.877995  2.765359  1.047195
      ESP Fit Center  518 is at  -3.617945  3.619254  0.373567
      ESP Fit Center  519 is at  -4.396170  3.524760  0.373567
      ESP Fit Center  520 is at  -5.041340  3.079432  0.373567
      ESP Fit Center  521 is at  -5.405655  2.385287  0.373567
      ESP Fit Center  522 is at  -3.617945  3.619254 -0.374103
      ESP Fit Center  523 is at  -4.396170  3.524760 -0.374103
      ESP Fit Center  524 is at  -5.041340  3.079432 -0.374103
      ESP Fit Center  525 is at  -5.405655  2.385287 -0.374103
      ESP Fit Center  526 is at  -4.221257  3.242508 -1.047731
      ESP Fit Center  527 is at  -4.877995  2.765359 -1.047731
      ESP Fit Center  528 is at  -5.128847  1.993317 -1.047731
      ESP Fit Center  529 is at  -4.179832  2.624584 -1.513896
      ESP Fit Center  530 is at  -4.544295  1.993317 -1.513896
      ESP Fit Center  531 is at  -1.390176  4.027552  1.512898
      ESP Fit Center  532 is at  -2.119100  4.027552  1.512898
      ESP Fit Center  533 is at  -0.692013  4.168327  1.046733
      ESP Fit Center  534 is at  -1.348751  4.645476  1.046733
      ESP Fit Center  535 is at  -2.160525  4.645476  1.046733
      ESP Fit Center  536 is at  -2.817263  4.168327  1.046733
      ESP Fit Center  537 is at  -0.824217  4.744233  0.373105
      ESP Fit Center  538 is at  -1.557213  5.022222  0.373105
      ESP Fit Center  539 is at  -2.335438  4.927728  0.373105
      ESP Fit Center  540 is at  -2.980608  4.482400  0.373105
      ESP Fit Center  541 is at  -3.344923  3.788255  0.373105
      ESP Fit Center  542 is at  -0.824217  4.744233 -0.374565
      ESP Fit Center  543 is at  -1.557213  5.022222 -0.374565
      ESP Fit Center  544 is at  -2.335438  4.927728 -0.374565
      ESP Fit Center  545 is at  -2.980608  4.482400 -0.374565
      ESP Fit Center  546 is at  -3.344923  3.788255 -0.374565
      ESP Fit Center  547 is at  -0.692013  4.168327 -1.048193
      ESP Fit Center  548 is at  -1.348751  4.645476 -1.048193
      ESP Fit Center  549 is at  -2.160525  4.645476 -1.048193
      ESP Fit Center  550 is at  -2.817263  4.168327 -1.048193
      ESP Fit Center  551 is at  -1.390176  4.027552 -1.514358
      ESP Fit Center  552 is at  -2.119100  4.027552 -1.514358
      ESP Fit Center  553 is at  -1.037878 -2.187371  1.513872
      ESP Fit Center  554 is at  -1.808227 -2.805295  1.047707
      ESP Fit Center  555 is at  -0.996453 -2.805295  1.047707
      ESP Fit Center  556 is at  -0.339715 -2.328146  1.047707
      ESP Fit Center  557 is at  -1.204916 -3.182041  0.374079
      ESP Fit Center  558 is at  -0.471919 -2.904052  0.374079
      ESP Fit Center  559 is at  -1.204916 -3.182041 -0.373591
      ESP Fit Center  560 is at  -0.471919 -2.904052 -0.373591
      ESP Fit Center  561 is at  -1.808227 -2.805295 -1.047219
      ESP Fit Center  562 is at  -0.996453 -2.805295 -1.047219
      ESP Fit Center  563 is at  -0.339715 -2.328146 -1.047219
      ESP Fit Center  564 is at  -1.037878 -2.187371 -1.513384
      ESP Fit Center  565 is at   0.600863 -2.102154  1.513526
      ESP Fit Center  566 is at   1.329787 -2.102154  1.513526
      ESP Fit Center  567 is at  -0.097300 -2.242929  1.047361
      ESP Fit Center  568 is at   0.559438 -2.720078  1.047361
      ESP Fit Center  569 is at   1.371212 -2.720078  1.047361
      ESP Fit Center  570 is at   0.384525 -3.002330  0.373733
      ESP Fit Center  571 is at   1.162749 -3.096824  0.373733
      ESP Fit Center  572 is at   0.384525 -3.002330 -0.373937
      ESP Fit Center  573 is at   1.162749 -3.096824 -0.373937
      ESP Fit Center  574 is at  -0.097300 -2.242929 -1.047565
      ESP Fit Center  575 is at   0.559438 -2.720078 -1.047565
      ESP Fit Center  576 is at   1.371212 -2.720078 -1.047565
      ESP Fit Center  577 is at   0.600863 -2.102154 -1.513730
      ESP Fit Center  578 is at   1.329787 -2.102154 -1.513730
      ESP Fit Center  579 is at   3.729359  2.685672  1.515767
      ESP Fit Center  580 is at   3.364896  2.054405  1.515767
      ESP Fit Center  581 is at   4.499708  3.303596  1.049602
      ESP Fit Center  582 is at   3.687934  3.303596  1.049602
      ESP Fit Center  583 is at   3.031196  2.826447  1.049602
      ESP Fit Center  584 is at   2.780344  2.054405  1.049602
      ESP Fit Center  585 is at   4.291246  3.680342  0.375974
      ESP Fit Center  586 is at   3.513021  3.585848  0.375974
      ESP Fit Center  587 is at   2.867851  3.140519  0.375974
      ESP Fit Center  588 is at   4.291246  3.680342 -0.371696
      ESP Fit Center  589 is at   3.513021  3.585848 -0.371696
      ESP Fit Center  590 is at   2.867851  3.140519 -0.371696
      ESP Fit Center  591 is at   4.499708  3.303596 -1.045324
      ESP Fit Center  592 is at   3.687934  3.303596 -1.045324
      ESP Fit Center  593 is at   3.031196  2.826447 -1.045324
      ESP Fit Center  594 is at   2.780344  2.054405 -1.045324
      ESP Fit Center  595 is at   3.729359  2.685672 -1.511489
      ESP Fit Center  596 is at   3.364896  2.054405 -1.511489
      ESP Fit Center  597 is at   6.509978  1.619549  1.515567
      ESP Fit Center  598 is at   6.145515  2.250816  1.515567
      ESP Fit Center  599 is at   7.094530  1.619549  1.049402
      ESP Fit Center  600 is at   6.843678  2.391591  1.049402
      ESP Fit Center  601 is at   6.186940  2.868740  1.049402
      ESP Fit Center  602 is at   6.843678  0.847506  1.049402
      ESP Fit Center  603 is at   7.418932  1.619549  0.375774
      ESP Fit Center  604 is at   7.231323  2.380709  0.375774
      ESP Fit Center  605 is at   6.711474  2.967497  0.375774
      ESP Fit Center  606 is at   5.978478  3.245486  0.375774
      ESP Fit Center  607 is at   7.231323  0.858389  0.375774
      ESP Fit Center  608 is at   7.418932  1.619549 -0.371896
[...]
 3271 Fit       0.001548
 3272 Fit       0.005082
 3273 Fit       0.003108
 3274 Fit       0.002516
 3275 Fit       0.002449
 3276 Fit       0.003665
 3277 Fit       0.005468
 3278 Fit       0.003727
 3279 Fit       0.002146
 3280 Fit       0.002360
 3281 Fit       0.002578
 3282 Fit       0.003225
 3283 Fit       0.002498
 3284 Fit       0.002134
 3285 Fit       0.002702
 3286 Fit       0.004352
 3287 Fit       0.005274
 3288 Fit       0.005128
 3289 Fit       0.002908
 3290 Fit       0.005741
 3291 Fit       0.007495
 3292 Fit       0.008271
 3293 Fit       0.012045
 3294 Fit       0.012045
 3295 Fit       0.002901
 3296 Fit       0.005738
 3297 Fit       0.007494
 3298 Fit       0.008271
 3299 Fit       0.002695
 3300 Fit       0.004348
 3301 Fit       0.005272
 3302 Fit       0.005126
 3303 Fit       0.002353
 3304 Fit       0.002572
 3305 Fit       0.003221
 3306 Fit       0.002495
 3307 Fit       0.002128
 3308 Fit       0.002141
 3309 Fit       0.008496
 3310 Fit       0.012413
 3311 Fit       0.015762
 3312 Fit       0.015765
 3313 Fit       0.012415
 3314 Fit       0.008498
 3315 Fit       0.010162
 3316 Fit       0.010152
 3317 Fit       0.003233
 3318 Fit       0.005386
 3319 Fit       0.002215
 3320 Fit       0.000987
 3321 Fit       0.006300
 3322 Fit       0.009543
 3323 Fit       0.006175
 3324 Fit       0.001955
 3325 Fit      -0.000293
 3326 Fit       0.000002
 3327 Fit       0.016763
 3328 Fit       0.013023
 3329 Fit       0.006873
 3330 Fit       0.001690
 3331 Fit      -0.000917
 3332 Fit      -0.000704
 3333 Fit       0.014663
 3334 Fit       0.006385
 3335 Fit       0.000962
 3336 Fit      -0.001350
 3337 Fit      -0.000576
 3338 Fit       0.012377
 3339 Fit       0.004241
 3340 Fit      -0.000262
 3341 Fit      -0.001475
 3342 Fit       0.000659
 3343 Fit       0.016040
 3344 Fit       0.006043
 3345 Fit       0.000484
 3346 Fit      -0.001482
 3347 Fit       0.000151
 3348 Fit       0.016026
 3349 Fit       0.006036
 3350 Fit       0.000481
 3351 Fit      -0.001484
 3352 Fit       0.000149
 3353 Fit       0.012345
 3354 Fit       0.004224
 3355 Fit      -0.000272
 3356 Fit      -0.001482
 3357 Fit       0.000655
 3358 Fit       0.014605
 3359 Fit       0.006353
 3360 Fit       0.000943
 3361 Fit      -0.001362
 3362 Fit      -0.000584
 3363 Fit       0.016691
 3364 Fit       0.012963
 3365 Fit       0.006834
 3366 Fit       0.001666
 3367 Fit      -0.000933
 3368 Fit      -0.000715
 3369 Fit       0.009502
 3370 Fit       0.006139
 3371 Fit       0.001930
 3372 Fit      -0.000310
 3373 Fit      -0.000010
 3374 Fit       0.005360
 3375 Fit       0.002193
 3376 Fit       0.000971
 3377 Fit       0.006279
 3378 Fit       0.003215
 3379 Fit      -0.000670
 3380 Fit      -0.000238
 3381 Fit      -0.000163
 3382 Fit      -0.000473
 3383 Fit      -0.000921
 3384 Fit      -0.001038
 3385 Fit      -0.000685
 3386 Fit       0.000414
 3387 Fit       0.000483
 3388 Fit       0.000455
 3389 Fit       0.000316
 3390 Fit      -0.000080
 3391 Fit      -0.000602
 3392 Fit      -0.001015
 3393 Fit      -0.001235
 3394 Fit      -0.001254
 3395 Fit      -0.001026
 3396 Fit      -0.000529
 3397 Fit       0.000055
 3398 Fit       0.001353
 3399 Fit       0.001259
 3400 Fit       0.001120
 3401 Fit       0.001138
 3402 Fit       0.001196
 3403 Fit       0.001013
 3404 Fit       0.000523
 3405 Fit      -0.000088
 3406 Fit      -0.000616
 3407 Fit      -0.000978
 3408 Fit      -0.001193
 3409 Fit      -0.001308
 3410 Fit      -0.001324
 3411 Fit      -0.001188
 3412 Fit      -0.000823
 3413 Fit      -0.000214
 3414 Fit       0.000520
 3415 Fit       0.001119
 3416 Fit       0.002710
 3417 Fit       0.002337
 3418 Fit       0.001874
 3419 Fit       0.001650
 3420 Fit       0.001814
 3421 Fit       0.002168
 3422 Fit       0.002300
 3423 Fit       0.001993
 3424 Fit       0.001346
 3425 Fit       0.000599
 3426 Fit      -0.000055
 3427 Fit      -0.000532
 3428 Fit      -0.000835
 3429 Fit      -0.001018
 3430 Fit      -0.001138
 3431 Fit      -0.001225
 3432 Fit      -0.001265
 3433 Fit      -0.001206
 3434 Fit      -0.000971
 3435 Fit      -0.000492
 3436 Fit       0.000246
 3437 Fit       0.001166
 3438 Fit       0.002063
 3439 Fit       0.002649
 3440 Fit       0.004752
 3441 Fit       0.003898
 3442 Fit       0.002896
 3443 Fit       0.002146
 3444 Fit       0.001947
 3445 Fit       0.002489
 3446 Fit       0.003364
 3447 Fit       0.003884
 3448 Fit       0.003729
 3449 Fit       0.003021
 3450 Fit       0.002063
 3451 Fit       0.001125
 3452 Fit       0.000363
 3453 Fit      -0.000173
 3454 Fit      -0.000508
 3455 Fit      -0.000699
 3456 Fit      -0.000814
 3457 Fit      -0.000906
 3458 Fit      -0.001000
 3459 Fit      -0.001086
 3460 Fit      -0.001122
 3461 Fit      -0.001039
 3462 Fit      -0.000757
 3463 Fit      -0.000205
 3464 Fit       0.000657
 3465 Fit       0.001803
 3466 Fit       0.003100
 3467 Fit       0.004271
 3468 Fit       0.004923
 3469 Fit       0.008068
 3470 Fit       0.003449
 3471 Fit       0.005251
 3472 Fit       0.006147
 3473 Fit       0.005933
 3474 Fit       0.004944
 3475 Fit       0.003635
 3476 Fit       0.002356
 3477 Fit       0.001298
 3478 Fit       0.000524
 3479 Fit       0.000019
 3480 Fit      -0.000272
 3481 Fit      -0.000422
 3482 Fit      -0.000501
 3483 Fit      -0.000569
 3484 Fit      -0.000657
 3485 Fit      -0.000772
 3486 Fit      -0.000886
 3487 Fit      -0.000947
 3488 Fit      -0.000882
 3489 Fit      -0.000608
 3490 Fit      -0.000041
 3491 Fit       0.000891
 3492 Fit       0.002224
 3493 Fit       0.003931
 3494 Fit       0.005851
 3495 Fit       0.007608
 3496 Fit       0.008566
 3497 Fit       0.009455
 3498 Fit       0.008914
 3499 Fit       0.007422
 3500 Fit       0.005607
 3501 Fit       0.003887
 3502 Fit       0.002463
 3503 Fit       0.001394
 3504 Fit       0.000662
 3505 Fit       0.000211
 3506 Fit      -0.000032
 3507 Fit      -0.000141
 3508 Fit      -0.000186
 3509 Fit      -0.000224
 3510 Fit      -0.000292
 3511 Fit      -0.000403
 3512 Fit      -0.000547
 3513 Fit      -0.000687
 3514 Fit      -0.000768
 3515 Fit      -0.000718
 3516 Fit      -0.000456
 3517 Fit       0.000108
 3518 Fit       0.001064
 3519 Fit       0.002499
 3520 Fit       0.004486
 3521 Fit       0.007048
 3522 Fit       0.010064
 3523 Fit       0.013071
 3524 Fit       0.012159
 3525 Fit       0.009669
 3526 Fit       0.007149
 3527 Fit       0.004968
 3528 Fit       0.003245
 3529 Fit       0.001976
 3530 Fit       0.001107
 3531 Fit       0.000563
 3532 Fit       0.000265
 3533 Fit       0.000133
 3534 Fit       0.000094
 3535 Fit       0.000085
 3536 Fit       0.000059
 3537 Fit      -0.000013
 3538 Fit      -0.000139
 3539 Fit      -0.000304
 3540 Fit      -0.000474
 3541 Fit      -0.000595
 3542 Fit      -0.000599
 3543 Fit      -0.000408
 3544 Fit       0.000070
 3545 Fit       0.000936
 3546 Fit       0.002307
 3547 Fit       0.004331
 3548 Fit       0.007189
 3549 Fit       0.011102
 3550 Fit       0.016247
 3551 Fit       0.013020
 3552 Fit       0.009522
 3553 Fit       0.006625
 3554 Fit       0.004396
 3555 Fit       0.002772
 3556 Fit       0.001653
 3557 Fit       0.000940
 3558 Fit       0.000534
 3559 Fit       0.000345
 3560 Fit       0.000289
 3561 Fit       0.000293
 3562 Fit       0.000298
 3563 Fit       0.000262
 3564 Fit       0.000166
 3565 Fit       0.000010
 3566 Fit      -0.000183
 3567 Fit      -0.000370
 3568 Fit      -0.000490
 3569 Fit      -0.000467
 3570 Fit      -0.000214
 3571 Fit       0.000374
 3572 Fit       0.001421
 3573 Fit       0.003089
 3574 Fit       0.005615
 3575 Fit       0.009378
 3576 Fit       0.015047
 3577 Fit       0.011692
 3578 Fit       0.008176
 3579 Fit       0.005503
 3580 Fit       0.003553
 3581 Fit       0.002194
 3582 Fit       0.001302
 3583 Fit       0.000770
 3584 Fit       0.000497
 3585 Fit       0.000397
 3586 Fit       0.000391
 3587 Fit       0.000411
 3588 Fit       0.000409
 3589 Fit       0.000353
 3590 Fit       0.000229
 3591 Fit       0.000050
 3592 Fit      -0.000157
 3593 Fit      -0.000342
 3594 Fit      -0.000440
 3595 Fit      -0.000373
 3596 Fit      -0.000048
 3597 Fit       0.000645
 3598 Fit       0.001844
 3599 Fit       0.003746
 3600 Fit       0.006659
 3601 Fit       0.011141
 3602 Fit       0.011693
 3603 Fit       0.008177
 3604 Fit       0.005503
 3605 Fit       0.003554
 3606 Fit       0.002194
 3607 Fit       0.001302
 3608 Fit       0.000769
 3609 Fit       0.000497
 3610 Fit       0.000397
 3611 Fit       0.000391
 3612 Fit       0.000411
 3613 Fit       0.000409
 3614 Fit       0.000352
 3615 Fit       0.000229
 3616 Fit       0.000049
 3617 Fit      -0.000157
 3618 Fit      -0.000342
 3619 Fit      -0.000440
 3620 Fit      -0.000373
 3621 Fit      -0.000049
 3622 Fit       0.000644
 3623 Fit       0.001844
 3624 Fit       0.003745
 3625 Fit       0.006658
 3626 Fit       0.011139
 3627 Fit       0.013025
 3628 Fit       0.009525
 3629 Fit       0.006627
 3630 Fit       0.004397
 3631 Fit       0.002772
 3632 Fit       0.001653
 3633 Fit       0.000940
 3634 Fit       0.000534
 3635 Fit       0.000345
 3636 Fit       0.000289
 3637 Fit       0.000293
 3638 Fit       0.000297
 3639 Fit       0.000262
 3640 Fit       0.000165
 3641 Fit       0.000009
 3642 Fit      -0.000184
 3643 Fit      -0.000371
 3644 Fit      -0.000491
 3645 Fit      -0.000468
 3646 Fit      -0.000215
 3647 Fit       0.000373
 3648 Fit       0.001419
 3649 Fit       0.003087
 3650 Fit       0.005613
 3651 Fit       0.009375
 3652 Fit       0.015043
 3653 Fit       0.012167
 3654 Fit       0.009674
 3655 Fit       0.007153
 3656 Fit       0.004970
 3657 Fit       0.003246
 3658 Fit       0.001977
 3659 Fit       0.001107
 3660 Fit       0.000563
 3661 Fit       0.000265
 3662 Fit       0.000133
 3663 Fit       0.000093
 3664 Fit       0.000084
 3665 Fit       0.000058
 3666 Fit      -0.000014
 3667 Fit      -0.000140
 3668 Fit      -0.000305
 3669 Fit      -0.000475
 3670 Fit      -0.000596
 3671 Fit      -0.000601
 3672 Fit      -0.000409
 3673 Fit       0.000068
 3674 Fit       0.000934
 3675 Fit       0.002305
 3676 Fit       0.004328
 3677 Fit       0.007185
 3678 Fit       0.011097
 3679 Fit       0.016242
 3680 Fit       0.009462
 3681 Fit       0.008920
 3682 Fit       0.007427
 3683 Fit       0.005610
 3684 Fit       0.003889
 3685 Fit       0.002464
 3686 Fit       0.001394
 3687 Fit       0.000662
 3688 Fit       0.000210
 3689 Fit      -0.000032
 3690 Fit      -0.000142
 3691 Fit      -0.000187
 3692 Fit      -0.000226
 3693 Fit      -0.000294
 3694 Fit      -0.000405
 3695 Fit      -0.000548
 3696 Fit      -0.000688
 3697 Fit      -0.000769
 3698 Fit      -0.000720
 3699 Fit      -0.000458
 3700 Fit       0.000106
 3701 Fit       0.001061
 3702 Fit       0.002495
 3703 Fit       0.004482
 3704 Fit       0.007042
 3705 Fit       0.010057
 3706 Fit       0.013065
 3707 Fit       0.008061
 3708 Fit       0.003447
 3709 Fit       0.005253
 3710 Fit       0.006151
 3711 Fit       0.005937
 3712 Fit       0.004947
 3713 Fit       0.003637
 3714 Fit       0.002358
 3715 Fit       0.001299
 3716 Fit       0.000524
 3717 Fit       0.000018
 3718 Fit      -0.000273
 3719 Fit      -0.000423
 3720 Fit      -0.000503
 3721 Fit      -0.000571
 3722 Fit      -0.000659
 3723 Fit      -0.000774
 3724 Fit      -0.000888
 3725 Fit      -0.000949
 3726 Fit      -0.000885
 3727 Fit      -0.000611
 3728 Fit      -0.000044
 3729 Fit       0.000887
 3730 Fit       0.002220
 3731 Fit       0.003925
 3732 Fit       0.005844
 3733 Fit       0.007601
 3734 Fit       0.008559
 3735 Fit       0.004745
 3736 Fit       0.003891
 3737 Fit       0.002889
 3738 Fit       0.002140
 3739 Fit       0.001941
 3740 Fit       0.002486
 3741 Fit       0.003364
 3742 Fit       0.003885
 3743 Fit       0.003731
 3744 Fit       0.003023
 3745 Fit       0.002064
 3746 Fit       0.001126
 3747 Fit       0.000363
 3748 Fit      -0.000174
 3749 Fit      -0.000509
 3750 Fit      -0.000701
 3751 Fit      -0.000816
 3752 Fit      -0.000908
 3753 Fit      -0.001002
 3754 Fit      -0.001088
 3755 Fit      -0.001125
 3756 Fit      -0.001042
 3757 Fit      -0.000760
 3758 Fit      -0.000208
 3759 Fit       0.000653
 3760 Fit       0.001799
 3761 Fit       0.003095
 3762 Fit       0.004265
 3763 Fit       0.004916
 3764 Fit       0.002704
 3765 Fit       0.002331
 3766 Fit       0.001869
 3767 Fit       0.001646
 3768 Fit       0.001811
 3769 Fit       0.002167
 3770 Fit       0.002300
 3771 Fit       0.001993
 3772 Fit       0.001347
 3773 Fit       0.000599
 3774 Fit      -0.000056
 3775 Fit      -0.000533
 3776 Fit      -0.000836
 3777 Fit      -0.001020
 3778 Fit      -0.001140
 3779 Fit      -0.001227
 3780 Fit      -0.001268
 3781 Fit      -0.001209
 3782 Fit      -0.000974
 3783 Fit      -0.000496
 3784 Fit       0.000242
 3785 Fit       0.001161
 3786 Fit       0.002058
 3787 Fit       0.002643
 3788 Fit       0.001347
 3789 Fit       0.001254
 3790 Fit       0.001116
 3791 Fit       0.001135
 3792 Fit       0.001195
 3793 Fit       0.001012
 3794 Fit       0.000523
 3795 Fit      -0.000089
 3796 Fit      -0.000617
 3797 Fit      -0.000979
 3798 Fit      -0.001195
 3799 Fit      -0.001310
 3800 Fit      -0.001327
 3801 Fit      -0.001191
 3802 Fit      -0.000826
 3803 Fit      -0.000218
 3804 Fit       0.000515
 3805 Fit       0.001114
 3806 Fit       0.000409
 3807 Fit       0.000479
 3808 Fit       0.000452
 3809 Fit       0.000314
 3810 Fit      -0.000081
 3811 Fit      -0.000603
 3812 Fit      -0.001017
 3813 Fit      -0.001237
 3814 Fit      -0.001257
 3815 Fit      -0.001029
 3816 Fit      -0.000533
 3817 Fit       0.000051
 3818 Fit      -0.000241
 3819 Fit      -0.000166
 3820 Fit      -0.000475
 3821 Fit      -0.000923
 3822 Fit      -0.001040
 3823 Fit      -0.000688
 3824 Fit      -0.000673
 3825 Fit       0.005236
 3826 Fit       0.004249
 3827 Fit       0.007452
 3828 Fit       0.008530
 3829 Fit       0.007337
 3830 Fit       0.004218
 3831 Fit       0.001794
 3832 Fit       0.004618
 3833 Fit       0.008612
 3834 Fit       0.010794
 3835 Fit       0.011926
 3836 Fit       0.012328
 3837 Fit       0.011706
 3838 Fit       0.010086
 3839 Fit      -0.000460
 3840 Fit       0.006370
 3841 Fit       0.011373
 3842 Fit       0.013933
 3843 Fit       0.015092
 3844 Fit       0.015899
 3845 Fit       0.016596
 3846 Fit       0.016710
 3847 Fit       0.015844
 3848 Fit      -0.001029
 3849 Fit       0.019199
 3850 Fit       0.019527
 3851 Fit       0.020150
 3852 Fit       0.021064
 3853 Fit       0.023391
 3854 Fit       0.023282
 3855 Fit       0.023891
 3856 Fit       0.025850
 3857 Fit       0.026014
 3858 Fit       0.027118
 3859 Fit       0.026869
 3860 Fit       0.026769
 3861 Fit       0.027710
 3862 Fit       0.025830
 3863 Fit       0.025994
 3864 Fit       0.027096
 3865 Fit       0.023354
 3866 Fit       0.023246
 3867 Fit       0.023854
 3868 Fit       0.019151
 3869 Fit       0.019480
 3870 Fit       0.020102
 3871 Fit       0.021015
 3872 Fit       0.006320
 3873 Fit       0.011322
 3874 Fit       0.013881
 3875 Fit       0.015041
 3876 Fit       0.015847
 3877 Fit       0.016545
 3878 Fit       0.016664
 3879 Fit       0.015809
 3880 Fit      -0.001081
 3881 Fit       0.004571
 3882 Fit       0.008563
 3883 Fit       0.010744
 3884 Fit       0.011876
 3885 Fit       0.012282
 3886 Fit       0.011668
 3887 Fit       0.010057
 3888 Fit      -0.000506
 3889 Fit       0.004206
 3890 Fit       0.007407
 3891 Fit       0.008489
 3892 Fit       0.007304
 3893 Fit       0.001758
 3894 Fit       0.005199
 3895 Fit       0.013827
 3896 Fit       0.015942
 3897 Fit       0.014603
 3898 Fit       0.017593
 3899 Fit       0.015847
 3900 Fit       0.017593
 3901 Fit       0.015847
 3902 Fit       0.015943
 3903 Fit       0.014603
 3904 Fit       0.013828
 3905 Fit       0.005998
 3906 Fit       0.008758
 3907 Fit       0.001862
 3908 Fit       0.006763
 3909 Fit       0.009692
 3910 Fit       0.011521
 3911 Fit       0.012865
 3912 Fit       0.003510
 3913 Fit       0.008013
 3914 Fit       0.010715
 3915 Fit       0.012512
 3916 Fit       0.013968
 3917 Fit       0.015675
 3918 Fit       0.002046
 3919 Fit       0.007532
 3920 Fit       0.010660
 3921 Fit       0.012677
 3922 Fit       0.014243
 3923 Fit       0.015984
 3924 Fit       0.002045
 3925 Fit       0.007531
 3926 Fit       0.010660
 3927 Fit       0.012676
 3928 Fit       0.014243
 3929 Fit       0.015984
 3930 Fit       0.003506
 3931 Fit       0.008011
 3932 Fit       0.010713
 3933 Fit       0.012511
 3934 Fit       0.013967
 3935 Fit       0.015673
 3936 Fit       0.001856
 3937 Fit       0.006759
 3938 Fit       0.009689
 3939 Fit       0.011519
 3940 Fit       0.012863
 3941 Fit       0.005994
 3942 Fit       0.008755
 3943 Fit       0.009349
 3944 Fit       0.013119
 3945 Fit       0.005206
 3946 Fit       0.012232
 3947 Fit       0.003519
 3948 Fit       0.010002
 3949 Fit       0.009998
 3950 Fit       0.012221
 3951 Fit       0.003504
 3952 Fit       0.013103
 3953 Fit       0.005184
 3954 Fit       0.009326
 3955 Fit       0.019733
 3956 Fit       0.023407
 3957 Fit       0.022080
 3958 Fit       0.025376
 3959 Fit       0.023431
 3960 Fit       0.026795
 3961 Fit       0.024665
 3962 Fit       0.026790
 3963 Fit       0.024660
 3964 Fit       0.025360
 3965 Fit       0.023417
 3966 Fit       0.023380
 3967 Fit       0.022059
 3968 Fit       0.019712
 3969 Fit       0.010794
 3970 Fit       0.015578
 3971 Fit       0.012171
 3972 Fit       0.017129
 3973 Fit       0.020123
 3974 Fit       0.004312
 3975 Fit       0.013111
 3976 Fit       0.018059
 3977 Fit       0.021261
 3978 Fit       0.023409
 3979 Fit       0.005367
 3980 Fit       0.013585
 3981 Fit       0.018734
 3982 Fit       0.022069
 3983 Fit       0.024342
 3984 Fit       0.026228
 3985 Fit       0.005376
 3986 Fit       0.013579
 3987 Fit       0.018729
 3988 Fit       0.022064
 3989 Fit       0.024336
 3990 Fit       0.026221
 3991 Fit       0.005368
 3992 Fit       0.013094
 3993 Fit       0.018043
 3994 Fit       0.021245
 3995 Fit       0.023392
 3996 Fit       0.005343
 3997 Fit       0.012143
 3998 Fit       0.017103
 3999 Fit       0.020096
 4000 Fit       0.004273
 4001 Fit       0.010756
 4002 Fit       0.015542
 -----------------------------------------------------------------
 Leave Link  602 at Thu Jan 16 22:40:31 2014, MaxMem=   235929600 cpu:         1.6

 Test job not archived.
 1\1\GINC-G33\SP\RHF\Gen\C8H7Br1N6O1\KOLAR\16-Jan-2014\0\\# hf/gen pop=
 mk iop(6/33=2,6/41=5,6/42=2)\\na resp\\0,1\N,0,3.333434,-1.847115,-0.0
 00821\N,0,3.244766,-0.469307,-0.000075\C,0,4.5077,0.034005,0.000529\N,
 0,5.361201,-0.980738,0.000097\N,0,4.591493,-2.106599,-0.0008\N,0,2.093
 527,0.26647,-0.000045\C,0,0.97037,-0.380994,-0.000112\C,0,-0.306236,0.
 305831,-0.000157\C,0,-0.420151,1.721605,-0.000452\C,0,-1.690199,2.3132
 03,-0.000496\C,0,-2.835407,1.528301,-0.000254\C,0,-2.725551,0.132252,0
 .000009\C,0,-1.481693,-0.473534,0.000051\O,0,0.654708,2.533957,-0.0007
 04\Br,0,-4.306483,-0.938356,0.000293\N,0,4.811033,1.34887,0.001391\H,0
 ,-3.81537,1.993317,-0.000268\H,0,-1.754638,3.396285,-0.00073\H,0,-1.40
 234,-1.556104,0.000244\H,0,0.965325,-1.470887,-0.000102\H,0,4.093821,2
 .054405,0.002139\H,0,5.781053,1.619549,0.001939\H,0,1.460209,1.969159,
 -0.000773\\Version=AM64L-G09RevD.01\State=1-A\HF=-3278.0521508\RMSD=5.
 230e-09\Dipole=-0.7533609,1.7794668,0.0015964\Quadrupole=-6.0857459,3.
 735592,2.350154,15.3970114,0.0156331,0.0025322\PG=C01 [X(C8H7Br1N6O1)]
 \\@


 THE ATTENTION SPAN OF A COMPUTER IS AS LONG
 AS ITS EXTENSION CORD.
 Job cpu time:       0 days  0 hours  3 minutes 44.1 seconds.
 File lengths (MBytes):  RWF=     36 Int=      0 D2E=      0 Chk=      3 Scr=      1
 Normal termination of Gaussian 09 at Thu Jan 16 22:40:31 2014.
223.72user 0.36system 3:44.75elapsed 99%CPU (0avgtext+0avgdata 603376maxresident)k
8inputs+166200outputs (0major+172383minor)pagefaults 0swaps
