Linux g42 2.6.38.6-client #1 SMP Tue Jun 12 11:27:21 CEST 2012 x86_64 GNU/Linux
Thu Jan 16 21:46:47 CET 2014

 Entering Gaussian System, Link 0=/usr/local/programs/common/gaussian/gaussian09_d01/arch/amd64-pgi_10.4.0-acml/g09/g09
 Initial command:
 /usr/local/programs/common/gaussian/gaussian09_d01/arch/amd64-pgi_10.4.0-acml/g09/l1.exe "/scratch/kolar/g09_17707/Gau-2227.inp" -scrdir="/scratch/kolar/g09_17707/"
 Entering Link 1 = /usr/local/programs/common/gaussian/gaussian09_d01/arch/amd64-pgi_10.4.0-acml/g09/l1.exe PID=      2234.
  
 Copyright (c) 1988,1990,1992,1993,1995,1998,2003,2009,2013,
            Gaussian, Inc.  All Rights Reserved.
  
 This is part of the Gaussian(R) 09 program.  It is based on
 the Gaussian(R) 03 system (copyright 2003, Gaussian, Inc.),
 the Gaussian(R) 98 system (copyright 1998, Gaussian, Inc.),
 the Gaussian(R) 94 system (copyright 1995, Gaussian, Inc.),
 the Gaussian 92(TM) system (copyright 1992, Gaussian, Inc.),
 the Gaussian 90(TM) system (copyright 1990, Gaussian, Inc.),
 the Gaussian 88(TM) system (copyright 1988, Gaussian, Inc.),
 the Gaussian 86(TM) system (copyright 1986, Carnegie Mellon
 University), and the Gaussian 82(TM) system (copyright 1983,
 Carnegie Mellon University). Gaussian is a federally registered
 trademark of Gaussian, Inc.
  
 This software contains proprietary and confidential information,
 including trade secrets, belonging to Gaussian, Inc.
  
 This software is provided under written license and may be
 used, copied, transmitted, or stored only in accord with that
 written license.
  
 The following legend is applicable only to US Government
 contracts under FAR:
  
                    RESTRICTED RIGHTS LEGEND
  
 Use, reproduction and disclosure by the US Government is
 subject to restrictions as set forth in subparagraphs (a)
 and (c) of the Commercial Computer Software - Restricted
 Rights clause in FAR 52.227-19.
  
 Gaussian, Inc.
 340 Quinnipiac St., Bldg. 40, Wallingford CT 06492
  
  
 ---------------------------------------------------------------
 Warning -- This program may not be used in any manner that
 competes with the business of Gaussian, Inc. or will provide
 assistance to any competitor of Gaussian, Inc.  The licensee
 of this program is prohibited from giving any competitor of
 Gaussian, Inc. access to this program.  By using this program,
 the user acknowledges that Gaussian, Inc. is engaged in the
 business of creating and licensing software in the field of
 computational chemistry and represents and warrants to the
 licensee that it is not a competitor of Gaussian, Inc. and that
 it will not use this program in any manner prohibited above.
 ---------------------------------------------------------------
  

 Cite this work as:
 Gaussian 09, Revision D.01,
 M. J. Frisch, G. W. Trucks, H. B. Schlegel, G. E. Scuseria, 
 M. A. Robb, J. R. Cheeseman, G. Scalmani, V. Barone, B. Mennucci, 
 G. A. Petersson, H. Nakatsuji, M. Caricato, X. Li, H. P. Hratchian, 
 A. F. Izmaylov, J. Bloino, G. Zheng, J. L. Sonnenberg, M. Hada, 
 M. Ehara, K. Toyota, R. Fukuda, J. Hasegawa, M. Ishida, T. Nakajima, 
 Y. Honda, O. Kitao, H. Nakai, T. Vreven, J. A. Montgomery, Jr., 
 J. E. Peralta, F. Ogliaro, M. Bearpark, J. J. Heyd, E. Brothers, 
 K. N. Kudin, V. N. Staroverov, T. Keith, R. Kobayashi, J. Normand, 
 K. Raghavachari, A. Rendell, J. C. Burant, S. S. Iyengar, J. Tomasi, 
 M. Cossi, N. Rega, J. M. Millam, M. Klene, J. E. Knox, J. B. Cross, 
 V. Bakken, C. Adamo, J. Jaramillo, R. Gomperts, R. E. Stratmann, 
 O. Yazyev, A. J. Austin, R. Cammi, C. Pomelli, J. W. Ochterski, 
 R. L. Martin, K. Morokuma, V. G. Zakrzewski, G. A. Voth, 
 P. Salvador, J. J. Dannenberg, S. Dapprich, A. D. Daniels, 
 O. Farkas, J. B. Foresman, J. V. Ortiz, J. Cioslowski, 
 and D. J. Fox, Gaussian, Inc., Wallingford CT, 2013.
 
 ******************************************
 Gaussian 09:  AM64L-G09RevD.01 24-Apr-2013
                16-Jan-2014 
 ******************************************
 %mem=1800mb
 -----------------------------------------
 # hf/gen pop=mk iop(6/33=2,6/41=5,6/42=2)
 -----------------------------------------
 1/38=1/1;
 2/12=2,17=6,18=5,40=1/2;
 3/5=7,11=9,16=1,25=1,30=1/1,2,3;
 4//1;
 5/5=2,38=5/2;
 6/7=2,8=2,9=2,10=2,15=8,20=1,28=1,33=2,41=5,42=2/1,2;
 99/5=1,9=1/99;
 -------
 na resp
 -------
 Symbolic Z-matrix:
 Charge =  0 Multiplicity = 1
 6                     1.11447   2.44989   0.0651 
 6                     1.41259   0.97778   0.03375 
 6                     0.53825  -0.04499   0.31674 
 16                    1.36455  -1.5783    0.13277 
 6                     2.81063  -0.70566  -0.30302 
 7                     2.69497   0.58655  -0.31107 
 6                    -0.91858   0.01696   0.68755 
 6                    -1.81829  -0.15302  -0.54133 
 17                   -3.57605  -0.06561  -0.08551 
 1                     1.21717   2.88527  -0.93595 
 1                     0.10414   2.66029   0.42531 
 1                     1.82837   2.96748   0.71531 
 1                     3.7267   -1.23517  -0.53936 
 1                    -1.1674   -0.7551    1.4237 
 1                    -1.13613   0.98035   1.15954 
 1                    -1.64454   0.63594  -1.27502 
 1                    -1.66759  -1.12255  -1.01964 
 
                          Input orientation:                          
 ---------------------------------------------------------------------
 Center     Atomic      Atomic             Coordinates (Angstroms)
 Number     Number       Type             X           Y           Z
 ---------------------------------------------------------------------
      1          6           0        1.114472    2.449890    0.065104
      2          6           0        1.412588    0.977778    0.033747
      3          6           0        0.538253   -0.044993    0.316744
      4         16           0        1.364551   -1.578298    0.132774
      5          6           0        2.810630   -0.705662   -0.303021
      6          7           0        2.694969    0.586553   -0.311065
      7          6           0       -0.918577    0.016963    0.687552
      8          6           0       -1.818286   -0.153023   -0.541333
      9         17           0       -3.576047   -0.065608   -0.085505
     10          1           0        1.217166    2.885273   -0.935946
     11          1           0        0.104144    2.660290    0.425306
     12          1           0        1.828369    2.967475    0.715309
     13          1           0        3.726703   -1.235165   -0.539356
     14          1           0       -1.167398   -0.755100    1.423696
     15          1           0       -1.136128    0.980349    1.159539
     16          1           0       -1.644535    0.635942   -1.275022
     17          1           0       -1.667586   -1.122545   -1.019638
 ---------------------------------------------------------------------
                    Distance matrix (angstroms):
                    1          2          3          4          5
     1  C    0.000000
     2  C    1.502322   0.000000
     3  C    2.572896   1.374994   0.000000
     4  S    4.036511   2.558445   1.751467   0.000000
     5  C    3.601385   2.214024   2.446281   1.744292   0.000000
     6  N    2.472145   1.384360   2.333328   2.579454   1.297406
     7  C    3.231078   2.604795   1.504557   2.839949   3.925609
     8  C    3.967870   3.471019   2.510228   3.551940   4.667876
     9  Cl   5.324602   5.097976   4.133968   5.171594   6.422354
    10  H    1.096451   2.148728   3.258315   4.592097   3.979263
    11  H    1.093058   2.167070   2.742042   4.431685   4.380087
    12  H    1.095586   2.143897   3.301245   4.606357   3.936212
    13  H    4.557275   3.252798   3.509363   2.479770   1.084167
    14  H    4.162291   3.404578   2.153797   2.958868   4.336900
    15  H    2.902161   2.786282   2.136629   3.722139   4.534161
    16  H    3.563491   3.343012   2.786029   3.992411   4.753229
    17  H    4.656050   3.874074   2.795132   3.275610   4.554311
                    6          7          8          9         10
     6  N    0.000000
     7  C    3.792016   0.000000
     8  C    4.579243   1.532491   0.000000
     9  Cl   6.308869   2.768859   1.818006   0.000000
    10  H    2.803300   3.927384   4.312880   5.692613   0.000000
    11  H    3.399265   2.846385   3.541872   4.608172   1.772694
    12  H    2.733721   4.031377   4.961325   6.248889   1.762660
    13  H    2.106003   4.965053   5.649596   7.409723   4.840772
    14  H    4.441543   1.095400   2.155804   2.924838   4.950391
    15  H    4.122506   1.094629   2.154724   2.932126   3.682090
    16  H    4.445554   2.182166   1.091309   2.374418   3.655652
    17  H    4.738668   2.184946   1.091540   2.373172   4.938765
                   11         12         13         14         15
    11  H    0.000000
    12  H    1.775223   0.000000
    13  H    5.406300   4.779125   0.000000
    14  H    3.778689   4.830528   5.294928   0.000000
    15  H    2.213498   3.596422   5.607305   1.755716   0.000000
    16  H    3.169697   4.632335   5.735193   3.073392   2.510813
    17  H    4.420037   5.653318   5.416799   2.520929   3.074642
                   16         17
    16  H    0.000000
    17  H    1.777084   0.000000
 Stoichiometry    C6H8ClNS
 Framework group  C1[X(C6H8ClNS)]
 Deg. of freedom    45
 Full point group                 C1      NOp   1
 Largest Abelian subgroup         C1      NOp   1
 Largest concise Abelian subgroup C1      NOp   1
                         Standard orientation:                         
 ---------------------------------------------------------------------
 Center     Atomic      Atomic             Coordinates (Angstroms)
 Number     Number       Type             X           Y           Z
 ---------------------------------------------------------------------
      1          6           0        1.114472    2.449890    0.065104
      2          6           0        1.412588    0.977778    0.033747
      3          6           0        0.538253   -0.044993    0.316744
      4         16           0        1.364551   -1.578298    0.132774
      5          6           0        2.810630   -0.705662   -0.303021
      6          7           0        2.694969    0.586553   -0.311065
      7          6           0       -0.918577    0.016963    0.687552
      8          6           0       -1.818286   -0.153023   -0.541333
      9         17           0       -3.576047   -0.065608   -0.085505
     10          1           0        1.217165    2.885273   -0.935946
     11          1           0        0.104144    2.660290    0.425306
     12          1           0        1.828368    2.967475    0.715309
     13          1           0        3.726703   -1.235165   -0.539356
     14          1           0       -1.167398   -0.755100    1.423696
     15          1           0       -1.136128    0.980349    1.159539
     16          1           0       -1.644535    0.635942   -1.275022
     17          1           0       -1.667586   -1.122545   -1.019638
 ---------------------------------------------------------------------
 Rotational constants (GHZ):      2.2471973      0.5987949      0.4927957
 General basis read from cards:  (5D, 7F)
 There are   159 symmetry adapted cartesian basis functions of A   symmetry.
 There are   150 symmetry adapted basis functions of A   symmetry.
   150 basis functions,   332 primitive gaussians,   159 cartesian basis functions
    42 alpha electrons       42 beta electrons
       nuclear repulsion energy       573.3133463060 Hartrees.
 NAtoms=   17 NActive=   17 NUniq=   17 SFac= 1.00D+00 NAtFMM=   60 NAOKFM=F Big=F
 Integral buffers will be    131072 words long.
 Raffenetti 1 integral format.
 Two-electron integral symmetry is turned on.
 One-electron integrals computed using PRISM.
 NBasis=   150 RedAO= T EigKep=  1.92D-03  NBF=   150
 NBsUse=   150 1.00D-06 EigRej= -1.00D+00 NBFU=   150
 ExpMin= 1.17D-01 ExpMax= 2.52D+04 ExpMxC= 3.78D+03 IAcc=1 IRadAn=         1 AccDes= 0.00D+00
 Harris functional with IExCor=  205 and IRadAn=       1 diagonalized for initial guess.
 HarFok:  IExCor=  205 AccDes= 0.00D+00 IRadAn=         1 IDoV= 1 UseB2=F ITyADJ=14
 ICtDFT=  3500011 ScaDFX=  1.000000  1.000000  1.000000  1.000000
 FoFCou: FMM=F IPFlag=           0 FMFlag=      100000 FMFlg1=           0
         NFxFlg=           0 DoJE=T BraDBF=F KetDBF=T FulRan=T
         wScrn=  0.000000 ICntrl=     500 IOpCl=  0 I1Cent=   200000004 NGrid=           0
         NMat0=    1 NMatS0=      1 NMatT0=    0 NMatD0=    1 NMtDS0=    0 NMtDT0=    0
 Petite list used in FoFCou.
 Keep R1 ints in memory in canonical form, NReq=66277934.
 Requested convergence on RMS density matrix=1.00D-08 within 128 cycles.
 Requested convergence on MAX density matrix=1.00D-06.
 Requested convergence on             energy=1.00D-06.
 No special actions if energy rises.
 SCF Done:  E(RHF) =  -1143.29684750     A.U. after   15 cycles
            NFock= 15  Conv=0.72D-08     -V/T= 2.0001

 **********************************************************************

            Population analysis using the SCF density.

 **********************************************************************

 Orbital symmetries:
 BldTbl:  Degeneracy threshold= 1.00D-02
       Occupied  (A) (A) (A) (A) (A) (A) (A) (A) (A) (A) (A) (A)
                 (A) (A) (A) (A) (A) (A) (A) (A) (A) (A) (A) (A)
                 (A) (A) (A) (A) (A) (A) (A) (A) (A) (A) (A) (A)
                 (A) (A) (A) (A) (A) (A)
       Virtual   (A) (A) (A) (A) (A) (A) (A) (A) (A) (A) (A) (A)
                 (A) (A) (A) (A) (A) (A) (A) (A) (A) (A) (A) (A)
                 (A) (A) (A) (A) (A) (A) (A) (A) (A) (A) (A) (A)
                 (A) (A) (A) (A) (A) (A) (A) (A) (A) (A) (A) (A)
                 (A) (A) (A) (A) (A) (A) (A) (A) (A) (A) (A) (A)
                 (A) (A) (A) (A) (A) (A) (A) (A) (A) (A) (A) (A)
                 (A) (A) (A) (A) (A) (A) (A) (A) (A) (A) (A) (A)
                 (A) (A) (A) (A) (A) (A) (A) (A) (A) (A) (A) (A)
                 (A) (A) (A) (A) (A) (A) (A) (A) (A) (A) (A) (A)
 The electronic state is 1-A.
 Alpha  occ. eigenvalues -- -104.80613 -91.98038 -15.58041 -11.31693 -11.30311
 Alpha  occ. eigenvalues --  -11.28256 -11.27788 -11.26286 -11.23346 -10.54518
 Alpha  occ. eigenvalues --   -8.99620  -8.01363  -8.01047  -8.01042  -6.67789
 Alpha  occ. eigenvalues --   -6.67689  -6.67533  -1.28609  -1.14559  -1.08855
 Alpha  occ. eigenvalues --   -1.04991  -0.99958  -0.92730  -0.86411  -0.79740
 Alpha  occ. eigenvalues --   -0.73581  -0.68065  -0.65549  -0.60650  -0.59501
 Alpha  occ. eigenvalues --   -0.58204  -0.57458  -0.55373  -0.54227  -0.53155
 Alpha  occ. eigenvalues --   -0.51644  -0.48645  -0.43977  -0.43659  -0.43053
 Alpha  occ. eigenvalues --   -0.38839  -0.33322
 Alpha virt. eigenvalues --    0.10864   0.15196   0.18302   0.21688   0.22904
 Alpha virt. eigenvalues --    0.24794   0.26340   0.27151   0.28600   0.29532
 Alpha virt. eigenvalues --    0.31104   0.33090   0.33738   0.36992   0.38848
 Alpha virt. eigenvalues --    0.41647   0.42575   0.46457   0.50204   0.53205
 Alpha virt. eigenvalues --    0.56399   0.59465   0.62992   0.63656   0.65494
 Alpha virt. eigenvalues --    0.65978   0.68163   0.69844   0.70732   0.74266
 Alpha virt. eigenvalues --    0.75711   0.77452   0.79589   0.80415   0.85074
 Alpha virt. eigenvalues --    0.87688   0.88938   0.90787   0.92632   0.93966
 Alpha virt. eigenvalues --    0.96538   1.00011   1.00750   1.02697   1.07337
 Alpha virt. eigenvalues --    1.07896   1.09783   1.10743   1.11408   1.11668
 Alpha virt. eigenvalues --    1.12935   1.14166   1.15524   1.17238   1.18691
 Alpha virt. eigenvalues --    1.19172   1.20705   1.21326   1.22792   1.24429
 Alpha virt. eigenvalues --    1.26201   1.29307   1.29874   1.32026   1.33638
 Alpha virt. eigenvalues --    1.43068   1.44249   1.52862   1.58195   1.61519
 Alpha virt. eigenvalues --    1.64782   1.65081   1.74266   1.74746   1.79488
 Alpha virt. eigenvalues --    1.83989   1.88335   1.97256   2.00725   2.04787
 Alpha virt. eigenvalues --    2.07737   2.12452   2.18752   2.19913   2.23236
 Alpha virt. eigenvalues --    2.23374   2.29816   2.35097   2.37354   2.44005
 Alpha virt. eigenvalues --    2.50606   2.52524   2.54952   2.55620   2.59990
 Alpha virt. eigenvalues --    2.64459   2.68102   2.69641   2.76774   2.77829
 Alpha virt. eigenvalues --    2.82693   2.87578   2.93852   2.96787   3.02108
 Alpha virt. eigenvalues --    3.16202   3.39238   3.46903
          Condensed to atoms (all electrons):
               1          2          3          4          5          6
     1  C    5.119430   0.348527  -0.054343   0.002857   0.005431  -0.059408
     2  C    0.348527   4.638756   0.620420  -0.091014  -0.104037   0.434838
     3  C   -0.054343   0.620420   5.458622   0.300971  -0.064817  -0.085478
     4  S    0.002857  -0.091014   0.300971  15.334575   0.331057  -0.087785
     5  C    0.005431  -0.104037  -0.064817   0.331057   5.045180   0.530339
     6  N   -0.059408   0.434838  -0.085478  -0.087785   0.530339   6.759937
     7  C   -0.003787  -0.019806   0.262892  -0.036580   0.002282   0.003272
     8  C    0.000259  -0.003282  -0.058905  -0.001786   0.000063  -0.000028
     9  Cl   0.000002   0.000036   0.006826  -0.000088   0.000000   0.000000
    10  H    0.387349  -0.037108   0.000201  -0.000012   0.000012  -0.000971
    11  H    0.389139  -0.039336  -0.001990   0.000127  -0.000142   0.003008
    12  H    0.388114  -0.037485   0.001113  -0.000030   0.000084  -0.001127
    13  H   -0.000045   0.003085   0.002537  -0.039376   0.385377  -0.029286
    14  H    0.000045   0.000517  -0.041326  -0.001419   0.000027  -0.000071
    15  H   -0.000499   0.000287  -0.047872   0.002466  -0.000084   0.000120
    16  H    0.000178   0.000578   0.000036   0.000175  -0.000027  -0.000023
    17  H   -0.000019   0.000501  -0.001448   0.001485  -0.000062   0.000001
               7          8          9         10         11         12
     1  C   -0.003787   0.000259   0.000002   0.387349   0.389139   0.388114
     2  C   -0.019806  -0.003282   0.000036  -0.037108  -0.039336  -0.037485
     3  C    0.262892  -0.058905   0.006826   0.000201  -0.001990   0.001113
     4  S   -0.036580  -0.001786  -0.000088  -0.000012   0.000127  -0.000030
     5  C    0.002282   0.000063   0.000000   0.000012  -0.000142   0.000084
     6  N    0.003272  -0.000028   0.000000  -0.000971   0.003008  -0.001127
     7  C    5.164971   0.296803  -0.063986   0.000175  -0.001205  -0.000002
     8  C    0.296803   5.262322   0.209882   0.000102  -0.000264  -0.000020
     9  Cl  -0.063986   0.209882  17.046344  -0.000004   0.000020   0.000001
    10  H    0.000175   0.000102  -0.000004   0.510020  -0.026546  -0.028111
    11  H   -0.001205  -0.000264   0.000020  -0.026546   0.523315  -0.024305
    12  H   -0.000002  -0.000020   0.000001  -0.028111  -0.024305   0.502497
    13  H   -0.000013   0.000000   0.000000  -0.000002   0.000001  -0.000003
    14  H    0.407770  -0.045451   0.001024  -0.000008   0.000068   0.000011
    15  H    0.409202  -0.042073   0.000221  -0.000112   0.002004   0.000024
    16  H   -0.035090   0.381460  -0.044102  -0.000051   0.000153   0.000008
    17  H   -0.034884   0.382701  -0.044124  -0.000001   0.000002   0.000000
              13         14         15         16         17
     1  C   -0.000045   0.000045  -0.000499   0.000178  -0.000019
     2  C    0.003085   0.000517   0.000287   0.000578   0.000501
     3  C    0.002537  -0.041326  -0.047872   0.000036  -0.001448
     4  S   -0.039376  -0.001419   0.002466   0.000175   0.001485
     5  C    0.385377   0.000027  -0.000084  -0.000027  -0.000062
     6  N   -0.029286  -0.000071   0.000120  -0.000023   0.000001
     7  C   -0.000013   0.407770   0.409202  -0.035090  -0.034884
     8  C    0.000000  -0.045451  -0.042073   0.381460   0.382701
     9  Cl   0.000000   0.001024   0.000221  -0.044102  -0.044124
    10  H   -0.000002  -0.000008  -0.000112  -0.000051  -0.000001
    11  H    0.000001   0.000068   0.002004   0.000153   0.000002
    12  H   -0.000003   0.000011   0.000024   0.000008   0.000000
    13  H    0.435406  -0.000001   0.000001   0.000000   0.000000
    14  H   -0.000001   0.485928  -0.022042   0.003541  -0.002110
    15  H    0.000001  -0.022042   0.481534  -0.002387   0.003381
    16  H    0.000000   0.003541  -0.002387   0.495310  -0.025615
    17  H    0.000000  -0.002110   0.003381  -0.025615   0.492303
 Mulliken charges:
               1
     1  C   -0.523229
     2  C    0.284524
     3  C   -0.297437
     4  S    0.284376
     5  C   -0.130683
     6  N   -0.467337
     7  C   -0.352013
     8  C   -0.381783
     9  Cl  -0.112053
    10  H    0.195068
    11  H    0.175950
    12  H    0.199230
    13  H    0.242318
    14  H    0.213496
    15  H    0.215829
    16  H    0.225857
    17  H    0.227887
 Sum of Mulliken charges =   0.00000
 Mulliken charges with hydrogens summed into heavy atoms:
               1
     1  C    0.047019
     2  C    0.284524
     3  C   -0.297437
     4  S    0.284376
     5  C    0.111635
     6  N   -0.467337
     7  C    0.077312
     8  C    0.071961
     9  Cl  -0.112053
 DipInt: DoE/N= T F RetVal/Mat= T F Init=T NMatP=  1 IDeriv=0 Min/MaxMlt=  0  4
 Entering OneElI...
 OneElI was handed   235862378 working-precision words.
 Multipole integrals L=0 to 4 MinM= 0 MaxM= 0.
 Requested accuracy = 0.1000D-12
 ShPair: Thresh= 1.00D-13 NBox=     0 BxSize= 0.00D+00 RnKept= 1.40D+01
         NSMCal=                 1485 NSMKep=                1388
 PrsmSu:  NPrtUS=   1 ThrOK=F IAlg=1 NPAlg=1 LenDen=           0.
 Prism:   IPart=     0 DynPar=F LinDyn=F Incr=          13.
 PRISM was handed   235726326 working-precision words and  1388 shell-pairs
 IPart=  0 NShTot=        1388 NBatch=          68 AvBLen=        20.4
 PrSmSu:  NxtVal=             14.
 Electronic moments (au):
        -84.00000000          0.51397027         -0.15055132         -0.04237599
      -1553.53153673       -463.33030377       -103.87461782         -3.71198604
         -0.13127186          0.89708070       2970.52060741       -645.35391806
        -13.29548843       -977.57170424        250.74442568        404.99455280
         39.07870761        -20.05770855        -47.80743870         18.94475997
     -55559.25462251      -8357.26897436       -549.85906856         30.59571399
        104.97044503      -1164.90869708        -50.45885987         23.97821849
         15.20681929      -4247.61667856      -1482.82930362       -587.65501158
       -111.53369509        -76.96243025        -59.32294531
 Electronic spatial extent (au):  <R**2>=           2120.7365
 DipInt: DoE/N= F T RetVal/Mat= T F Init=T NMatP=  1 IDeriv=0 Min/MaxMlt=  0  4
 Nuclear    moments (au):
         84.00000000          0.00000000          0.00000000          0.00000000
       1493.96562350        414.80539294         52.70780237          0.00000000
         -0.00000026          0.00001632      -2925.92647859        652.25148584
         10.91964975        979.38951165       -283.90753600       -404.60364676
        -49.41422366         21.58280710         46.68749799        -12.39807711
      49831.47417527       6701.29667804        163.55041619       -292.81374074
       -155.29461347       1168.97193212         58.93039691        -22.60779293
        -19.76087934       3092.95627725        492.85946325        246.76733348
        158.75170784         73.48594546         63.86104816
 Total      moments (au):
          0.00000000          0.51397027         -0.15055132         -0.04237599
        -59.56591323        -48.52491083        -51.16681545         -3.71198604
         -0.13127212          0.89709702         44.59412882          6.89756778
         -2.37583868          1.81780740        -33.16311031          0.39090604
        -10.33551605          1.52509855         -1.11994072          6.54668285
      -5727.78044724      -1655.97229633       -386.30865238       -262.21802676
        -50.32416844          4.06323504          8.47153704          1.37042556
         -4.55406005      -1154.66040131       -989.96984038       -340.88767809
         47.21801275         -3.47648479          4.53810285
 Traceless Quadrup. (au):
         -6.48003339          4.56096901          1.91906439         -3.71198604
         -0.13127212          0.89709702
 Charge=              0.0000 electrons
 Dipole moment (field-independent basis, Debye):
    X=              1.3064    Y=             -0.3827    Z=             -0.1077  Tot=              1.3655
 Quadrupole moment (field-independent basis, Debye-Ang):
   XX=            -80.1182   YY=            -65.2677   ZZ=            -68.8211
   XY=             -4.9927   XZ=             -0.1766   YZ=              1.2066
 Traceless Quadrupole moment (field-independent basis, Debye-Ang):
   XX=             -8.7159   YY=              6.1347   ZZ=              2.5812
   XY=             -4.9927   XZ=             -0.1766   YZ=              1.2066
 Octapole moment (field-independent basis, Debye-Ang**2):
  XXX=             31.7404  YYY=              4.9094  ZZZ=             -1.6910  XYY=              1.2938
  XXY=            -23.6042  XXZ=              0.2782  XZZ=             -7.3564  YZZ=              1.0855
  YYZ=             -0.7971  XYZ=              4.6597
 Hexadecapole moment (field-independent basis, Debye-Ang**3):
 XXXX=          -2157.3566 YYYY=           -623.7185 ZZZZ=           -145.5024 XXXY=            -98.7639
 XXXZ=            -18.9545 YYYX=              1.5304 YYYZ=              3.1908 ZZZX=              0.5162
 ZZZY=             -1.7153 XXYY=           -434.9004 XXZZ=           -372.8701 YYZZ=           -128.3946
 XXYZ=             17.7846 YYXZ=             -1.3094 ZZXY=              1.7093
 N-N= 5.733133463060D+02 E-N=-3.854665015792D+03  KE= 1.143239232589D+03
 Entering OneElI...
 OneElI was handed   235877304 working-precision words.
 Calculate electrostatic properties
    NBasis =   150  MinDer = 0  MaxDer = 0
    NGrid  =    17  NMatD  =   1
 Requested accuracy = 0.1000D-12
 ShPair: Thresh= 1.00D-13 NBox=     0 BxSize= 0.00D+00 RnKept= 1.40D+01
         NSMCal=                 1485 NSMKep=                1303
 PrsmSu:  NPrtUS=   1 ThrOK=F IAlg=1 NPAlg=1 LenDen=           0.
 Prism:   IPart=     0 DynPar=F LinDyn=F Incr=         221.
 PRISM was handed   235750294 working-precision words and  1303 shell-pairs
 IPart=  0 NShTot=       22151 NBatch=        1303 AvBLen=        17.0
 PrSmSu:  NxtVal=            222.
 --------------------------------------------------------
       Center         ----      EFG at Nuclei      ----
                      3XX-RR        3YY-RR        3ZZ-RR
 --------------------------------------------------------
     1   Atom        0.033141     -0.067945      0.034804
     2   Atom        0.015635      0.207768     -0.223404
     3   Atom        0.125510     -0.080943     -0.044567
     4   Atom       -1.505856      0.087686      1.418170
     5   Atom        0.071009      0.181549     -0.252558
     6   Atom        0.350127      0.196558     -0.546684
     7   Atom       -0.086634      0.095501     -0.008867
     8   Atom       -0.433915      0.268552      0.165364
     9   Atom       -3.090860      1.721915      1.368945
    10   Atom        0.148564      0.073063     -0.221627
    11   Atom       -0.234482      0.126026      0.108456
    12   Atom       -0.037709      0.043556     -0.005846
    13   Atom       -0.173488      0.033210      0.140278
    14   Atom        0.118311     -0.070511     -0.047799
    15   Atom        0.124635     -0.193930      0.069295
    16   Atom        0.127763     -0.081287     -0.046476
    17   Atom        0.129297     -0.197917      0.068619
 --------------------------------------------------------
                        XY            XZ            YZ
 --------------------------------------------------------
     1   Atom        0.019554      0.004786     -0.001731
     2   Atom        0.035396     -0.071895     -0.022907
     3   Atom        0.159579     -0.056257     -0.046461
     4   Atom        0.557257      0.863502     -0.105878
     5   Atom       -0.170959     -0.091681      0.031980
     6   Atom        0.636432     -0.292625     -0.203340
     7   Atom        0.005187     -0.019910     -0.015352
     8   Atom        0.034195      0.165817     -0.015816
     9   Atom        0.245569      1.265856     -0.069794
    10   Atom       -0.013777      0.037980      0.158805
    11   Atom        0.076794      0.139991     -0.026994
    12   Atom       -0.133583     -0.174214     -0.124608
    13   Atom        0.188101      0.087077     -0.047840
    14   Atom       -0.068024      0.063593      0.207610
    15   Atom        0.074262      0.034883     -0.166479
    16   Atom       -0.049468      0.045024      0.215693
    17   Atom        0.052696      0.024240     -0.171428
 --------------------------------------------------------


 ---------------------------------------------------------------------------------
              Nuclear Quadrupole Coupling Constant in Principal Axis System
 ---------------------------------------------------------------------------------

       Atom             a.u.   MegaHertz   Gauss  10(-4) cm-1        Axes

              Baa    -0.6342     3.046     1.087     1.016  0.2655  0.0325  0.9636
     6 N(14)  Bbb    -0.3615     1.736     0.619     0.579 -0.6253  0.7665  0.1464
              Bcc     0.9956    -4.782    -1.706    -1.595  0.7338  0.6414 -0.2238
 
              Baa    -3.4377   -65.952   -23.533   -21.999  0.9657 -0.0494 -0.2550
     9 Cl(35) Bbb     1.7025    32.662    11.655    10.895  0.2596  0.1473  0.9544
              Bcc     1.7353    33.291    11.879    11.105  0.0096  0.9879 -0.1551
 

 ---------------------------------------------------------------------------------

 No NMR shielding tensors so no spin-rotation constants.
 Leave Link  601 at Thu Jan 16 21:47:05 2014, MaxMem=   235929600 cpu:         0.2
 FitSet:  NAtFit=    17 NAtPot=    17 NAtFrz=     0 MDM=    21 TotChg=   0.00000
 Merz-Kollman atomic radii used.
 Atom Element Radius
    1     6    1.50
    2     6    1.50
    3     6    1.50
    4    16    1.75
    5     6    1.50
    6     7    1.50
    7     6    1.50
    8     6    1.50
    9    17    1.70
   10     1    1.20
   11     1    1.20
   12     1    1.20
   13     1    1.20
   14     1    1.20
   15     1    1.20
   16     1    1.20
   17     1    1.20
 Generate VDW surfaces: Layer= 5 Dens= 2 Start= 1.400 Inc= 0.179

 **********************************************************************

            Electrostatic Properties Using The SCF Density

 **********************************************************************

       Atomic Center    1 is at   1.114472  2.449890  0.065104
       Atomic Center    2 is at   1.412588  0.977778  0.033747
       Atomic Center    3 is at   0.538253 -0.044993  0.316744
       Atomic Center    4 is at   1.364551 -1.578298  0.132774
       Atomic Center    5 is at   2.810630 -0.705662 -0.303021
       Atomic Center    6 is at   2.694969  0.586553 -0.311065
       Atomic Center    7 is at  -0.918577  0.016963  0.687552
       Atomic Center    8 is at  -1.818286 -0.153023 -0.541333
       Atomic Center    9 is at  -3.576047 -0.065608 -0.085505
       Atomic Center   10 is at   1.217165  2.885273 -0.935946
       Atomic Center   11 is at   0.104144  2.660290  0.425306
       Atomic Center   12 is at   1.828368  2.967475  0.715309
       Atomic Center   13 is at   3.726703 -1.235165 -0.539356
       Atomic Center   14 is at  -1.167398 -0.755100  1.423696
       Atomic Center   15 is at  -1.136128  0.980349  1.159539
       Atomic Center   16 is at  -1.644535  0.635942 -1.275022
       Atomic Center   17 is at  -1.667586 -1.122545 -1.019638
      ESP Fit Center   18 is at   1.114472  2.449890  2.165104
      ESP Fit Center   19 is at   0.755350  3.071906  2.038459
      ESP Fit Center   20 is at   0.755350  1.827874  2.038459
      ESP Fit Center   21 is at   1.473593  1.827874  2.038459
      ESP Fit Center   22 is at   0.548510  4.439038  0.429765
      ESP Fit Center   23 is at   2.036301  4.301174 -0.299557
      ESP Fit Center   24 is at   1.305291  4.509164 -0.299557
      ESP Fit Center   25 is at   0.548510  4.439038 -0.299557
      ESP Fit Center   26 is at  -0.356850  3.518868 -0.984896
      ESP Fit Center   27 is at  -0.664440  2.071771 -0.984896
      ESP Fit Center   28 is at  -0.180704  2.069592 -1.543589
      ESP Fit Center   29 is at   1.412588  0.977778  2.133747
      ESP Fit Center   30 is at   2.130830  0.977778  2.007102
      ESP Fit Center   31 is at   1.771709  1.599794  2.007102
      ESP Fit Center   32 is at   1.053467  1.599794  2.007102
      ESP Fit Center   33 is at   1.771709  0.355762  2.007102
      ESP Fit Center   34 is at   2.548157  1.707564  1.642440
      ESP Fit Center   35 is at   0.117412  1.358076 -1.574946
      ESP Fit Center   36 is at   1.771709  1.599794 -1.939607
      ESP Fit Center   37 is at   0.694345  0.977778 -1.939607
      ESP Fit Center   38 is at   1.053467  0.355762 -1.939607
      ESP Fit Center   39 is at   1.412588  0.977778 -2.066253
      ESP Fit Center   40 is at   0.538253 -0.044993  2.416744
      ESP Fit Center   41 is at   1.256495 -0.044993  2.290099
      ESP Fit Center   42 is at   0.897374  0.577023  2.290099
      ESP Fit Center   43 is at   0.346149  1.291121  1.925437
      ESP Fit Center   44 is at   0.179132  0.577023 -1.656610
      ESP Fit Center   45 is at   0.538253 -0.044993 -1.783256
      ESP Fit Center   46 is at   1.364551 -1.578298  2.582774
      ESP Fit Center   47 is at   2.121643 -1.578298  2.462863
      ESP Fit Center   48 is at   1.743097 -0.922637  2.462863
      ESP Fit Center   49 is at   0.986005 -0.922637  2.462863
      ESP Fit Center   50 is at   0.607459 -1.578298  2.462863
      ESP Fit Center   51 is at   0.986005 -2.233958  2.462863
      ESP Fit Center   52 is at   1.743097 -2.233958  2.462863
      ESP Fit Center   53 is at   2.804625 -1.578298  2.114866
      ESP Fit Center   54 is at   2.611692 -0.858261  2.114866
      ESP Fit Center   55 is at   2.084588 -0.331157  2.114866
      ESP Fit Center   56 is at   0.117410 -2.298335  2.114866
      ESP Fit Center   57 is at   0.644514 -2.825438  2.114866
      ESP Fit Center   58 is at   1.364551 -3.018372  2.114866
      ESP Fit Center   59 is at   2.084588 -2.825438  2.114866
      ESP Fit Center   60 is at   2.611692 -2.298335  2.114866
      ESP Fit Center   61 is at   3.346643 -1.578298  1.572848
      ESP Fit Center   62 is at  -0.466663 -2.336812  1.572848
      ESP Fit Center   63 is at  -0.036999 -2.979848  1.572848
      ESP Fit Center   64 is at   0.606037 -3.409512  1.572848
      ESP Fit Center   65 is at   1.364551 -3.560390  1.572848
      ESP Fit Center   66 is at   2.123065 -3.409512  1.572848
      ESP Fit Center   67 is at   2.766101 -2.979848  1.572848
      ESP Fit Center   68 is at   3.195765 -2.336812  1.572848
      ESP Fit Center   69 is at  -0.684701 -2.687297  0.889866
      ESP Fit Center   70 is at  -0.213575 -3.292600  0.889866
      ESP Fit Center   71 is at   0.428565 -3.712131  0.889866
      ESP Fit Center   72 is at   1.172134 -3.900428  0.889866
      ESP Fit Center   73 is at   1.936554 -3.837086  0.889866
      ESP Fit Center   74 is at   2.638989 -3.528970  0.889866
      ESP Fit Center   75 is at   3.203318 -3.009468  0.889866
      ESP Fit Center   76 is at   3.568389 -2.334876  0.889866
      ESP Fit Center   77 is at  -0.842823 -2.641313  0.132774
      ESP Fit Center   78 is at  -0.431426 -3.244721  0.132774
      ESP Fit Center   79 is at   0.139551 -3.700060  0.132774
      ESP Fit Center   80 is at   0.819375 -3.966871  0.132774
      ESP Fit Center   81 is at   1.547640 -4.021447  0.132774
      ESP Fit Center   82 is at   2.259637 -3.858939  0.132774
      ESP Fit Center   83 is at   2.892101 -3.493785  0.132774
      ESP Fit Center   84 is at   3.388836 -2.958432  0.132774
      ESP Fit Center   85 is at  -0.684701 -2.687297 -0.624318
      ESP Fit Center   86 is at  -0.213575 -3.292600 -0.624318
      ESP Fit Center   87 is at   0.428565 -3.712131 -0.624318
      ESP Fit Center   88 is at   1.172134 -3.900428 -0.624318
      ESP Fit Center   89 is at   1.936554 -3.837086 -0.624318
      ESP Fit Center   90 is at   2.638989 -3.528970 -0.624318
      ESP Fit Center   91 is at   3.203318 -3.009468 -0.624318
      ESP Fit Center   92 is at  -0.466663 -2.336812 -1.307300
      ESP Fit Center   93 is at  -0.036999 -2.979848 -1.307300
      ESP Fit Center   94 is at   0.606037 -3.409512 -1.307300
      ESP Fit Center   95 is at   1.364551 -3.560390 -1.307300
      ESP Fit Center   96 is at   2.123065 -3.409512 -1.307300
      ESP Fit Center   97 is at   2.766101 -2.979848 -1.307300
      ESP Fit Center   98 is at   1.364551 -0.138224 -1.849318
      ESP Fit Center   99 is at   0.644514 -0.331157 -1.849318
      ESP Fit Center  100 is at   0.117410 -0.858261 -1.849318
      ESP Fit Center  101 is at  -0.075523 -1.578298 -1.849318
      ESP Fit Center  102 is at   0.117410 -2.298335 -1.849318
      ESP Fit Center  103 is at   0.644514 -2.825438 -1.849318
      ESP Fit Center  104 is at   1.364551 -3.018372 -1.849318
      ESP Fit Center  105 is at   2.084588 -2.825438 -1.849318
      ESP Fit Center  106 is at   2.611692 -2.298335 -1.849318
      ESP Fit Center  107 is at   2.121643 -1.578298 -2.197314
      ESP Fit Center  108 is at   1.743097 -0.922637 -2.197314
      ESP Fit Center  109 is at   0.986005 -0.922637 -2.197314
      ESP Fit Center  110 is at   0.607459 -1.578298 -2.197314
      ESP Fit Center  111 is at   0.986005 -2.233958 -2.197314
      ESP Fit Center  112 is at   1.743097 -2.233958 -2.197314
      ESP Fit Center  113 is at   1.364551 -1.578298 -2.317226
      ESP Fit Center  114 is at   3.528872 -0.705662  1.670334
      ESP Fit Center  115 is at   3.169751 -0.083646  1.670334
      ESP Fit Center  116 is at   4.160484 -0.705662  1.305672
      ESP Fit Center  117 is at   3.946199  0.024124  1.305672
      ESP Fit Center  118 is at   3.946199 -1.435448  1.305672
      ESP Fit Center  119 is at   4.472052  0.034051  0.746979
      ESP Fit Center  120 is at   4.739072  0.041421  0.061640
      ESP Fit Center  121 is at   4.472052  0.034051 -1.353021
      ESP Fit Center  122 is at   3.946199  0.024124 -1.911714
      ESP Fit Center  123 is at   3.528872 -0.705662 -2.276375
      ESP Fit Center  124 is at   3.169751 -0.083646 -2.276375
      ESP Fit Center  125 is at   2.092388 -0.705662 -2.276375
      ESP Fit Center  126 is at   2.451509 -1.327678 -2.276375
      ESP Fit Center  127 is at   3.169751 -1.327678 -2.276375
      ESP Fit Center  128 is at   2.810630 -0.705662 -2.403021
      ESP Fit Center  129 is at   2.694969  0.586553  1.788935
      ESP Fit Center  130 is at   3.413211  0.586553  1.662290
      ESP Fit Center  131 is at   3.054090  1.208569  1.662290
      ESP Fit Center  132 is at   4.044823  0.586553  1.297628
      ESP Fit Center  133 is at   3.830538  1.316339  1.297628
      ESP Fit Center  134 is at   3.255718  1.814424  1.297628
      ESP Fit Center  135 is at   4.513622  0.586553  0.738935
      ESP Fit Center  136 is at   4.356391  1.326266  0.738935
      ESP Fit Center  137 is at   3.911885  1.938076  0.738935
      ESP Fit Center  138 is at   4.763065  0.586553  0.053596
      ESP Fit Center  139 is at   4.623411  1.333636  0.053596
      ESP Fit Center  140 is at   4.223310  1.979821  0.053596
      ESP Fit Center  141 is at   3.616799  2.437837  0.053596
      ESP Fit Center  142 is at   4.763065  0.586553 -0.675726
      ESP Fit Center  143 is at   4.623411  1.333636 -0.675726
      ESP Fit Center  144 is at   4.223310  1.979821 -0.675726
      ESP Fit Center  145 is at   3.616799  2.437837 -0.675726
      ESP Fit Center  146 is at   4.513622  0.586553 -1.361065
      ESP Fit Center  147 is at   4.356391  1.326266 -1.361065
      ESP Fit Center  148 is at   3.911885  1.938076 -1.361065
      ESP Fit Center  149 is at   3.256964  2.316195 -1.361065
      ESP Fit Center  150 is at   4.044823  0.586553 -1.919758
      ESP Fit Center  151 is at   3.830538  1.316339 -1.919758
      ESP Fit Center  152 is at   3.255718  1.814424 -1.919758
      ESP Fit Center  153 is at   2.502865  1.922668 -1.919758
      ESP Fit Center  154 is at   1.399793  0.206255 -1.919758
      ESP Fit Center  155 is at   3.413211  0.586553 -2.284419
      ESP Fit Center  156 is at   3.054090  1.208569 -2.284419
      ESP Fit Center  157 is at   2.335848  1.208569 -2.284419
      ESP Fit Center  158 is at   1.976726  0.586553 -2.284419
      ESP Fit Center  159 is at   2.335848 -0.035463 -2.284419
      ESP Fit Center  160 is at   3.054090 -0.035463 -2.284419
      ESP Fit Center  161 is at   2.694969  0.586553 -2.411065
      ESP Fit Center  162 is at  -0.200335  0.016963  2.660907
      ESP Fit Center  163 is at   0.216992  0.746749  2.296245
      ESP Fit Center  164 is at  -2.008387 -1.961714  0.508667
      ESP Fit Center  165 is at  -2.536528 -0.153023 -2.514687
      ESP Fit Center  166 is at  -3.576047 -0.065608  2.294495
      ESP Fit Center  167 is at  -2.840587 -0.065608  2.178010
      ESP Fit Center  168 is at  -3.208317  0.571319  2.178010
      ESP Fit Center  169 is at  -3.943777  0.571319  2.178010
      ESP Fit Center  170 is at  -4.311508 -0.065608  2.178010
      ESP Fit Center  171 is at  -3.943777 -0.702536  2.178010
      ESP Fit Center  172 is at  -3.208317 -0.702536  2.178010
      ESP Fit Center  173 is at  -2.876583  1.145900  1.839956
      ESP Fit Center  174 is at  -3.576047  1.333320  1.839956
      ESP Fit Center  175 is at  -4.275512  1.145900  1.839956
      ESP Fit Center  176 is at  -4.787555  0.633856  1.839956
      ESP Fit Center  177 is at  -4.974976 -0.065608  1.839956
      ESP Fit Center  178 is at  -4.787555 -0.765073  1.839956
      ESP Fit Center  179 is at  -4.275512 -1.277116  1.839956
      ESP Fit Center  180 is at  -3.576047 -1.464537  1.839956
      ESP Fit Center  181 is at  -2.876583 -1.277116  1.839956
      ESP Fit Center  182 is at  -2.839205  1.713285  1.313424
      ESP Fit Center  183 is at  -3.576047  1.859852  1.313424
      ESP Fit Center  184 is at  -4.312889  1.713285  1.313424
      ESP Fit Center  185 is at  -4.937553  1.295898  1.313424
      ESP Fit Center  186 is at  -5.354941  0.671233  1.313424
      ESP Fit Center  187 is at  -5.501508 -0.065608  1.313424
      ESP Fit Center  188 is at  -5.354941 -0.802450  1.313424
      ESP Fit Center  189 is at  -4.937553 -1.427115  1.313424
      ESP Fit Center  190 is at  -4.312889 -1.844502  1.313424
      ESP Fit Center  191 is at  -3.576047 -1.991069  1.313424
      ESP Fit Center  192 is at  -2.839205 -1.844502  1.313424
      ESP Fit Center  193 is at  -3.020387  2.128643  0.649956
      ESP Fit Center  194 is at  -3.762967  2.190175  0.649956
      ESP Fit Center  195 is at  -4.485291  2.007258  0.649956
      ESP Fit Center  196 is at  -5.109084  1.599713  0.649956
      ESP Fit Center  197 is at  -5.566749  1.011705  0.649956
      ESP Fit Center  198 is at  -5.808690  0.306954  0.649956
      ESP Fit Center  199 is at  -5.808690 -0.438171  0.649956
      ESP Fit Center  200 is at  -5.566749 -1.142922  0.649956
      ESP Fit Center  201 is at  -5.109084 -1.730930  0.649956
      ESP Fit Center  202 is at  -4.485291 -2.138475  0.649956
      ESP Fit Center  203 is at  -3.762967 -2.321392  0.649956
      ESP Fit Center  204 is at  -3.020387 -2.259860  0.649956
      ESP Fit Center  205 is at  -2.338022 -1.960547  0.649956
      ESP Fit Center  206 is at  -2.706536  2.149871 -0.085505
      ESP Fit Center  207 is at  -3.398190  2.307737 -0.085505
      ESP Fit Center  208 is at  -4.105647  2.254720 -0.085505
      ESP Fit Center  209 is at  -4.766047  1.995532 -0.085505
      ESP Fit Center  210 is at  -5.320711  1.553203 -0.085505
      ESP Fit Center  211 is at  -5.720353  0.967035 -0.085505
      ESP Fit Center  212 is at  -5.929465  0.289112 -0.085505
      ESP Fit Center  213 is at  -5.929465 -0.420329 -0.085505
      ESP Fit Center  214 is at  -5.720353 -1.098252 -0.085505
      ESP Fit Center  215 is at  -5.320711 -1.684420 -0.085505
      ESP Fit Center  216 is at  -4.766047 -2.126749 -0.085505
      ESP Fit Center  217 is at  -4.105647 -2.385937 -0.085505
      ESP Fit Center  218 is at  -3.398190 -2.438953 -0.085505
      ESP Fit Center  219 is at  -2.706536 -2.281088 -0.085505
      ESP Fit Center  220 is at  -3.020387  2.128643 -0.820965
      ESP Fit Center  221 is at  -3.762967  2.190175 -0.820965
      ESP Fit Center  222 is at  -4.485291  2.007258 -0.820965
      ESP Fit Center  223 is at  -5.109084  1.599713 -0.820965
      ESP Fit Center  224 is at  -5.566749  1.011705 -0.820965
      ESP Fit Center  225 is at  -5.808690  0.306954 -0.820965
      ESP Fit Center  226 is at  -5.808690 -0.438171 -0.820965
      ESP Fit Center  227 is at  -5.566749 -1.142922 -0.820965
      ESP Fit Center  228 is at  -5.109084 -1.730930 -0.820965
      ESP Fit Center  229 is at  -4.485291 -2.138475 -0.820965
      ESP Fit Center  230 is at  -3.762967 -2.321392 -0.820965
      ESP Fit Center  231 is at  -3.020387 -2.259860 -0.820965
      ESP Fit Center  232 is at  -3.576047  1.859852 -1.484434
      ESP Fit Center  233 is at  -4.312889  1.713285 -1.484434
      ESP Fit Center  234 is at  -4.937553  1.295898 -1.484434
      ESP Fit Center  235 is at  -5.354941  0.671233 -1.484434
      ESP Fit Center  236 is at  -5.501508 -0.065608 -1.484434
      ESP Fit Center  237 is at  -5.354941 -0.802450 -1.484434
      ESP Fit Center  238 is at  -4.937553 -1.427115 -1.484434
      ESP Fit Center  239 is at  -4.312889 -1.844502 -1.484434
      ESP Fit Center  240 is at  -3.576047 -1.991069 -1.484434
      ESP Fit Center  241 is at  -3.576047  1.333320 -2.010965
      ESP Fit Center  242 is at  -4.275512  1.145900 -2.010965
      ESP Fit Center  243 is at  -4.787555  0.633856 -2.010965
      ESP Fit Center  244 is at  -4.974976 -0.065608 -2.010965
      ESP Fit Center  245 is at  -4.787555 -0.765073 -2.010965
      ESP Fit Center  246 is at  -4.275512 -1.277116 -2.010965
      ESP Fit Center  247 is at  -3.576047 -1.464537 -2.010965
      ESP Fit Center  248 is at  -3.208317  0.571319 -2.349019
      ESP Fit Center  249 is at  -3.943777  0.571319 -2.349019
      ESP Fit Center  250 is at  -4.311508 -0.065608 -2.349019
      ESP Fit Center  251 is at  -3.943777 -0.702536 -2.349019
      ESP Fit Center  252 is at  -3.208317 -0.702536 -2.349019
      ESP Fit Center  253 is at  -3.576047 -0.065608 -2.465505
      ESP Fit Center  254 is at   2.147587  4.233221 -0.562111
      ESP Fit Center  255 is at   1.414590  4.511210 -0.562111
      ESP Fit Center  256 is at   0.636366  4.416716 -0.562111
      ESP Fit Center  257 is at   2.855044  2.885273 -1.309781
      ESP Fit Center  258 is at   2.667435  3.646433 -1.309781
      ESP Fit Center  259 is at   2.147587  4.233221 -1.309781
      ESP Fit Center  260 is at   1.414590  4.511210 -1.309781
      ESP Fit Center  261 is at   0.636366  4.416716 -1.309781
      ESP Fit Center  262 is at  -0.008804  3.971388 -1.309781
      ESP Fit Center  263 is at  -0.373120  3.277243 -1.309781
      ESP Fit Center  264 is at   2.530642  2.885273 -1.983409
      ESP Fit Center  265 is at   2.279791  3.657315 -1.983409
      ESP Fit Center  266 is at   1.623052  4.134464 -1.983409
      ESP Fit Center  267 is at   0.811279  4.134464 -1.983409
      ESP Fit Center  268 is at   0.154540  3.657315 -1.983409
      ESP Fit Center  269 is at  -0.096311  2.885273 -1.983409
      ESP Fit Center  270 is at   0.154540  2.113231 -1.983409
      ESP Fit Center  271 is at   0.811279  1.636082 -1.983409
      ESP Fit Center  272 is at   1.623052  1.636082 -1.983409
      ESP Fit Center  273 is at   2.279791  2.113231 -1.983409
      ESP Fit Center  274 is at   1.946090  2.885273 -2.449574
      ESP Fit Center  275 is at   1.581628  3.516540 -2.449574
      ESP Fit Center  276 is at   0.852703  3.516540 -2.449574
      ESP Fit Center  277 is at   0.488241  2.885273 -2.449574
      ESP Fit Center  278 is at   0.852703  2.254006 -2.449574
      ESP Fit Center  279 is at   1.581628  2.254006 -2.449574
      ESP Fit Center  280 is at   1.217165  2.885273 -2.615946
      ESP Fit Center  281 is at   0.104144  2.660290  2.105306
      ESP Fit Center  282 is at   0.468606  3.291557  1.938934
      ESP Fit Center  283 is at  -0.260319  3.291557  1.938934
      ESP Fit Center  284 is at  -0.624781  2.660290  1.938934
      ESP Fit Center  285 is at   0.510030  3.909481  1.472769
      ESP Fit Center  286 is at  -0.301743  3.909481  1.472769
      ESP Fit Center  287 is at  -0.958482  3.432332  1.472769
      ESP Fit Center  288 is at  -1.209333  2.660290  1.472769
      ESP Fit Center  289 is at   0.301568  4.286227  0.799141
      ESP Fit Center  290 is at  -0.476656  4.191733  0.799141
      ESP Fit Center  291 is at  -1.121826  3.746405  0.799141
      ESP Fit Center  292 is at  -1.486142  3.052260  0.799141
      ESP Fit Center  293 is at  -0.476656  4.191733  0.051471
      ESP Fit Center  294 is at  -1.121826  3.746405  0.051471
      ESP Fit Center  295 is at  -1.486142  3.052260  0.051471
      ESP Fit Center  296 is at  -1.486142  2.268320  0.051471
      ESP Fit Center  297 is at  -0.301743  3.909481 -0.622157
      ESP Fit Center  298 is at  -0.958482  3.432332 -0.622157
      ESP Fit Center  299 is at  -1.209333  2.660290 -0.622157
      ESP Fit Center  300 is at   1.828368  2.967475  2.395309
      ESP Fit Center  301 is at   2.557293  2.967475  2.228937
      ESP Fit Center  302 is at   2.192831  3.598742  2.228937
      ESP Fit Center  303 is at   1.463906  3.598742  2.228937
      ESP Fit Center  304 is at   1.099444  2.967475  2.228937
      ESP Fit Center  305 is at   1.463906  2.336208  2.228937
      ESP Fit Center  306 is at   2.192831  2.336208  2.228937
      ESP Fit Center  307 is at   3.141845  2.967475  1.762772
      ESP Fit Center  308 is at   2.890994  3.739518  1.762772
      ESP Fit Center  309 is at   2.234255  4.216666  1.762772
      ESP Fit Center  310 is at   1.422482  4.216666  1.762772
      ESP Fit Center  311 is at   0.765743  3.739518  1.762772
      ESP Fit Center  312 is at   2.890994  2.195433  1.762772
      ESP Fit Center  313 is at   3.466247  2.967475  1.089144
      ESP Fit Center  314 is at   3.278638  3.728635  1.089144
      ESP Fit Center  315 is at   2.758790  4.315423  1.089144
      ESP Fit Center  316 is at   2.025793  4.593412  1.089144
      ESP Fit Center  317 is at   1.247569  4.498919  1.089144
      ESP Fit Center  318 is at   3.278638  2.206315  1.089144
      ESP Fit Center  319 is at   3.466247  2.967475  0.341474
      ESP Fit Center  320 is at   3.278638  3.728635  0.341474
      ESP Fit Center  321 is at   2.758790  4.315423  0.341474
      ESP Fit Center  322 is at   2.025793  4.593412  0.341474
      ESP Fit Center  323 is at   3.141845  2.967475 -0.332154
      ESP Fit Center  324 is at   2.890994  3.739518 -0.332154
      ESP Fit Center  325 is at   2.234255  4.216666 -0.332154
      ESP Fit Center  326 is at   4.455628 -1.235165  0.974272
      ESP Fit Center  327 is at   4.091165 -1.866432  0.974272
      ESP Fit Center  328 is at   5.040180 -1.235165  0.508107
      ESP Fit Center  329 is at   4.789328 -0.463122  0.508107
      ESP Fit Center  330 is at   4.132590 -2.484355  0.508107
      ESP Fit Center  331 is at   4.789328 -2.007207  0.508107
      ESP Fit Center  332 is at   5.364582 -1.235165 -0.165521
      ESP Fit Center  333 is at   5.176973 -0.474004 -0.165521
      ESP Fit Center  334 is at   3.924127 -2.861102 -0.165521
      ESP Fit Center  335 is at   4.657124 -2.583113 -0.165521
      ESP Fit Center  336 is at   5.176973 -1.996325 -0.165521
      ESP Fit Center  337 is at   5.364582 -1.235165 -0.913191
      ESP Fit Center  338 is at   5.176973 -0.474004 -0.913191
      ESP Fit Center  339 is at   4.657124  0.112783 -0.913191
      ESP Fit Center  340 is at   3.924127 -2.861102 -0.913191
      ESP Fit Center  341 is at   4.657124 -2.583113 -0.913191
      ESP Fit Center  342 is at   5.176973 -1.996325 -0.913191
      ESP Fit Center  343 is at   5.040180 -1.235165 -1.586819
      ESP Fit Center  344 is at   4.789328 -0.463122 -1.586819
      ESP Fit Center  345 is at   3.320816 -2.484355 -1.586819
      ESP Fit Center  346 is at   4.132590 -2.484355 -1.586819
      ESP Fit Center  347 is at   4.789328 -2.007207 -1.586819
      ESP Fit Center  348 is at   4.455628 -1.235165 -2.052984
      ESP Fit Center  349 is at   4.091165 -0.603897 -2.052984
      ESP Fit Center  350 is at   3.362241 -1.866432 -2.052984
      ESP Fit Center  351 is at   4.091165 -1.866432 -2.052984
      ESP Fit Center  352 is at   3.726703 -1.235165 -2.219356
      ESP Fit Center  353 is at  -1.167398 -0.755100  3.103696
      ESP Fit Center  354 is at  -0.438473 -0.755100  2.937324
      ESP Fit Center  355 is at  -0.802936 -0.123833  2.937324
      ESP Fit Center  356 is at  -1.531860 -0.123833  2.937324
      ESP Fit Center  357 is at  -1.896323 -0.755100  2.937324
      ESP Fit Center  358 is at  -1.531860 -1.386367  2.937324
      ESP Fit Center  359 is at  -0.802936 -1.386367  2.937324
      ESP Fit Center  360 is at   0.146079 -0.755100  2.471159
      ESP Fit Center  361 is at  -2.230023  0.016942  2.471159
      ESP Fit Center  362 is at  -2.480875 -0.755100  2.471159
      ESP Fit Center  363 is at  -2.230023 -1.527143  2.471159
      ESP Fit Center  364 is at  -1.573285 -2.004291  2.471159
      ESP Fit Center  365 is at  -0.761511 -2.004291  2.471159
      ESP Fit Center  366 is at  -0.104773 -1.527143  2.471159
      ESP Fit Center  367 is at  -2.393368 -1.841215  1.797531
      ESP Fit Center  368 is at  -1.748198 -2.286544  1.797531
      ESP Fit Center  369 is at  -0.969974 -2.381037  1.797531
      ESP Fit Center  370 is at  -2.393368 -1.841215  1.049861
      ESP Fit Center  371 is at  -1.748198 -2.286544  1.049861
      ESP Fit Center  372 is at  -0.969974 -2.381037  1.049861
      ESP Fit Center  373 is at  -1.136128  0.980349  2.839539
      ESP Fit Center  374 is at  -0.407204  0.980349  2.673167
      ESP Fit Center  375 is at  -0.771666  1.611616  2.673167
      ESP Fit Center  376 is at  -1.500591  1.611616  2.673167
      ESP Fit Center  377 is at  -1.865053  0.980349  2.673167
      ESP Fit Center  378 is at   0.177349  0.980349  2.207002
      ESP Fit Center  379 is at  -0.073503  1.752391  2.207002
      ESP Fit Center  380 is at  -0.730242  2.229540  2.207002
      ESP Fit Center  381 is at  -1.542015  2.229540  2.207002
      ESP Fit Center  382 is at  -2.198753  1.752391  2.207002
      ESP Fit Center  383 is at  -2.449605  0.980349  2.207002
      ESP Fit Center  384 is at  -1.716928  2.511792  1.533374
      ESP Fit Center  385 is at  -2.362098  2.066463  1.533374
      ESP Fit Center  386 is at  -1.716928  2.511792  0.785704
      ESP Fit Center  387 is at  -2.362098  2.066463  0.785704
      ESP Fit Center  388 is at  -1.542015  2.229540  0.112076
      ESP Fit Center  389 is at  -0.714114  1.983890 -0.901187
      ESP Fit Center  390 is at  -1.447111  2.261879 -0.901187
      ESP Fit Center  391 is at  -2.225335  2.167385 -0.901187
      ESP Fit Center  392 is at  -0.006656  0.635942 -1.648857
      ESP Fit Center  393 is at  -0.194266  1.397102 -1.648857
      ESP Fit Center  394 is at  -0.714114  1.983890 -1.648857
      ESP Fit Center  395 is at  -1.447111  2.261879 -1.648857
      ESP Fit Center  396 is at  -2.225335  2.167385 -1.648857
      ESP Fit Center  397 is at  -2.870505  1.722056 -1.648857
      ESP Fit Center  398 is at  -0.331058  0.635942 -2.322485
      ESP Fit Center  399 is at  -0.581910  1.407984 -2.322485
      ESP Fit Center  400 is at  -1.238649  1.885133 -2.322485
      ESP Fit Center  401 is at  -2.050422  1.885133 -2.322485
      ESP Fit Center  402 is at  -2.707160  1.407984 -2.322485
      ESP Fit Center  403 is at  -2.958012  0.635942 -2.322485
      ESP Fit Center  404 is at  -0.581910 -0.136101 -2.322485
      ESP Fit Center  405 is at  -0.915611  0.635942 -2.788650
      ESP Fit Center  406 is at  -1.280073  1.267209 -2.788650
      ESP Fit Center  407 is at  -2.008998  1.267209 -2.788650
      ESP Fit Center  408 is at  -2.373460  0.635942 -2.788650
      ESP Fit Center  409 is at  -2.008998  0.004674 -2.788650
      ESP Fit Center  410 is at  -1.280073  0.004674 -2.788650
      ESP Fit Center  411 is at  -1.644535  0.635942 -2.955022
      ESP Fit Center  412 is at  -2.073473 -2.371736  0.027825
      ESP Fit Center  413 is at  -1.261699 -2.371736  0.027825
      ESP Fit Center  414 is at  -2.248386 -2.653989 -0.645803
      ESP Fit Center  415 is at  -1.470162 -2.748482 -0.645803
      ESP Fit Center  416 is at  -2.893556 -2.208660 -1.393473
      ESP Fit Center  417 is at  -2.248386 -2.653989 -1.393473
      ESP Fit Center  418 is at  -1.470162 -2.748482 -1.393473
      ESP Fit Center  419 is at  -0.737165 -2.470493 -1.393473
      ESP Fit Center  420 is at  -0.354109 -1.122545 -2.067101
      ESP Fit Center  421 is at  -2.730211 -1.894588 -2.067101
      ESP Fit Center  422 is at  -2.073473 -2.371736 -2.067101
      ESP Fit Center  423 is at  -1.261699 -2.371736 -2.067101
      ESP Fit Center  424 is at  -0.604961 -1.894588 -2.067101
      ESP Fit Center  425 is at  -0.938661 -1.122545 -2.533266
      ESP Fit Center  426 is at  -2.396511 -1.122545 -2.533266
      ESP Fit Center  427 is at  -2.032048 -1.753813 -2.533266
      ESP Fit Center  428 is at  -1.303124 -1.753813 -2.533266
      ESP Fit Center  429 is at  -1.667586 -1.122545 -2.699638
      ESP Fit Center  430 is at   1.114472  2.449890  2.433432
      ESP Fit Center  431 is at   0.748545  3.083694  2.317518
      ESP Fit Center  432 is at   0.382618  2.449890  2.317518
      ESP Fit Center  433 is at   0.748545  1.816086  2.317518
      ESP Fit Center  434 is at   1.480398  1.816086  2.317518
      ESP Fit Center  435 is at   0.928469  4.694611  0.796958
      ESP Fit Center  436 is at   1.114472  4.818218  0.065104
      ESP Fit Center  437 is at   0.382618  4.702304  0.065104
      ESP Fit Center  438 is at   3.244843  3.181248 -0.666750
      ESP Fit Center  439 is at   2.891943  3.833351 -0.666750
      ESP Fit Center  440 is at   0.209687  4.512591 -0.666750
      ESP Fit Center  441 is at  -0.655698  3.183118 -1.326964
      ESP Fit Center  442 is at  -0.801546  2.449890 -1.326964
      ESP Fit Center  443 is at  -0.221208  2.057699 -1.850914
      ESP Fit Center  444 is at   1.412588  0.977778  2.402075
      ESP Fit Center  445 is at   2.144441  0.977778  2.286161
      ESP Fit Center  446 is at   1.778515  1.611582  2.286161
      ESP Fit Center  447 is at   1.046661  1.611582  2.286161
      ESP Fit Center  448 is at   2.583670  1.730387  1.949765
      ESP Fit Center  449 is at   0.076908  1.369969 -1.882271
      ESP Fit Center  450 is at   0.680734  0.977778 -2.218667
      ESP Fit Center  451 is at   1.046661  0.343974 -2.218667
      ESP Fit Center  452 is at   1.412588  0.977778 -2.334581
      ESP Fit Center  453 is at   0.538253 -0.044993  2.685072
      ESP Fit Center  454 is at   1.270106 -0.044993  2.569158
      ESP Fit Center  455 is at   0.904180  0.588811  2.569158
      ESP Fit Center  456 is at   0.538253 -0.044993 -2.051584
      ESP Fit Center  457 is at   1.364551 -1.578298  2.895824
      ESP Fit Center  458 is at   2.079681 -1.578298  2.801675
      ESP Fit Center  459 is at   1.722116 -0.958977  2.801675
      ESP Fit Center  460 is at   1.006986 -0.958977  2.801675
      ESP Fit Center  461 is at   0.649421 -1.578298  2.801675
      ESP Fit Center  462 is at   1.006986 -2.197619  2.801675
      ESP Fit Center  463 is at   1.722116 -2.197619  2.801675
      ESP Fit Center  464 is at   2.746076 -1.578298  2.525645
      ESP Fit Center  465 is at   2.560987 -0.887536  2.525645
      ESP Fit Center  466 is at   2.055313 -0.381862  2.525645
      ESP Fit Center  467 is at   0.168115 -2.269060  2.525645
      ESP Fit Center  468 is at   0.673789 -2.774733  2.525645
      ESP Fit Center  469 is at   1.364551 -2.959823  2.525645
      ESP Fit Center  470 is at   2.055313 -2.774733  2.525645
      ESP Fit Center  471 is at   2.560987 -2.269060  2.525645
      ESP Fit Center  472 is at   3.318322 -1.578298  2.086545
      ESP Fit Center  473 is at   3.169600 -0.830622  2.086545
      ESP Fit Center  474 is at   2.746076 -0.196773  2.086545
      ESP Fit Center  475 is at  -0.016974 -2.959823  2.086545
      ESP Fit Center  476 is at   0.616875 -3.383347  2.086545
      ESP Fit Center  477 is at   1.364551 -3.532069  2.086545
      ESP Fit Center  478 is at   2.112227 -3.383347  2.086545
      ESP Fit Center  479 is at   2.746076 -2.959823  2.086545
      ESP Fit Center  480 is at   3.169600 -2.325974  2.086545
      ESP Fit Center  481 is at  -0.571322 -2.984792  1.514299
      ESP Fit Center  482 is at  -0.041943 -3.514171  1.514299
      ESP Fit Center  483 is at   0.625113 -3.854054  1.514299
      ESP Fit Center  484 is at   1.364551 -3.971169  1.514299
      ESP Fit Center  485 is at   2.103989 -3.854054  1.514299
      ESP Fit Center  486 is at   2.771045 -3.514171  1.514299
      ESP Fit Center  487 is at   3.300424 -2.984792  1.514299
      ESP Fit Center  488 is at   3.640307 -2.317736  1.514299
      ESP Fit Center  489 is at  -1.083395 -2.641591  0.847904
      ESP Fit Center  490 is at  -0.705746 -3.262609  0.847904
      ESP Fit Center  491 is at  -0.174552 -3.758710  0.847904
      ESP Fit Center  492 is at   0.470791 -4.093099  0.847904
      ESP Fit Center  493 is at   1.182419 -4.240977  0.847904
      ESP Fit Center  494 is at   1.907555 -4.191376  0.847904
      ESP Fit Center  495 is at   2.592419 -3.947976  0.847904
      ESP Fit Center  496 is at   3.186218 -3.528827  0.847904
      ESP Fit Center  497 is at   3.644912 -2.965016  0.847904
      ESP Fit Center  498 is at  -1.028320 -2.959823  0.132774
      ESP Fit Center  499 is at  -0.589220 -3.532069  0.132774
      ESP Fit Center  500 is at  -0.016974 -3.971169  0.132774
      ESP Fit Center  501 is at   0.649421 -4.247199  0.132774
      ESP Fit Center  502 is at   1.364551 -4.341347  0.132774
      ESP Fit Center  503 is at   2.079681 -4.247199  0.132774
      ESP Fit Center  504 is at   2.746076 -3.971169  0.132774
      ESP Fit Center  505 is at   3.318322 -3.532069  0.132774
      ESP Fit Center  506 is at  -0.705746 -3.262609 -0.582356
      ESP Fit Center  507 is at  -0.174552 -3.758710 -0.582356
      ESP Fit Center  508 is at   0.470791 -4.093099 -0.582356
      ESP Fit Center  509 is at   1.182419 -4.240977 -0.582356
      ESP Fit Center  510 is at   1.907555 -4.191376 -0.582356
      ESP Fit Center  511 is at   2.592419 -3.947976 -0.582356
      ESP Fit Center  512 is at   3.186218 -3.528827 -0.582356
      ESP Fit Center  513 is at  -0.571322 -2.984792 -1.248751
      ESP Fit Center  514 is at  -0.041943 -3.514171 -1.248751
      ESP Fit Center  515 is at   0.625113 -3.854054 -1.248751
      ESP Fit Center  516 is at   1.364551 -3.971169 -1.248751
      ESP Fit Center  517 is at   2.103989 -3.854054 -1.248751
      ESP Fit Center  518 is at   2.771045 -3.514171 -1.248751
      ESP Fit Center  519 is at   3.300424 -2.984792 -1.248751
      ESP Fit Center  520 is at  -0.440498 -2.325974 -1.820997
      ESP Fit Center  521 is at  -0.016974 -2.959823 -1.820997
      ESP Fit Center  522 is at   0.616875 -3.383347 -1.820997
      ESP Fit Center  523 is at   1.364551 -3.532069 -1.820997
      ESP Fit Center  524 is at   2.112227 -3.383347 -1.820997
      ESP Fit Center  525 is at   2.746076 -2.959823 -1.820997
      ESP Fit Center  526 is at   1.364551 -0.196773 -2.260097
      ESP Fit Center  527 is at   0.673789 -0.381862 -2.260097
      ESP Fit Center  528 is at   0.168115 -0.887536 -2.260097
      ESP Fit Center  529 is at  -0.016974 -1.578298 -2.260097
      ESP Fit Center  530 is at   0.168115 -2.269060 -2.260097
      ESP Fit Center  531 is at   0.673789 -2.774733 -2.260097
      ESP Fit Center  532 is at   1.364551 -2.959823 -2.260097
      ESP Fit Center  533 is at   2.055313 -2.774733 -2.260097
      ESP Fit Center  534 is at   2.560987 -2.269060 -2.260097
      ESP Fit Center  535 is at   2.079681 -1.578298 -2.536127
      ESP Fit Center  536 is at   1.722116 -0.958977 -2.536127
      ESP Fit Center  537 is at   1.006986 -0.958977 -2.536127
      ESP Fit Center  538 is at   0.649421 -1.578298 -2.536127
      ESP Fit Center  539 is at   1.006986 -2.197619 -2.536127
      ESP Fit Center  540 is at   1.722116 -2.197619 -2.536127
      ESP Fit Center  541 is at   1.364551 -1.578298 -2.630275
      ESP Fit Center  542 is at   3.542484 -0.705662  1.949393
      ESP Fit Center  543 is at   3.176557 -0.071858  1.949393
      ESP Fit Center  544 is at   4.202698 -0.705662  1.612997
      ESP Fit Center  545 is at   3.981712  0.046947  1.612997
      ESP Fit Center  546 is at   3.981712 -1.458271  1.612997
      ESP Fit Center  547 is at   4.726648 -0.705662  1.089047
      ESP Fit Center  548 is at   4.580799  0.027567  1.089047
      ESP Fit Center  549 is at   4.941002  0.025696  0.428833
      ESP Fit Center  550 is at   4.580799  0.027567 -1.695089
      ESP Fit Center  551 is at   3.542484 -0.705662 -2.555435
      ESP Fit Center  552 is at   3.176557 -0.071858 -2.555435
      ESP Fit Center  553 is at   2.078776 -0.705662 -2.555435
      ESP Fit Center  554 is at   2.444703 -1.339466 -2.555435
      ESP Fit Center  555 is at   3.176557 -1.339466 -2.555435
      ESP Fit Center  556 is at   2.810630 -0.705662 -2.671349
      ESP Fit Center  557 is at   2.694969  0.586553  2.057263
      ESP Fit Center  558 is at   3.426822  0.586553  1.941349
      ESP Fit Center  559 is at   3.060896  1.220357  1.941349
      ESP Fit Center  560 is at   4.087037  0.586553  1.604953
      ESP Fit Center  561 is at   3.866051  1.339162  1.604953
      ESP Fit Center  562 is at   3.273255  1.852823  1.604953
      ESP Fit Center  563 is at   4.610986  0.586553  1.081003
      ESP Fit Center  564 is at   4.465138  1.319781  1.081003
      ESP Fit Center  565 is at   4.049798  1.941382  1.081003
      ESP Fit Center  566 is at   4.947383  0.586553  0.420789
      ESP Fit Center  567 is at   4.825341  1.317911  0.420789
      ESP Fit Center  568 is at   4.472440  1.970015  0.420789
      ESP Fit Center  569 is at   3.926922  2.472199  0.420789
      ESP Fit Center  570 is at   5.063297  0.586553 -0.311065
      ESP Fit Center  571 is at   4.947383  1.318407 -0.311065
      ESP Fit Center  572 is at   4.610986  1.978622 -0.311065
      ESP Fit Center  573 is at   4.087037  2.502571 -0.311065
      ESP Fit Center  574 is at   3.426822  2.838967 -0.311065
      ESP Fit Center  575 is at   4.947383  0.586553 -1.042919
      ESP Fit Center  576 is at   4.825341  1.317911 -1.042919
      ESP Fit Center  577 is at   4.472440  1.970015 -1.042919
      ESP Fit Center  578 is at   3.926922  2.472199 -1.042919
      ESP Fit Center  579 is at   3.247904  2.770044 -1.042919
      ESP Fit Center  580 is at   4.610986  0.586553 -1.703133
      ESP Fit Center  581 is at   4.465138  1.319781 -1.703133
      ESP Fit Center  582 is at   4.049798  1.941382 -1.703133
      ESP Fit Center  583 is at   3.428197  2.356723 -1.703133
      ESP Fit Center  584 is at   4.087037  0.586553 -2.227083
      ESP Fit Center  585 is at   3.866051  1.339162 -2.227083
      ESP Fit Center  586 is at   3.273255  1.852823 -2.227083
      ESP Fit Center  587 is at   2.496857  1.964452 -2.227083
      ESP Fit Center  588 is at   1.359289  0.194362 -2.227083
      ESP Fit Center  589 is at   3.426822  0.586553 -2.563479
      ESP Fit Center  590 is at   3.060896  1.220357 -2.563479
      ESP Fit Center  591 is at   2.329042  1.220357 -2.563479
      ESP Fit Center  592 is at   1.963115  0.586553 -2.563479
      ESP Fit Center  593 is at   2.329042 -0.047251 -2.563479
      ESP Fit Center  594 is at   2.694969  0.586553 -2.679393
      ESP Fit Center  595 is at  -0.186724  0.016963  2.939966
      ESP Fit Center  596 is at  -0.552650  0.650767  2.939966
      ESP Fit Center  597 is at   0.252505  0.769572  2.603570
      ESP Fit Center  598 is at  -2.254257  0.409154  2.603570
      ESP Fit Center  599 is at  -2.550140 -0.153023 -2.793747
      ESP Fit Center  600 is at  -3.576047 -0.065608  2.598600
      ESP Fit Center  601 is at  -2.819847 -0.065608  2.489875
      ESP Fit Center  602 is at  -3.197947  0.589280  2.489875
      ESP Fit Center  603 is at  -3.954147  0.589280  2.489875
      ESP Fit Center  604 is at  -4.332247 -0.065608  2.489875
      ESP Fit Center  605 is at  -3.954147 -0.720497  2.489875
      ESP Fit Center  606 is at  -3.197947 -0.720497  2.489875
      ESP Fit Center  607 is at  -2.850479  1.191113  2.172508
      ESP Fit Center  608 is at  -3.576047  1.385528  2.172508
      ESP Fit Center  609 is at  -4.301616  1.191113  2.172508
      ESP Fit Center  610 is at  -4.832769  0.659960  2.172508
      ESP Fit Center  611 is at  -5.027184 -0.065608  2.172508
      ESP Fit Center  612 is at  -4.832769 -0.791177  2.172508
      ESP Fit Center  613 is at  -4.301616 -1.322330  2.172508
      ESP Fit Center  614 is at  -3.576047 -1.516745  2.172508
      ESP Fit Center  615 is at  -2.850479 -1.322330  2.172508
      ESP Fit Center  616 is at  -3.388880  1.954250  1.672210
      ESP Fit Center  617 is at  -4.131176  1.885466  1.672210
      ESP Fit Center  618 is at  -4.798498  1.553179  1.672210
      ESP Fit Center  619 is at  -5.300722  1.002265  1.672210
      ESP Fit Center  620 is at  -5.570019  0.307130  1.672210
      ESP Fit Center  621 is at  -5.570019 -0.438346  1.672210
      ESP Fit Center  622 is at  -5.300722 -1.133482  1.672210
      ESP Fit Center  623 is at  -4.798498 -1.684395  1.672210
      ESP Fit Center  624 is at  -4.131176 -2.016683  1.672210
      ESP Fit Center  625 is at  -3.388880 -2.085467  1.672210
      ESP Fit Center  626 is at  -2.671862 -1.881457  1.672210
      ESP Fit Center  627 is at  -2.821567  2.256442  1.029513
      ESP Fit Center  628 is at  -3.576047  2.375940  1.029513
      ESP Fit Center  629 is at  -4.330527  2.256442  1.029513
      ESP Fit Center  630 is at  -5.011153  1.909645  1.029513
      ESP Fit Center  631 is at  -5.551301  1.369497  1.029513
      ESP Fit Center  632 is at  -5.898097  0.688871  1.029513
      ESP Fit Center  633 is at  -6.017595 -0.065608  1.029513
      ESP Fit Center  634 is at  -5.898097 -0.820088  1.029513
      ESP Fit Center  635 is at  -5.551301 -1.500714  1.029513
      ESP Fit Center  636 is at  -5.011153 -2.040862  1.029513
      ESP Fit Center  637 is at  -4.330527 -2.387659  1.029513
      ESP Fit Center  638 is at  -3.576047 -2.507156  1.029513
      ESP Fit Center  639 is at  -2.821567 -2.387659  1.029513
      ESP Fit Center  640 is at  -2.472379  2.351088  0.296483
      ESP Fit Center  641 is at  -3.197947  2.564134  0.296483
      ESP Fit Center  642 is at  -3.954147  2.564134  0.296483
      ESP Fit Center  643 is at  -4.679716  2.351088  0.296483
      ESP Fit Center  644 is at  -5.315871  1.942256  0.296483
      ESP Fit Center  645 is at  -5.811077  1.370758  0.296483
      ESP Fit Center  646 is at  -6.125214  0.682894  0.296483
      ESP Fit Center  647 is at  -6.232832 -0.065608  0.296483
      ESP Fit Center  648 is at  -6.125214 -0.814111  0.296483
      ESP Fit Center  649 is at  -5.811077 -1.501975  0.296483
      ESP Fit Center  650 is at  -5.315871 -2.073473  0.296483
      ESP Fit Center  651 is at  -4.679716 -2.482305  0.296483
      ESP Fit Center  652 is at  -3.954147 -2.695351  0.296483
      ESP Fit Center  653 is at  -3.197947 -2.695351  0.296483
      ESP Fit Center  654 is at  -2.472379 -2.482305  0.296483
      ESP Fit Center  655 is at  -2.472379  2.351088 -0.467493
      ESP Fit Center  656 is at  -3.197947  2.564134 -0.467493
      ESP Fit Center  657 is at  -3.954147  2.564134 -0.467493
      ESP Fit Center  658 is at  -4.679716  2.351088 -0.467493
      ESP Fit Center  659 is at  -5.315871  1.942256 -0.467493
      ESP Fit Center  660 is at  -5.811077  1.370758 -0.467493
      ESP Fit Center  661 is at  -6.125214  0.682894 -0.467493
      ESP Fit Center  662 is at  -6.232832 -0.065608 -0.467493
      ESP Fit Center  663 is at  -6.125214 -0.814111 -0.467493
      ESP Fit Center  664 is at  -5.811077 -1.501975 -0.467493
      ESP Fit Center  665 is at  -5.315871 -2.073473 -0.467493
      ESP Fit Center  666 is at  -4.679716 -2.482305 -0.467493
      ESP Fit Center  667 is at  -3.954147 -2.695351 -0.467493
      ESP Fit Center  668 is at  -3.197947 -2.695351 -0.467493
      ESP Fit Center  669 is at  -2.821567  2.256442 -1.200522
      ESP Fit Center  670 is at  -3.576047  2.375940 -1.200522
      ESP Fit Center  671 is at  -4.330527  2.256442 -1.200522
      ESP Fit Center  672 is at  -5.011153  1.909645 -1.200522
      ESP Fit Center  673 is at  -5.551301  1.369497 -1.200522
      ESP Fit Center  674 is at  -5.898097  0.688871 -1.200522
      ESP Fit Center  675 is at  -6.017595 -0.065608 -1.200522
      ESP Fit Center  676 is at  -5.898097 -0.820088 -1.200522
      ESP Fit Center  677 is at  -5.551301 -1.500714 -1.200522
      ESP Fit Center  678 is at  -5.011153 -2.040862 -1.200522
      ESP Fit Center  679 is at  -4.330527 -2.387659 -1.200522
      ESP Fit Center  680 is at  -3.576047 -2.507156 -1.200522
      ESP Fit Center  681 is at  -3.388880  1.954250 -1.843220
      ESP Fit Center  682 is at  -4.131176  1.885466 -1.843220
      ESP Fit Center  683 is at  -4.798498  1.553179 -1.843220
      ESP Fit Center  684 is at  -5.300722  1.002265 -1.843220
      ESP Fit Center  685 is at  -5.570019  0.307130 -1.843220
      ESP Fit Center  686 is at  -5.570019 -0.438346 -1.843220
      ESP Fit Center  687 is at  -5.300722 -1.133482 -1.843220
      ESP Fit Center  688 is at  -4.798498 -1.684395 -1.843220
      ESP Fit Center  689 is at  -4.131176 -2.016683 -1.843220
      ESP Fit Center  690 is at  -3.388880 -2.085467 -1.843220
      ESP Fit Center  691 is at  -3.576047  1.385528 -2.343518
      ESP Fit Center  692 is at  -4.301616  1.191113 -2.343518
      ESP Fit Center  693 is at  -4.832769  0.659960 -2.343518
      ESP Fit Center  694 is at  -5.027184 -0.065608 -2.343518
      ESP Fit Center  695 is at  -4.832769 -0.791177 -2.343518
      ESP Fit Center  696 is at  -4.301616 -1.322330 -2.343518
      ESP Fit Center  697 is at  -3.576047 -1.516745 -2.343518
      ESP Fit Center  698 is at  -3.197947  0.589280 -2.660885
      ESP Fit Center  699 is at  -3.954147  0.589280 -2.660885
      ESP Fit Center  700 is at  -4.332247 -0.065608 -2.660885
      ESP Fit Center  701 is at  -3.954147 -0.720497 -2.660885
      ESP Fit Center  702 is at  -3.197947 -0.720497 -2.660885
      ESP Fit Center  703 is at  -3.576047 -0.065608 -2.769610
      ESP Fit Center  704 is at   2.967605  3.610329 -0.935946
      ESP Fit Center  705 is at   2.556894  4.225002 -0.935946
      ESP Fit Center  706 is at   1.942221  4.635713 -0.935946
      ESP Fit Center  707 is at   1.217165  4.779936 -0.935946
      ESP Fit Center  708 is at   0.492110  4.635713 -0.935946
      ESP Fit Center  709 is at  -0.122563  4.225002 -0.935946
      ESP Fit Center  710 is at   2.967605  2.885273 -1.661002
      ESP Fit Center  711 is at   2.794257  3.644761 -1.661002
      ESP Fit Center  712 is at   2.308547  4.253822 -1.661002
      ESP Fit Center  713 is at   1.606675  4.591826 -1.661002
      ESP Fit Center  714 is at   0.827656  4.591826 -1.661002
      ESP Fit Center  715 is at   0.125784  4.253822 -1.661002
      ESP Fit Center  716 is at  -0.359926  3.644761 -1.661002
      ESP Fit Center  717 is at  -0.533274  2.885273 -1.661002
      ESP Fit Center  718 is at   2.556894  2.885273 -2.275675
      ESP Fit Center  719 is at   2.344217  3.609585 -2.275675
      ESP Fit Center  720 is at   1.773709  4.103933 -2.275675
      ESP Fit Center  721 is at   1.026502  4.211365 -2.275675
      ESP Fit Center  722 is at   0.339830  3.897772 -2.275675
      ESP Fit Center  723 is at  -0.068295  3.262718 -2.275675
      ESP Fit Center  724 is at  -0.068295  2.507828 -2.275675
      ESP Fit Center  725 is at   0.339830  1.872774 -2.275675
      ESP Fit Center  726 is at   1.026502  1.559181 -2.275675
      ESP Fit Center  727 is at   1.773709  1.666613 -2.275675
      ESP Fit Center  728 is at   2.344217  2.160961 -2.275675
      ESP Fit Center  729 is at   1.942221  2.885273 -2.686386
      ESP Fit Center  730 is at   1.579693  3.513190 -2.686386
      ESP Fit Center  731 is at   0.854638  3.513190 -2.686386
      ESP Fit Center  732 is at   0.492110  2.885273 -2.686386
      ESP Fit Center  733 is at   0.854638  2.257356 -2.686386
      ESP Fit Center  734 is at   1.579693  2.257356 -2.686386
      ESP Fit Center  735 is at   1.217165  2.885273 -2.830608
      ESP Fit Center  736 is at   0.104144  2.660290  2.319969
      ESP Fit Center  737 is at  -0.258384  3.288207  2.175746
      ESP Fit Center  738 is at  -0.620912  2.660290  2.175746
      ESP Fit Center  739 is at  -0.086520  3.986382  1.765035
      ESP Fit Center  740 is at  -0.773192  3.672789  1.765035
      ESP Fit Center  741 is at  -1.181317  3.037735  1.765035
      ESP Fit Center  742 is at  -0.285366  4.366843  1.150362
      ESP Fit Center  743 is at  -0.987238  4.028839  1.150362
      ESP Fit Center  744 is at  -1.472948  3.419777  1.150362
      ESP Fit Center  745 is at  -0.620912  4.410730  0.425306
      ESP Fit Center  746 is at  -1.235585  4.000019  0.425306
      ESP Fit Center  747 is at  -1.646296  3.385346  0.425306
      ESP Fit Center  748 is at  -1.790519  2.660290  0.425306
      ESP Fit Center  749 is at  -0.285366  4.366843 -0.299750
      ESP Fit Center  750 is at  -0.987238  4.028839 -0.299750
      ESP Fit Center  751 is at  -1.472948  3.419777 -0.299750
      ESP Fit Center  752 is at  -1.646296  2.660290 -0.299750
      ESP Fit Center  753 is at  -0.773192  3.672789 -0.914423
      ESP Fit Center  754 is at  -1.181317  3.037735 -0.914423
      ESP Fit Center  755 is at   1.828368  2.967475  2.609972
      ESP Fit Center  756 is at   2.553424  2.967475  2.465749
      ESP Fit Center  757 is at   2.190896  3.595392  2.465749
      ESP Fit Center  758 is at   1.465841  3.595392  2.465749
      ESP Fit Center  759 is at   1.103313  2.967475  2.465749
      ESP Fit Center  760 is at   1.465841  2.339558  2.465749
      ESP Fit Center  761 is at   2.190896  2.339558  2.465749
      ESP Fit Center  762 is at   3.168097  2.967475  2.055038
      ESP Fit Center  763 is at   2.955420  3.691787  2.055038
      ESP Fit Center  764 is at   2.384912  4.186135  2.055038
      ESP Fit Center  765 is at   1.637705  4.293567  2.055038
      ESP Fit Center  766 is at   0.951033  3.979975  2.055038
      ESP Fit Center  767 is at   2.384912  1.748815  2.055038
      ESP Fit Center  768 is at   2.955420  2.243163  2.055038
      ESP Fit Center  769 is at   3.578808  2.967475  1.440365
      ESP Fit Center  770 is at   3.405460  3.726963  1.440365
      ESP Fit Center  771 is at   2.919750  4.336024  1.440365
      ESP Fit Center  772 is at   2.217878  4.674028  1.440365
      ESP Fit Center  773 is at   1.438859  4.674028  1.440365
      ESP Fit Center  774 is at   3.405460  2.207988  1.440365
      ESP Fit Center  775 is at   3.723031  2.967475  0.715309
      ESP Fit Center  776 is at   3.578808  3.692531  0.715309
      ESP Fit Center  777 is at   3.168097  4.307204  0.715309
      ESP Fit Center  778 is at   2.553424  4.717915  0.715309
      ESP Fit Center  779 is at   1.828368  4.862138  0.715309
      ESP Fit Center  780 is at   3.578808  2.967475 -0.009747
      ESP Fit Center  781 is at   3.405460  3.726963 -0.009747
[...]
 1974 Fit       0.006796
 1975 Fit       0.008370
 1976 Fit       0.002134
 1977 Fit       0.006698
 1978 Fit       0.009135
 1979 Fit       0.008658
 1980 Fit       0.007212
 1981 Fit       0.008331
 1982 Fit       0.007365
 1983 Fit       0.005532
 1984 Fit       0.008374
 1985 Fit       0.010034
 1986 Fit       0.009398
 1987 Fit       0.006604
 1988 Fit       0.003089
 1989 Fit       0.011970
 1990 Fit       0.009302
 1991 Fit       0.005102
 1992 Fit       0.010077
 1993 Fit       0.004492
 1994 Fit       0.006501
 1995 Fit       0.012932
 1996 Fit       0.008223
 1997 Fit       0.013446
 1998 Fit       0.011087
 1999 Fit       0.007093
 2000 Fit       0.007147
 2001 Fit       0.009896
 2002 Fit       0.012408
 2003 Fit       0.012663
 2004 Fit       0.011156
 2005 Fit       0.008202
 2006 Fit       0.003919
 2007 Fit       0.009447
 2008 Fit       0.010827
 2009 Fit       0.011385
 2010 Fit       0.009952
 2011 Fit       0.006967
 2012 Fit       0.003821
 2013 Fit       0.009572
 2014 Fit       0.010031
 2015 Fit       0.010312
 2016 Fit       0.008827
 2017 Fit       0.007170
 2018 Fit       0.008426
 2019 Fit       0.009761
 2020 Fit       0.009296
 2021 Fit       0.009538
 2022 Fit       0.006719
 2023 Fit       0.009330
 2024 Fit       0.006149
 2025 Fit       0.008655
 2026 Fit       0.009102
 2027 Fit       0.003474
 2028 Fit       0.007011
 2029 Fit       0.008818
 2030 Fit       0.008707
 2031 Fit       0.008078
 2032 Fit       0.006082
 2033 Fit       0.008372
 2034 Fit       0.008888
 2035 Fit       0.008047
 2036 Fit       0.009410
 2037 Fit       0.006854
 2038 Fit       0.007903
 2039 Fit       0.008969
 2040 Fit       0.008979
 2041 Fit       0.004475
 2042 Fit       0.005742
 2043 Fit       0.006562
 2044 Fit       0.004756
 2045 Fit       0.002384
 2046 Fit       0.006482
 2047 Fit       0.008033
 2048 Fit       0.006234
 2049 Fit       0.006094
 2050 Fit       0.005806
 2051 Fit       0.006648
 2052 Fit       0.005222
 2053 Fit       0.005854
 2054 Fit       0.006855
 2055 Fit       0.004114
 2056 Fit       0.004810
 2057 Fit       0.005471
 2058 Fit       0.006263
 2059 Fit      -0.006932
 2060 Fit      -0.002034
 2061 Fit       0.000987
 2062 Fit       0.002896
 2063 Fit       0.004147
 2064 Fit       0.005021
 2065 Fit       0.005726
 2066 Fit       0.006454
 2067 Fit       0.007376
 2068 Fit      -0.006173
 2069 Fit       0.006479
 2070 Fit       0.007133
 2071 Fit       0.008120
 2072 Fit       0.009478
 2073 Fit       0.000089
 2074 Fit      -0.001798
 2075 Fit       0.000803
 2076 Fit       0.003037
 2077 Fit      -0.003716
 2078 Fit      -0.001356
 2079 Fit       0.003844
 2080 Fit       0.000938
 2081 Fit       0.001613
 2082 Fit      -0.001636
 2083 Fit      -0.000242
 2084 Fit      -0.001328
 2085 Fit      -0.001028
 2086 Fit       0.000782
 2087 Fit       0.001856
 2088 Fit       0.000542
 2089 Fit      -0.000764
 2090 Fit      -0.001490
 2091 Fit      -0.002047
 2092 Fit      -0.001878
 2093 Fit      -0.000437
 2094 Fit       0.002197
 2095 Fit       0.005098
 2096 Fit       0.003369
 2097 Fit       0.001308
 2098 Fit      -0.000066
 2099 Fit      -0.000681
 2100 Fit      -0.000990
 2101 Fit      -0.000799
 2102 Fit      -0.002111
 2103 Fit      -0.003058
 2104 Fit      -0.002825
 2105 Fit       0.005225
 2106 Fit       0.002660
 2107 Fit       0.000985
 2108 Fit       0.000171
 2109 Fit       0.000023
 2110 Fit       0.000139
 2111 Fit      -0.000002
 2112 Fit       0.000750
 2113 Fit      -0.001523
 2114 Fit      -0.003989
 2115 Fit       0.006595
 2116 Fit       0.003861
 2117 Fit       0.002070
 2118 Fit       0.001087
 2119 Fit       0.000834
 2120 Fit       0.001142
 2121 Fit       0.001716
 2122 Fit       0.002152
 2123 Fit       0.001971
 2124 Fit       0.005548
 2125 Fit       0.003519
 2126 Fit       0.002217
 2127 Fit       0.001631
 2128 Fit       0.001722
 2129 Fit       0.002370
 2130 Fit       0.003368
 2131 Fit       0.004429
 2132 Fit       0.005160
 2133 Fit       0.005016
 2134 Fit       0.007638
 2135 Fit       0.005414
 2136 Fit       0.003731
 2137 Fit       0.002647
 2138 Fit       0.002229
 2139 Fit       0.002480
 2140 Fit       0.003326
 2141 Fit       0.004631
 2142 Fit       0.006211
 2143 Fit       0.007829
 2144 Fit       0.009122
 2145 Fit       0.007834
 2146 Fit       0.005912
 2147 Fit       0.004282
 2148 Fit       0.003166
 2149 Fit       0.002690
 2150 Fit       0.002892
 2151 Fit       0.003740
 2152 Fit       0.005145
 2153 Fit       0.006994
 2154 Fit       0.009175
 2155 Fit       0.011575
 2156 Fit       0.007404
 2157 Fit       0.005363
 2158 Fit       0.003891
 2159 Fit       0.003080
 2160 Fit       0.002976
 2161 Fit       0.003570
 2162 Fit       0.004808
 2163 Fit       0.006609
 2164 Fit       0.008900
 2165 Fit       0.011671
 2166 Fit       0.015029
 2167 Fit       0.006435
 2168 Fit       0.004364
 2169 Fit       0.003269
 2170 Fit       0.003038
 2171 Fit       0.003610
 2172 Fit       0.004912
 2173 Fit       0.006859
 2174 Fit       0.009390
 2175 Fit       0.012550
 2176 Fit       0.005948
 2177 Fit       0.003852
 2178 Fit       0.003028
 2179 Fit       0.003216
 2180 Fit       0.004277
 2181 Fit       0.006093
 2182 Fit       0.008571
 2183 Fit       0.011710
 2184 Fit       0.015745
 2185 Fit       0.006124
 2186 Fit       0.003724
 2187 Fit       0.002901
 2188 Fit       0.003253
 2189 Fit       0.004563
 2190 Fit       0.006655
 2191 Fit       0.009402
 2192 Fit       0.012786
 2193 Fit       0.004091
 2194 Fit       0.002843
 2195 Fit       0.003007
 2196 Fit       0.004269
 2197 Fit       0.006346
 2198 Fit       0.008951
 2199 Fit       0.011732
 2200 Fit       0.005297
 2201 Fit       0.003182
 2202 Fit       0.002640
 2203 Fit       0.003472
 2204 Fit       0.005219
 2205 Fit       0.007210
 2206 Fit       0.000084
 2207 Fit       0.002995
 2208 Fit       0.004977
 2209 Fit       0.005064
 2210 Fit       0.003681
 2211 Fit       0.002570
 2212 Fit       0.002763
 2213 Fit       0.003908
 2214 Fit       0.004756
 2215 Fit       0.002107
 2216 Fit       0.000794
 2217 Fit       0.001912
 2218 Fit       0.002732
 2219 Fit       0.002288
 2220 Fit       0.002568
 2221 Fit       0.001828
 2222 Fit      -0.001463
 2223 Fit      -0.004553
 2224 Fit      -0.000235
 2225 Fit      -0.004503
 2226 Fit       0.002995
 2227 Fit       0.001283
 2228 Fit      -0.004033
 2229 Fit       0.007893
 2230 Fit       0.005375
 2231 Fit       0.003118
 2232 Fit      -0.002868
 2233 Fit      -0.001715
 2234 Fit      -0.002013
 2235 Fit       0.003534
 2236 Fit      -0.003067
 2237 Fit       0.010476
 2238 Fit       0.001780
 2239 Fit      -0.003788
 2240 Fit       0.006782
 2241 Fit       0.005678
 2242 Fit       0.000508
 2243 Fit      -0.003511
 2244 Fit      -0.000224
 2245 Fit       0.001962
 2246 Fit       0.003134
 2247 Fit      -0.000157
 2248 Fit      -0.005174
 2249 Fit      -0.004228
 2250 Fit      -0.006241
 2251 Fit      -0.006593
 2252 Fit      -0.004408
 2253 Fit      -0.007069
 2254 Fit      -0.008600
 2255 Fit      -0.007726
 2256 Fit      -0.007482
 2257 Fit      -0.010154
 2258 Fit      -0.010563
 2259 Fit      -0.008185
 2260 Fit      -0.007469
 2261 Fit      -0.011110
 2262 Fit      -0.012686
 2263 Fit      -0.011937
 2264 Fit      -0.007174
 2265 Fit      -0.011709
 2266 Fit      -0.014090
 2267 Fit      -0.014244
 2268 Fit      -0.012055
 2269 Fit      -0.006849
 2270 Fit      -0.011974
 2271 Fit      -0.014874
 2272 Fit      -0.015602
 2273 Fit      -0.014184
 2274 Fit      -0.006742
 2275 Fit      -0.012161
 2276 Fit      -0.015224
 2277 Fit      -0.016026
 2278 Fit      -0.014648
 2279 Fit      -0.006950
 2280 Fit      -0.012163
 2281 Fit      -0.015012
 2282 Fit      -0.015527
 2283 Fit      -0.013780
 2284 Fit      -0.007341
 2285 Fit      -0.012066
 2286 Fit      -0.014247
 2287 Fit      -0.013776
 2288 Fit      -0.010691
 2289 Fit      -0.007625
 2290 Fit      -0.011376
 2291 Fit      -0.012504
 2292 Fit      -0.010791
 2293 Fit      -0.007496
 2294 Fit      -0.010042
 2295 Fit      -0.009558
 2296 Fit      -0.006362
 2297 Fit      -0.002593
 2298 Fit      -0.000588
 2299 Fit      -0.000293
 2300 Fit      -0.006741
 2301 Fit      -0.007524
 2302 Fit      -0.004869
 2303 Fit      -0.003088
 2304 Fit      -0.002946
 2305 Fit      -0.003859
 2306 Fit      -0.005267
 2307 Fit       0.005617
 2308 Fit       0.005045
 2309 Fit       0.005689
 2310 Fit       0.005522
 2311 Fit       0.003153
 2312 Fit       0.004299
 2313 Fit       0.006331
 2314 Fit       0.003530
 2315 Fit       0.004708
 2316 Fit       0.008029
 2317 Fit       0.007847
 2318 Fit       0.008459
 2319 Fit       0.004954
 2320 Fit       0.006166
 2321 Fit       0.007789
 2322 Fit       0.007443
 2323 Fit      -0.004432
 2324 Fit      -0.000751
 2325 Fit      -0.002730
 2326 Fit      -0.005622
 2327 Fit      -0.006682
 2328 Fit      -0.005697
 2329 Fit      -0.002578
 2330 Fit      -0.000243
 2331 Fit      -0.003943
 2332 Fit      -0.006393
 2333 Fit      -0.007474
 2334 Fit      -0.007803
 2335 Fit      -0.007675
 2336 Fit      -0.006684
 2337 Fit      -0.004125
 2338 Fit      -0.001475
 2339 Fit      -0.004969
 2340 Fit      -0.006923
 2341 Fit      -0.007759
 2342 Fit      -0.008025
 2343 Fit      -0.008149
 2344 Fit      -0.008271
 2345 Fit      -0.008190
 2346 Fit      -0.007454
 2347 Fit      -0.005544
 2348 Fit      -0.002015
 2349 Fit       0.000460
 2350 Fit      -0.003846
 2351 Fit      -0.006383
 2352 Fit      -0.007619
 2353 Fit      -0.008024
 2354 Fit      -0.008044
 2355 Fit      -0.008033
 2356 Fit      -0.008173
 2357 Fit      -0.008436
 2358 Fit      -0.008600
 2359 Fit      -0.008307
 2360 Fit      -0.007161
 2361 Fit      -0.004796
 2362 Fit      -0.000867
 2363 Fit      -0.000297
 2364 Fit      -0.004447
 2365 Fit      -0.006813
 2366 Fit      -0.007907
 2367 Fit      -0.008182
 2368 Fit      -0.008060
 2369 Fit      -0.007896
 2370 Fit      -0.007919
 2371 Fit      -0.008191
 2372 Fit      -0.008598
 2373 Fit      -0.008881
 2374 Fit      -0.008694
 2375 Fit      -0.007678
 2376 Fit      -0.005517
 2377 Fit      -0.001948
 2378 Fit       0.003357
 2379 Fit       0.004443
 2380 Fit      -0.001375
 2381 Fit      -0.005050
 2382 Fit      -0.007178
 2383 Fit      -0.008169
 2384 Fit      -0.008400
 2385 Fit      -0.008229
 2386 Fit      -0.007973
 2387 Fit      -0.007863
 2388 Fit      -0.008012
 2389 Fit      -0.008394
 2390 Fit      -0.008857
 2391 Fit      -0.009147
 2392 Fit      -0.008963
 2393 Fit      -0.008003
 2394 Fit      -0.006013
 2395 Fit      -0.002802
 2396 Fit       0.001779
 2397 Fit       0.006168
 2398 Fit      -0.000075
 2399 Fit      -0.004227
 2400 Fit      -0.006803
 2401 Fit      -0.008163
 2402 Fit      -0.008648
 2403 Fit      -0.008601
 2404 Fit      -0.008345
 2405 Fit      -0.008142
 2406 Fit      -0.008154
 2407 Fit      -0.008423
 2408 Fit      -0.008859
 2409 Fit      -0.009265
 2410 Fit      -0.009369
 2411 Fit      -0.008871
 2412 Fit      -0.007493
 2413 Fit      -0.005016
 2414 Fit      -0.001294
 2415 Fit       0.003758
 2416 Fit       0.005832
 2417 Fit       0.000020
 2418 Fit      -0.004102
 2419 Fit      -0.006775
 2420 Fit      -0.008269
 2421 Fit      -0.008890
 2422 Fit      -0.008959
 2423 Fit      -0.008790
 2424 Fit      -0.008636
 2425 Fit      -0.008656
 2426 Fit      -0.008890
 2427 Fit      -0.009251
 2428 Fit      -0.009544
 2429 Fit      -0.009500
 2430 Fit      -0.008826
 2431 Fit      -0.007247
 2432 Fit      -0.004539
 2433 Fit      -0.000545
 2434 Fit       0.004838
 2435 Fit       0.004384
 2436 Fit      -0.000880
 2437 Fit      -0.004677
 2438 Fit      -0.007155
 2439 Fit      -0.008553
 2440 Fit      -0.009163
 2441 Fit      -0.009300
 2442 Fit      -0.009251
 2443 Fit      -0.009230
 2444 Fit      -0.009341
 2445 Fit      -0.009560
 2446 Fit      -0.009739
 2447 Fit      -0.009640
 2448 Fit      -0.008975
 2449 Fit      -0.007457
 2450 Fit      -0.004836
 2451 Fit      -0.000905
 2452 Fit       0.000854
 2453 Fit      -0.003575
 2454 Fit      -0.006551
 2455 Fit      -0.008324
 2456 Fit      -0.009213
 2457 Fit      -0.009561
 2458 Fit      -0.009674
 2459 Fit      -0.009752
 2460 Fit      -0.009848
 2461 Fit      -0.009859
 2462 Fit      -0.009548
 2463 Fit      -0.008602
 2464 Fit      -0.006700
 2465 Fit      -0.003555
 2466 Fit       0.001082
 2467 Fit       0.002699
 2468 Fit      -0.002222
 2469 Fit      -0.005633
 2470 Fit      -0.007774
 2471 Fit      -0.008958
 2472 Fit      -0.009528
 2473 Fit      -0.009769
 2474 Fit      -0.009835
 2475 Fit      -0.009700
 2476 Fit      -0.009173
 2477 Fit      -0.007954
 2478 Fit      -0.005728
 2479 Fit      -0.002233
 2480 Fit       0.002691
 2481 Fit       0.001631
 2482 Fit      -0.003038
 2483 Fit      -0.006170
 2484 Fit      -0.008000
 2485 Fit      -0.008901
 2486 Fit      -0.009196
 2487 Fit      -0.008992
 2488 Fit      -0.008138
 2489 Fit      -0.006313
 2490 Fit      -0.003213
 2491 Fit       0.001214
 2492 Fit      -0.000926
 2493 Fit      -0.004828
 2494 Fit      -0.006970
 2495 Fit      -0.007648
 2496 Fit      -0.007057
 2497 Fit      -0.005001
 2498 Fit      -0.001322
 2499 Fit       0.003234
 2500 Fit       0.003266
 2501 Fit       0.001139
 2502 Fit      -0.003211
 2503 Fit      -0.005045
 2504 Fit      -0.003376
 2505 Fit       0.000723
 2506 Fit      -0.001369
 2507 Fit       0.001208
 2508 Fit       0.003283
 2509 Fit       0.004641
 2510 Fit       0.005612
 2511 Fit      -0.005564
 2512 Fit      -0.001035
 2513 Fit       0.001852
 2514 Fit       0.003737
 2515 Fit       0.005001
 2516 Fit       0.005900
 2517 Fit       0.006668
 2518 Fit       0.007606
 2519 Fit      -0.006854
 2520 Fit      -0.002068
 2521 Fit       0.001341
 2522 Fit       0.003610
 2523 Fit       0.005098
 2524 Fit       0.006121
 2525 Fit       0.007015
 2526 Fit       0.008251
 2527 Fit       0.010440
 2528 Fit      -0.002059
 2529 Fit       0.001164
 2530 Fit       0.003723
 2531 Fit       0.005405
 2532 Fit       0.006565
 2533 Fit       0.007706
 2534 Fit       0.008714
 2535 Fit       0.007431
 2536 Fit       0.003129
 2537 Fit      -0.004004
 2538 Fit       0.001526
 2539 Fit       0.003752
 2540 Fit       0.005552
 2541 Fit       0.006337
 2542 Fit       0.004916
 2543 Fit       0.001782
 2544 Fit       0.004202
 2545 Fit       0.008283
 2546 Fit       0.007385
 2547 Fit       0.008596
 2548 Fit       0.007601
 2549 Fit       0.008511
 2550 Fit       0.009821
 2551 Fit       0.007226
 2552 Fit       0.007820
 2553 Fit       0.008385
 2554 Fit       0.009073
 2555 Fit       0.007406
 2556 Fit       0.007787
 2557 Fit       0.007910
 2558 Fit       0.007312
 2559 Fit       0.007638
 2560 Fit       0.007704
 2561 Fit       0.007614
 2562 Fit       0.008072
 2563 Fit       0.008757
 2564 Fit       0.010106
 2565 Fit       0.003817
 2566 Fit       0.002594
 2567 Fit       0.003999
 2568 Fit       0.004915
 2569 Fit       0.002048
 2570 Fit       0.001027
 2571 Fit       0.002894
 2572 Fit       0.004261
 2573 Fit       0.005102
 2574 Fit       0.005847
 2575 Fit      -0.000530
 2576 Fit      -0.001254
 2577 Fit       0.001224
 2578 Fit       0.003074
 2579 Fit       0.004285
 2580 Fit       0.005052
 2581 Fit       0.005699
 2582 Fit      -0.003871
 2583 Fit      -0.004537
 2584 Fit      -0.001039
 2585 Fit       0.001451
 2586 Fit       0.003131
 2587 Fit       0.004224
 2588 Fit       0.004961
 2589 Fit       0.005617
 2590 Fit      -0.008918
 2591 Fit      -0.003539
 2592 Fit      -0.000103
 2593 Fit       0.002111
 2594 Fit       0.003541
 2595 Fit       0.004507
 2596 Fit      -0.006168
 2597 Fit      -0.001672
 2598 Fit       0.001101
 2599 Fit       0.002893
 2600 Fit      -0.008168
 2601 Fit      -0.002769
 2602 Fit       0.000501
 2603 Fit       0.006369
 2604 Fit       0.011492
 2605 Fit       0.009542
 2606 Fit       0.007490
 2607 Fit       0.003062
 2608 Fit       0.013815
 2609 Fit       0.012464
 2610 Fit       0.010461
 2611 Fit       0.008261
 2612 Fit       0.003838
 2613 Fit       0.015635
 2614 Fit       0.014619
 2615 Fit       0.013245
 2616 Fit       0.011231
 2617 Fit       0.008631
 2618 Fit       0.004281
 2619 Fit      -0.002476
 2620 Fit       0.015738
 2621 Fit       0.014837
 2622 Fit       0.013525
 2623 Fit       0.011554
 2624 Fit       0.008577
 2625 Fit       0.004359
 2626 Fit      -0.002050
 2627 Fit       0.015142
 2628 Fit       0.014473
 2629 Fit       0.013294
 2630 Fit       0.011415
 2631 Fit       0.008111
 2632 Fit       0.003509
 2633 Fit       0.013626
 2634 Fit       0.012816
 2635 Fit       0.011065
 2636 Fit       0.007281
 2637 Fit       0.011526
 2638 Fit       0.010312
 2639 Fit       0.006173
 2640 Fit       0.008659
 2641 Fit       0.005390
 2642 Fit       0.005463
 2643 Fit       0.005675
 2644 Fit       0.004945
 2645 Fit       0.004211
 2646 Fit       0.005227
 2647 Fit       0.005756
 2648 Fit       0.004323
 2649 Fit       0.001692
 2650 Fit       0.002273
 2651 Fit       0.004334
 2652 Fit       0.005921
 2653 Fit       0.006041
 2654 Fit       0.002736
 2655 Fit       0.005341
 2656 Fit       0.006623
 2657 Fit       0.002948
 2658 Fit       0.005918
 2659 Fit       0.007342
 2660 Fit       0.003801
 2661 Fit       0.007240
 2662 Fit       0.006995
 2663 Fit       0.006140
 2664 Fit       0.004710
 2665 Fit       0.007061
 2666 Fit       0.008295
 2667 Fit       0.007703
 2668 Fit       0.005402
 2669 Fit       0.002620
 2670 Fit       0.009669
 2671 Fit       0.007515
 2672 Fit       0.004092
 2673 Fit       0.009167
 2674 Fit       0.005238
 2675 Fit       0.006927
 2676 Fit       0.008108
 2677 Fit       0.009961
 2678 Fit       0.007088
 2679 Fit       0.006378
 2680 Fit       0.008452
 2681 Fit       0.010473
 2682 Fit       0.010668
 2683 Fit       0.009341
 2684 Fit       0.006827
 2685 Fit       0.008112
 2686 Fit       0.009141
 2687 Fit       0.009530
 2688 Fit       0.008279
 2689 Fit       0.005781
 2690 Fit       0.008506
 2691 Fit       0.008644
 2692 Fit       0.007355
 2693 Fit       0.006007
 2694 Fit       0.007099
 2695 Fit       0.008289
 2696 Fit       0.007823
 2697 Fit       0.006118
 2698 Fit       0.006133
 2699 Fit       0.007675
 2700 Fit       0.005707
 2701 Fit       0.007288
 2702 Fit       0.005655
 2703 Fit       0.007210
 2704 Fit       0.007241
 2705 Fit       0.007106
 2706 Fit       0.004956
 2707 Fit       0.006877
 2708 Fit       0.007429
 2709 Fit       0.006948
 2710 Fit       0.008077
 2711 Fit       0.006582
 2712 Fit       0.007557
 -----------------------------------------------------------------
 Leave Link  602 at Thu Jan 16 21:47:06 2014, MaxMem=   235929600 cpu:         0.7

 Test job not archived.
 1\1\GINC-G42\SP\RHF\Gen\C6H8Cl1N1S1\KOLAR\16-Jan-2014\0\\# hf/gen pop=
 mk iop(6/33=2,6/41=5,6/42=2)\\na resp\\0,1\C,0,1.114472,2.44989,0.0651
 04\C,0,1.412588,0.977778,0.033747\C,0,0.538253,-0.044993,0.316744\S,0,
 1.364551,-1.578298,0.132774\C,0,2.81063,-0.705662,-0.303021\N,0,2.6949
 69,0.586553,-0.311065\C,0,-0.918577,0.016963,0.687552\C,0,-1.818286,-0
 .153023,-0.541333\Cl,0,-3.576047,-0.065608,-0.085505\H,0,1.217166,2.88
 5273,-0.935946\H,0,0.104144,2.66029,0.425306\H,0,1.828369,2.967475,0.7
 15309\H,0,3.726703,-1.235165,-0.539356\H,0,-1.167398,-0.7551,1.423696\
 H,0,-1.136128,0.980349,1.159539\H,0,-1.644535,0.635942,-1.275022\H,0,-
 1.667586,-1.122545,-1.019638\\Version=AM64L-G09RevD.01\State=1-A\HF=-1
 143.2968475\RMSD=7.239e-09\Dipole=0.5139703,-0.1505514,-0.042376\Quadr
 upole=-6.4800342,4.5609698,1.9190644,-3.7119848,-0.131272,0.897097\PG=
 C01 [X(C6H8Cl1N1S1)]\\@


 BE LIKE A POSTAGE STAMP.  STICK TO ONE THING UNTIL
 YOU GET THERE -- JOSH BILLINGS
 Job cpu time:       0 days  0 hours  0 minutes 12.8 seconds.
 File lengths (MBytes):  RWF=     10 Int=      0 D2E=      0 Chk=      2 Scr=      1
 Normal termination of Gaussian 09 at Thu Jan 16 21:47:06 2014.
12.09user 0.68system 0:17.88elapsed 71%CPU (0avgtext+0avgdata 2273184maxresident)k
43312inputs+23520outputs (4major+294876minor)pagefaults 0swaps
