Linux g29 2.6.38.6-client #1 SMP Tue Jun 12 11:27:21 CEST 2012 x86_64 GNU/Linux
Fri Jan 17 11:54:31 CET 2014

 Entering Gaussian System, Link 0=/usr/local/programs/common/gaussian/gaussian09_d01/arch/amd64-pgi_10.4.0-acml/g09/g09
 Initial command:
 /usr/local/programs/common/gaussian/gaussian09_d01/arch/amd64-pgi_10.4.0-acml/g09/l1.exe "/scratch/kolar/g09_19926/Gau-20983.inp" -scrdir="/scratch/kolar/g09_19926/"
 Entering Link 1 = /usr/local/programs/common/gaussian/gaussian09_d01/arch/amd64-pgi_10.4.0-acml/g09/l1.exe PID=     20986.
  
 Copyright (c) 1988,1990,1992,1993,1995,1998,2003,2009,2013,
            Gaussian, Inc.  All Rights Reserved.
  
 This is part of the Gaussian(R) 09 program.  It is based on
 the Gaussian(R) 03 system (copyright 2003, Gaussian, Inc.),
 the Gaussian(R) 98 system (copyright 1998, Gaussian, Inc.),
 the Gaussian(R) 94 system (copyright 1995, Gaussian, Inc.),
 the Gaussian 92(TM) system (copyright 1992, Gaussian, Inc.),
 the Gaussian 90(TM) system (copyright 1990, Gaussian, Inc.),
 the Gaussian 88(TM) system (copyright 1988, Gaussian, Inc.),
 the Gaussian 86(TM) system (copyright 1986, Carnegie Mellon
 University), and the Gaussian 82(TM) system (copyright 1983,
 Carnegie Mellon University). Gaussian is a federally registered
 trademark of Gaussian, Inc.
  
 This software contains proprietary and confidential information,
 including trade secrets, belonging to Gaussian, Inc.
  
 This software is provided under written license and may be
 used, copied, transmitted, or stored only in accord with that
 written license.
  
 The following legend is applicable only to US Government
 contracts under FAR:
  
                    RESTRICTED RIGHTS LEGEND
  
 Use, reproduction and disclosure by the US Government is
 subject to restrictions as set forth in subparagraphs (a)
 and (c) of the Commercial Computer Software - Restricted
 Rights clause in FAR 52.227-19.
  
 Gaussian, Inc.
 340 Quinnipiac St., Bldg. 40, Wallingford CT 06492
  
  
 ---------------------------------------------------------------
 Warning -- This program may not be used in any manner that
 competes with the business of Gaussian, Inc. or will provide
 assistance to any competitor of Gaussian, Inc.  The licensee
 of this program is prohibited from giving any competitor of
 Gaussian, Inc. access to this program.  By using this program,
 the user acknowledges that Gaussian, Inc. is engaged in the
 business of creating and licensing software in the field of
 computational chemistry and represents and warrants to the
 licensee that it is not a competitor of Gaussian, Inc. and that
 it will not use this program in any manner prohibited above.
 ---------------------------------------------------------------
  

 Cite this work as:
 Gaussian 09, Revision D.01,
 M. J. Frisch, G. W. Trucks, H. B. Schlegel, G. E. Scuseria, 
 M. A. Robb, J. R. Cheeseman, G. Scalmani, V. Barone, B. Mennucci, 
 G. A. Petersson, H. Nakatsuji, M. Caricato, X. Li, H. P. Hratchian, 
 A. F. Izmaylov, J. Bloino, G. Zheng, J. L. Sonnenberg, M. Hada, 
 M. Ehara, K. Toyota, R. Fukuda, J. Hasegawa, M. Ishida, T. Nakajima, 
 Y. Honda, O. Kitao, H. Nakai, T. Vreven, J. A. Montgomery, Jr., 
 J. E. Peralta, F. Ogliaro, M. Bearpark, J. J. Heyd, E. Brothers, 
 K. N. Kudin, V. N. Staroverov, T. Keith, R. Kobayashi, J. Normand, 
 K. Raghavachari, A. Rendell, J. C. Burant, S. S. Iyengar, J. Tomasi, 
 M. Cossi, N. Rega, J. M. Millam, M. Klene, J. E. Knox, J. B. Cross, 
 V. Bakken, C. Adamo, J. Jaramillo, R. Gomperts, R. E. Stratmann, 
 O. Yazyev, A. J. Austin, R. Cammi, C. Pomelli, J. W. Ochterski, 
 R. L. Martin, K. Morokuma, V. G. Zakrzewski, G. A. Voth, 
 P. Salvador, J. J. Dannenberg, S. Dapprich, A. D. Daniels, 
 O. Farkas, J. B. Foresman, J. V. Ortiz, J. Cioslowski, 
 and D. J. Fox, Gaussian, Inc., Wallingford CT, 2013.
 
 ******************************************
 Gaussian 09:  AM64L-G09RevD.01 24-Apr-2013
                17-Jan-2014 
 ******************************************
 %mem=1800mb
 ------------------------------------------------------------------
 # hf/gen pseudo=read pop=(mk, readradii) iop(6/33=2,6/41=5,6/42=2)
 ------------------------------------------------------------------
 1/38=1/1;
 2/12=2,17=6,18=5,40=1/2;
 3/5=7,11=9,16=1,17=8,25=1,30=1/1,2,3;
 4//1;
 5/5=2,38=5/2;
 6/7=2,8=2,9=2,10=2,15=8,20=101,28=1,33=2,41=5,42=2/1,2;
 99/5=1,9=1/99;
 -------
 na resp
 -------
 Symbolic Z-matrix:
 Charge =  0 Multiplicity = 1
 6                     2.08357   1.82122   0.00001 
 6                     2.99694   0.77282  -0.00001 
 6                     2.54604  -0.56133  -0.00007 
 6                     1.15738  -0.80691   0.00004 
 6                     0.27326   0.26526   0.00002 
 6                     0.7045    1.59012   0.00002 
 53                   -1.83956  -0.1437    0. 
 7                     3.43817  -1.60964  -0.00015 
 1                     2.44975   2.84481  -0.00002 
 1                     4.06478   0.97759  -0.00005 
 1                     0.79207  -1.82894   0.00014 
 1                     0.0009    2.41348  -0.00006 
 1                     4.43108  -1.44547   0.001 
 1                     3.12104  -2.56475   0.00003 
 
                          Input orientation:                          
 ---------------------------------------------------------------------
 Center     Atomic      Atomic             Coordinates (Angstroms)
 Number     Number       Type             X           Y           Z
 ---------------------------------------------------------------------
      1          6           0        2.083565    1.821216    0.000013
      2          6           0        2.996935    0.772819   -0.000013
      3          6           0        2.546037   -0.561327   -0.000072
      4          6           0        1.157381   -0.806910    0.000037
      5          6           0        0.273261    0.265260    0.000023
      6          6           0        0.704497    1.590124    0.000017
      7         53           0       -1.839563   -0.143704    0.000000
      8          7           0        3.438168   -1.609641   -0.000149
      9          1           0        2.449752    2.844807   -0.000017
     10          1           0        4.064775    0.977592   -0.000051
     11          1           0        0.792071   -1.828937    0.000142
     12          1           0        0.000899    2.413475   -0.000064
     13          1           0        4.431076   -1.445473    0.000995
     14          1           0        3.121039   -2.564751    0.000026
 ---------------------------------------------------------------------
                    Distance matrix (angstroms):
                    1          2          3          4          5
     1  C    0.000000
     2  C    1.390461   0.000000
     3  C    2.427013   1.408281   0.000000
     4  C    2.786550   2.424769   1.410204   0.000000
     5  C    2.387090   2.770562   2.418420   1.389682   0.000000
     6  C    1.398296   2.433775   2.831962   2.439442   1.393280
     7  I    4.387692   4.922573   4.405439   3.069449   2.152040
     8  N    3.688594   2.422974   1.376539   2.417926   3.678572
     9  H    1.087121   2.143022   3.407495   3.873662   3.375082
    10  H    2.153345   1.087297   2.162137   3.411361   3.857849
    11  H    3.871895   3.410361   2.164078   1.085353   2.157504
    12  H    2.165241   3.415843   3.914994   3.421744   2.165412
    13  H    4.022694   2.641511   2.082087   3.335392   4.496002
    14  H    4.507001   3.339877   2.084307   2.635518   4.014823
                    6          7          8          9         10
     6  C    0.000000
     7  I    3.078701   0.000000
     8  N    4.208498   5.477537   0.000000
     9  H    2.149452   5.227755   4.562792   0.000000
    10  H    3.415650   6.009868   2.662031   2.468763   0.000000
    11  H    3.420182   3.124981   2.655169   4.959011   4.311287
    12  H    1.083031   3.150629   5.291529   2.486549   4.310087
    13  H    4.806479   6.404336   1.006389   4.725690   2.450596
    14  H    4.806523   5.519877   1.006383   5.451050   3.665901
                   11         12         13         14
    11  H    0.000000
    12  H    4.315555   0.000000
    13  H    3.659153   5.875198   0.000000
    14  H    2.442440   5.875203   1.723073   0.000000
 Stoichiometry    C6H6IN
 Framework group  C1[X(C6H6IN)]
 Deg. of freedom    36
 Full point group                 C1      NOp   1
 Largest Abelian subgroup         C1      NOp   1
 Largest concise Abelian subgroup C1      NOp   1
                         Standard orientation:                         
 ---------------------------------------------------------------------
 Center     Atomic      Atomic             Coordinates (Angstroms)
 Number     Number       Type             X           Y           Z
 ---------------------------------------------------------------------
      1          6           0        2.083565    1.821216    0.000013
      2          6           0        2.996935    0.772819   -0.000013
      3          6           0        2.546037   -0.561327   -0.000072
      4          6           0        1.157381   -0.806910    0.000037
      5          6           0        0.273261    0.265260    0.000023
      6          6           0        0.704497    1.590124    0.000017
      7         53           0       -1.839563   -0.143704    0.000000
      8          7           0        3.438168   -1.609641   -0.000149
      9          1           0        2.449752    2.844807   -0.000017
     10          1           0        4.064775    0.977592   -0.000051
     11          1           0        0.792071   -1.828937    0.000142
     12          1           0        0.000899    2.413475   -0.000064
     13          1           0        4.431076   -1.445473    0.000995
     14          1           0        3.121039   -2.564751    0.000026
 ---------------------------------------------------------------------
 Rotational constants (GHZ):      3.2485379      0.5642327      0.4807348
 General basis read from cards:  (5D, 7F)
 ======================================================================================================
                                       Pseudopotential Parameters
 ======================================================================================================
  Center     Atomic      Valence      Angular      Power
  Number     Number     Electrons     Momentum     of R      Exponent        Coefficient   SO-Coeffient
 ======================================================================================================
    1          6
                                   No pseudopotential on this center.
    2          6
                                   No pseudopotential on this center.
    3          6
                                   No pseudopotential on this center.
    4          6
                                   No pseudopotential on this center.
    5          6
                                   No pseudopotential on this center.
    6          6
                                   No pseudopotential on this center.
    7         53            7
                                      F and up 
                                                     0        1.0715702       -0.07476210    0.00000000
                                                     1       44.1936028      -30.08112240    0.00000000
                                                     2       12.9367609      -75.37227210    0.00000000
                                                     2        3.1956412      -22.05637580    0.00000000
                                                     2        0.8589806       -1.69795850    0.00000000
                                      S - F
                                                     0      127.9202670        2.93800360    0.00000000
                                                     1       78.6211465       41.24712670    0.00000000
                                                     2       36.5146237      287.86800950    0.00000000
                                                     2        9.9065681      114.37585060    0.00000000
                                                     2        1.9420086       37.65477140    0.00000000
                                      P - F
                                                     0       13.0035304        2.22226300    0.00000000
                                                     1       76.0331404       39.40908310    0.00000000
                                                     2       24.1961684      177.40750020    0.00000000
                                                     2        6.4053433       77.98894620    0.00000000
                                                     2        1.5851786       25.75476410    0.00000000
                                      D - F
                                                     0       40.4278108        7.05243600    0.00000000
                                                     1       28.9084375       33.30416350    0.00000000
                                                     2       15.6268936      186.94538750    0.00000000
                                                     2        4.1442856       71.96883610    0.00000000
                                                     2        0.9377235        9.36306570    0.00000000
    8          7
                                   No pseudopotential on this center.
    9          1
                                   No pseudopotential on this center.
   10          1
                                   No pseudopotential on this center.
   11          1
                                   No pseudopotential on this center.
   12          1
                                   No pseudopotential on this center.
   13          1
                                   No pseudopotential on this center.
   14          1
                                   No pseudopotential on this center.
 ======================================================================================================
 There are   125 symmetry adapted cartesian basis functions of A   symmetry.
 There are   118 symmetry adapted basis functions of A   symmetry.
   118 basis functions,   232 primitive gaussians,   125 cartesian basis functions
    28 alpha electrons       28 beta electrons
       nuclear repulsion energy       310.1674103586 Hartrees.
 NAtoms=   14 NActive=   14 NUniq=   14 SFac= 1.00D+00 NAtFMM=   60 NAOKFM=F Big=F
 Integral buffers will be    131072 words long.
 Raffenetti 1 integral format.
 Two-electron integral symmetry is turned on.
 One-electron integrals computed using PRISM.
   1 Symmetry operations used in ECPInt.
 ECPInt:  NShTT=     990 NPrTT=    5924 LenC2=     988 LenP2D=    4421.
 LDataN:  DoStor=T MaxTD1= 5 Len=  102
 NBasis=   118 RedAO= T EigKep=  4.92D-04  NBF=   118
 NBsUse=   118 1.00D-06 EigRej= -1.00D+00 NBFU=   118
 ExpMin= 1.05D-01 ExpMax= 4.17D+03 ExpMxC= 6.27D+02 IAcc=1 IRadAn=         1 AccDes= 0.00D+00
 Harris functional with IExCor=  205 and IRadAn=       1 diagonalized for initial guess.
 HarFok:  IExCor=  205 AccDes= 0.00D+00 IRadAn=         1 IDoV= 1 UseB2=F ITyADJ=14
 ICtDFT=  3500011 ScaDFX=  1.000000  1.000000  1.000000  1.000000
 Defaulting to unpruned grid for atomic number  53.
 FoFCou: FMM=F IPFlag=           0 FMFlag=      100000 FMFlg1=           0
         NFxFlg=           0 DoJE=T BraDBF=F KetDBF=T FulRan=T
         wScrn=  0.000000 ICntrl=     500 IOpCl=  0 I1Cent=   200000004 NGrid=           0
         NMat0=    1 NMatS0=      1 NMatT0=    0 NMatD0=    1 NMtDS0=    0 NMtDT0=    0
 Petite list used in FoFCou.
 Keep R1 ints in memory in canonical form, NReq=25717971.
 Requested convergence on RMS density matrix=1.00D-08 within 128 cycles.
 Requested convergence on MAX density matrix=1.00D-06.
 Requested convergence on             energy=1.00D-06.
 No special actions if energy rises.
 SCF Done:  E(RHF) =  -296.294325439     A.U. after   14 cycles
            NFock= 14  Conv=0.72D-08     -V/T= 2.0291

 **********************************************************************

            Population analysis using the SCF density.

 **********************************************************************

 Orbital symmetries:
 BldTbl:  Degeneracy threshold= 1.00D-02
       Occupied  (A) (A) (A) (A) (A) (A) (A) (A) (A) (A) (A) (A)
                 (A) (A) (A) (A) (A) (A) (A) (A) (A) (A) (A) (A)
                 (A) (A) (A) (A)
       Virtual   (A) (A) (A) (A) (A) (A) (A) (A) (A) (A) (A) (A)
                 (A) (A) (A) (A) (A) (A) (A) (A) (A) (A) (A) (A)
                 (A) (A) (A) (A) (A) (A) (A) (A) (A) (A) (A) (A)
                 (A) (A) (A) (A) (A) (A) (A) (A) (A) (A) (A) (A)
                 (A) (A) (A) (A) (A) (A) (A) (A) (A) (A) (A) (A)
                 (A) (A) (A) (A) (A) (A) (A) (A) (A) (A) (A) (A)
                 (A) (A) (A) (A) (A) (A) (A) (A) (A) (A) (A) (A)
                 (A) (A) (A) (A) (A) (A)
 The electronic state is 1-A.
 Alpha  occ. eigenvalues --  -15.57286 -11.29576 -11.29489 -11.24587 -11.23663
 Alpha  occ. eigenvalues --  -11.23099 -11.23075  -1.23298  -1.13711  -1.02497
 Alpha  occ. eigenvalues --   -0.99662  -0.88123  -0.83314  -0.80204  -0.70762
 Alpha  occ. eigenvalues --   -0.69244  -0.66477  -0.60835  -0.60008  -0.55132
 Alpha  occ. eigenvalues --   -0.54298  -0.51962  -0.46111  -0.44341  -0.38276
 Alpha  occ. eigenvalues --   -0.36177  -0.32557  -0.29025
 Alpha virt. eigenvalues --    0.11485   0.13354   0.15734   0.21601   0.25183
 Alpha virt. eigenvalues --    0.27517   0.30711   0.32406   0.34109   0.36085
 Alpha virt. eigenvalues --    0.43245   0.46203   0.47428   0.49762   0.52505
 Alpha virt. eigenvalues --    0.55820   0.56769   0.58376   0.67210   0.73137
 Alpha virt. eigenvalues --    0.74023   0.75144   0.80262   0.82532   0.82891
 Alpha virt. eigenvalues --    0.83573   0.83706   0.84496   0.85807   0.90612
 Alpha virt. eigenvalues --    0.91078   0.91319   0.94052   1.00229   1.01255
 Alpha virt. eigenvalues --    1.10404   1.11496   1.11955   1.15996   1.17504
 Alpha virt. eigenvalues --    1.17977   1.20734   1.24181   1.26418   1.28220
 Alpha virt. eigenvalues --    1.30982   1.35727   1.37787   1.43027   1.49377
 Alpha virt. eigenvalues --    1.57473   1.58916   1.62389   1.70699   1.73488
 Alpha virt. eigenvalues --    1.75467   1.76628   1.78759   1.83477   1.94958
 Alpha virt. eigenvalues --    2.01952   2.05701   2.07760   2.16810   2.21385
 Alpha virt. eigenvalues --    2.25646   2.28798   2.34091   2.37371   2.41158
 Alpha virt. eigenvalues --    2.44850   2.48073   2.55360   2.57522   2.61373
 Alpha virt. eigenvalues --    2.63326   2.71732   2.78699   2.81995   2.88705
 Alpha virt. eigenvalues --    2.93017   2.98481   3.03147   3.07635   3.09339
 Alpha virt. eigenvalues --    3.22042   3.22960   3.49185   3.74547  10.28105
          Condensed to atoms (all electrons):
               1          2          3          4          5          6
     1  C    4.868043   0.539332  -0.022995  -0.047793  -0.014432   0.520244
     2  C    0.539332   4.997265   0.549774  -0.024730  -0.055065  -0.035695
     3  C   -0.022995   0.549774   4.451743   0.522116  -0.001748  -0.039799
     4  C   -0.047793  -0.024730   0.522116   5.046570   0.467700  -0.025312
     5  C   -0.014432  -0.055065  -0.001748   0.467700   5.280285   0.474720
     6  C    0.520244  -0.035695  -0.039799  -0.025312   0.474720   4.989821
     7  I    0.000301   0.001034  -0.000715  -0.058587   0.258554  -0.053360
     8  N    0.002788  -0.062084   0.263151  -0.065184   0.003393   0.000285
     9  H    0.382986  -0.030080   0.001703   0.000124   0.003943  -0.032277
    10  H   -0.026117   0.378753  -0.036440   0.003425  -0.000349   0.002977
    11  H    0.000002   0.002754  -0.033433   0.380563  -0.023808   0.002227
    12  H   -0.027427   0.002489   0.000171   0.002213  -0.028480   0.385736
    13  H    0.000041  -0.000597  -0.028522   0.002901  -0.000129   0.000014
    14  H   -0.000062   0.002515  -0.027749  -0.000873   0.000129  -0.000013
               7          8          9         10         11         12
     1  C    0.000301   0.002788   0.382986  -0.026117   0.000002  -0.027427
     2  C    0.001034  -0.062084  -0.030080   0.378753   0.002754   0.002489
     3  C   -0.000715   0.263151   0.001703  -0.036440  -0.033433   0.000171
     4  C   -0.058587  -0.065184   0.000124   0.003425   0.380563   0.002213
     5  C    0.258554   0.003393   0.003943  -0.000349  -0.023808  -0.028480
     6  C   -0.053360   0.000285  -0.032277   0.002977   0.002227   0.385736
     7  I    6.685037  -0.000096  -0.000173   0.000018  -0.000982  -0.000162
     8  N   -0.000096   7.197503  -0.000078  -0.002603  -0.002682   0.000002
     9  H   -0.000173  -0.000078   0.466964  -0.001889   0.000008  -0.001664
    10  H    0.000018  -0.002603  -0.001889   0.479746  -0.000098  -0.000091
    11  H   -0.000982  -0.002682   0.000008  -0.000098   0.458284  -0.000084
    12  H   -0.000162   0.000002  -0.001664  -0.000091  -0.000084   0.449164
    13  H    0.000004   0.334934  -0.000005   0.003252  -0.000051   0.000000
    14  H   -0.000024   0.335087   0.000002  -0.000076   0.003052   0.000000
              13         14
     1  C    0.000041  -0.000062
     2  C   -0.000597   0.002515
     3  C   -0.028522  -0.027749
     4  C    0.002901  -0.000873
     5  C   -0.000129   0.000129
     6  C    0.000014  -0.000013
     7  I    0.000004  -0.000024
     8  N    0.334934   0.335087
     9  H   -0.000005   0.000002
    10  H    0.003252  -0.000076
    11  H   -0.000051   0.003052
    12  H    0.000000   0.000000
    13  H    0.312273  -0.017821
    14  H   -0.017821   0.311335
 Mulliken charges:
               1
     1  C   -0.174912
     2  C   -0.265664
     3  C    0.402744
     4  C   -0.203131
     5  C   -0.364714
     6  C   -0.189570
     7  I    0.169151
     8  N   -1.004417
     9  H    0.210436
    10  H    0.199490
    11  H    0.214249
    12  H    0.218133
    13  H    0.393706
    14  H    0.394498
 Sum of Mulliken charges =   0.00000
 Mulliken charges with hydrogens summed into heavy atoms:
               1
     1  C    0.035524
     2  C   -0.066174
     3  C    0.402744
     4  C    0.011118
     5  C   -0.364714
     6  C    0.028563
     7  I    0.169151
     8  N   -0.216213
 DipInt: DoE/N= T F RetVal/Mat= T F Init=T NMatP=  1 IDeriv=0 Min/MaxMlt=  0  4
 Entering OneElI...
 OneElI was handed   235887347 working-precision words.
 Multipole integrals L=0 to 4 MinM= 0 MaxM= 0.
 Requested accuracy = 0.1000D-12
 ShPair: Thresh= 1.00D-13 NBox=     0 BxSize= 0.00D+00 RnKept= 1.21D+01
         NSMCal=                  990 NSMKep=                 970
 PrsmSu:  NPrtUS=   1 ThrOK=F IAlg=1 NPAlg=1 LenDen=           0.
 Prism:   IPart=     0 DynPar=F LinDyn=F Incr=           9.
 PRISM was handed   235794733 working-precision words and   970 shell-pairs
 IPart=  0 NShTot=         970 NBatch=          64 AvBLen=        15.2
 PrSmSu:  NxtVal=             10.
 Electronic moments (au):
        -56.00000000       -158.62892032        -12.85213534          0.00090618
      -1068.70053885       -360.62174055        -50.05894040         40.72027635
          0.00832375         -0.00335831      -5264.18303659       -312.15466607
          0.00254154      -1313.44909069        591.83234666          0.04300320
        -70.69864579         -7.89570270          0.00951970         -0.02087246
     -38127.99085761      -5122.20267244       -232.57112237       4752.83538668
          0.16287608        132.20464782         -0.03546290          0.02443422
         -0.01073897      -7579.62674753       -902.43276439       -289.02930883
         -0.09721358          0.06981723          7.76657716
 Electronic spatial extent (au):  <R**2>=           1479.3812
 DipInt: DoE/N= F T RetVal/Mat= T F Init=T NMatP=  1 IDeriv=0 Min/MaxMlt=  0  4
 Nuclear    moments (au):
         56.00000000        159.90843678         12.49182174          0.00001534
       1032.94986189        321.54490846          0.00000435        -43.42494971
         -0.00018581          0.00001536       5176.02273624        282.26809955
          0.00000001       1286.14238185       -622.61555384          0.02530356
          0.00003406         -0.00001164         -0.00043339         -0.00461640
      34554.19365899       4027.65915836          0.00000000      -4908.55452160
          0.42192747       -210.59825618         -0.00639063          0.00000005
         -0.00000002       6759.68797387          0.00027501          0.00003310
         -0.11238931          0.00849587         -0.00009267
 Total      moments (au):
          0.00000000          1.27951646         -0.36031361          0.00092152
        -35.75067696        -39.07683209        -50.05893605         -2.70467336
          0.00813794         -0.00334295        -88.16030036        -29.88656652
          0.00254155        -27.30670884        -30.78320718          0.06830676
        -70.69861173         -7.89571433          0.00908632         -0.02548886
      -3573.79719862      -1094.54351408       -232.57112237       -155.71913492
          0.58480355        -78.39360836         -0.04185353          0.02443427
         -0.01073899       -819.93877366       -902.43248938       -289.02927573
         -0.20960289          0.07831310          7.76648449
 Traceless Quadrup. (au):
          5.87813807          2.55198294         -8.43012102         -2.70467336
          0.00813794         -0.00334295
 Charge=              0.0000 electrons
 Dipole moment (field-independent basis, Debye):
    X=              3.2522    Y=             -0.9158    Z=              0.0023  Tot=              3.3787
 Quadrupole moment (field-independent basis, Debye-Ang):
   XX=            -48.0859   YY=            -52.5597   ZZ=            -67.3310
   XY=             -3.6379   XZ=              0.0109   YZ=             -0.0045
 Traceless Quadrupole moment (field-independent basis, Debye-Ang):
   XX=              7.9063   YY=              3.4325   ZZ=            -11.3388
   XY=             -3.6379   XZ=              0.0109   YZ=             -0.0045
 Octapole moment (field-independent basis, Debye-Ang**2):
  XXX=            -62.7491  YYY=            -21.2721  ZZZ=              0.0018  XYY=            -19.4359
  XXY=            -21.9103  XXZ=              0.0486  XZZ=            -50.3205  YZZ=             -5.6199
  YYZ=              0.0065  XYZ=             -0.0181
 Hexadecapole moment (field-independent basis, Debye-Ang**3):
 XXXX=          -1346.0633 YYYY=           -412.2575 ZZZZ=            -87.5974 XXXY=            -58.6513
 XXXZ=              0.2203 YYYX=            -29.5268 YYYZ=             -0.0158 ZZZX=              0.0092
 ZZZY=             -0.0040 XXYY=           -308.8282 XXZZ=           -339.8993 YYZZ=           -108.8623
 XXYZ=             -0.0789 YYXZ=              0.0295 ZZXY=              2.9252
 N-N= 3.101674103586D+02 E-N=-1.306506401977D+03  KE= 2.879186801607D+02
 Entering OneElI...
 OneElI was handed   235896455 working-precision words.
 Calculate electrostatic properties
    NBasis =   118  MinDer = 0  MaxDer = 0
    NGrid  =    14  NMatD  =   1
 Requested accuracy = 0.1000D-12
 ShPair: Thresh= 1.00D-13 NBox=     0 BxSize= 0.00D+00 RnKept= 1.21D+01
         NSMCal=                  990 NSMKep=                 934
 PrsmSu:  NPrtUS=   1 ThrOK=F IAlg=1 NPAlg=1 LenDen=           0.
 Prism:   IPart=     0 DynPar=F LinDyn=F Incr=         130.
 PRISM was handed   235808422 working-precision words and   934 shell-pairs
 IPart=  0 NShTot=       13076 NBatch=         934 AvBLen=        14.0
 PrSmSu:  NxtVal=            131.
 --------------------------------------------------------
       Center         ----      EFG at Nuclei      ----
                      3XX-RR        3YY-RR        3ZZ-RR
 --------------------------------------------------------
     1   Atom        0.214231      0.169196     -0.383428
     2   Atom        0.071723      0.094294     -0.166017
     3   Atom        0.205142      0.174868     -0.380009
     4   Atom        0.066744      0.071581     -0.138324
     5   Atom       -0.250496      0.394573     -0.144078
     6   Atom        0.125450      0.068167     -0.193617
     7   Atom       -0.081749      0.037646      0.044103
     8   Atom       -0.602879     -0.613121      1.216000
     9   Atom        0.092526     -0.256162      0.163636
    10   Atom       -0.295341      0.121614      0.173727
    11   Atom        0.086363     -0.261618      0.175256
    12   Atom       -0.050193     -0.123325      0.173518
    13   Atom       -0.402024      0.147061      0.254963
    14   Atom        0.104643     -0.359604      0.254960
 --------------------------------------------------------
                        XY            XZ            YZ
 --------------------------------------------------------
     1   Atom       -0.023296     -0.000003      0.000000
     2   Atom       -0.040027     -0.000003      0.000035
     3   Atom        0.160707      0.000043     -0.000029
     4   Atom       -0.000133      0.000054     -0.000008
     5   Atom       -0.125296     -0.000005     -0.000013
     6   Atom       -0.013164      0.000000     -0.000009
     7   Atom       -0.023930     -0.000003      0.000000
     8   Atom        0.038833     -0.001263     -0.000097
     9   Atom       -0.143134      0.000003      0.000011
    10   Atom       -0.081095      0.000013      0.000006
    11   Atom       -0.138579      0.000018      0.000043
    12   Atom        0.224281     -0.000022      0.000025
    13   Atom       -0.093299     -0.000749     -0.000120
    14   Atom       -0.173271     -0.000012      0.000130
 --------------------------------------------------------


 ---------------------------------------------------------------------------------
              Nuclear Quadrupole Coupling Constant in Principal Axis System
 ---------------------------------------------------------------------------------

       Atom             a.u.   MegaHertz   Gauss  10(-4) cm-1        Axes

              Baa    -0.0864   -14.408    -5.141    -4.806  0.9819  0.1895  0.0000
     7 I(127) Bbb     0.0423     7.051     2.516     2.352 -0.1895  0.9819 -0.0003
              Bcc     0.0441     7.358     2.625     2.454 -0.0001  0.0003  1.0000
 
              Baa    -0.6472     3.108     1.109     1.037 -0.6593  0.7519 -0.0004
     8 N(14)  Bbb    -0.5688     2.732     0.975     0.911  0.7519  0.6593  0.0006
              Bcc     1.2160    -5.840    -2.084    -1.948 -0.0007 -0.0001  1.0000
 

 ---------------------------------------------------------------------------------

 No NMR shielding tensors so no spin-rotation constants.
 Leave Link  601 at Fri Jan 17 11:54:38 2014, MaxMem=   235929600 cpu:         0.2
 FitSet:  NAtFit=    14 NAtPot=    14 NAtFrz=     0 MDM=    18 TotChg=   0.00000
 Merz-Kollman atomic radii used.
 Read replacement radii for each type of atom:
 Rad(53) =   2.700000000000D+00
 Atom Element Radius
    1     6    1.50
    2     6    1.50
    3     6    1.50
    4     6    1.50
    5     6    1.50
    6     6    1.50
    7    53    2.70
    8     7    1.50
    9     1    1.20
   10     1    1.20
   11     1    1.20
   12     1    1.20
   13     1    1.20
   14     1    1.20
 Generate VDW surfaces: Layer= 5 Dens= 2 Start= 1.400 Inc= 0.179

 **********************************************************************

            Electrostatic Properties Using The SCF Density

 **********************************************************************

       Atomic Center    1 is at   2.083565  1.821216  0.000013
       Atomic Center    2 is at   2.996935  0.772819 -0.000013
       Atomic Center    3 is at   2.546037 -0.561327 -0.000072
       Atomic Center    4 is at   1.157381 -0.806910  0.000037
       Atomic Center    5 is at   0.273261  0.265260  0.000023
       Atomic Center    6 is at   0.704497  1.590124  0.000017
       Atomic Center    7 is at  -1.839563 -0.143704  0.000000
       Atomic Center    8 is at   3.438168 -1.609641 -0.000149
       Atomic Center    9 is at   2.449752  2.844807 -0.000017
       Atomic Center   10 is at   4.064775  0.977592 -0.000051
       Atomic Center   11 is at   0.792071 -1.828937  0.000142
       Atomic Center   12 is at   0.000899  2.413475 -0.000064
       Atomic Center   13 is at   4.431076 -1.445473  0.000995
       Atomic Center   14 is at   3.121039 -2.564751  0.000026
      ESP Fit Center   15 is at   2.083565  1.821216  2.100013
      ESP Fit Center   16 is at   2.801807  1.821216  1.973367
      ESP Fit Center   17 is at   2.442686  2.443232  1.973367
      ESP Fit Center   18 is at   1.724444  2.443232  1.973367
      ESP Fit Center   19 is at   1.724444  1.199200  1.973367
      ESP Fit Center   20 is at   3.219134  2.551002  1.608706
      ESP Fit Center   21 is at   1.891461  3.157330  1.608706
      ESP Fit Center   22 is at   3.744987  2.560929  1.050013
      ESP Fit Center   23 is at   1.174238  3.396216  1.050013
      ESP Fit Center   24 is at   3.744987  2.560929 -1.049987
      ESP Fit Center   25 is at   1.174238  3.396216 -1.049987
      ESP Fit Center   26 is at   3.219134  2.551002 -1.608681
      ESP Fit Center   27 is at   1.891461  3.157330 -1.608681
      ESP Fit Center   28 is at   2.801807  1.821216 -1.973342
      ESP Fit Center   29 is at   2.442686  2.443232 -1.973342
      ESP Fit Center   30 is at   1.724444  2.443232 -1.973342
      ESP Fit Center   31 is at   1.724444  1.199200 -1.973342
      ESP Fit Center   32 is at   2.083565  1.821216 -2.099987
      ESP Fit Center   33 is at   2.996935  0.772819  2.099987
      ESP Fit Center   34 is at   3.715177  0.772819  1.973341
      ESP Fit Center   35 is at   3.356056  1.394835  1.973341
      ESP Fit Center   36 is at   2.278693  0.772819  1.973341
      ESP Fit Center   37 is at   3.356056  0.150803  1.973341
      ESP Fit Center   38 is at   4.132504  1.502605  1.608680
      ESP Fit Center   39 is at   3.557685  2.000689  1.608680
      ESP Fit Center   40 is at   4.132504  0.043033  1.608680
      ESP Fit Center   41 is at   4.132504  1.502605 -1.608707
      ESP Fit Center   42 is at   3.557685  2.000689 -1.608707
      ESP Fit Center   43 is at   4.132504  0.043033 -1.608707
      ESP Fit Center   44 is at   3.715177  0.772819 -1.973368
      ESP Fit Center   45 is at   3.356056  1.394835 -1.973368
      ESP Fit Center   46 is at   2.278693  0.772819 -1.973368
      ESP Fit Center   47 is at   3.356056  0.150803 -1.973368
      ESP Fit Center   48 is at   2.996935  0.772819 -2.100013
      ESP Fit Center   49 is at   2.546037 -0.561327  2.099928
      ESP Fit Center   50 is at   3.264279 -0.561327  1.973282
      ESP Fit Center   51 is at   2.186916  0.060689  1.973282
      ESP Fit Center   52 is at   2.186916 -1.183343  1.973282
      ESP Fit Center   53 is at   1.662071  0.458825  1.608621
      ESP Fit Center   54 is at   1.662071  0.458825 -1.608766
      ESP Fit Center   55 is at   3.264279 -0.561327 -1.973427
      ESP Fit Center   56 is at   2.186916  0.060689 -1.973427
      ESP Fit Center   57 is at   2.186916 -1.183343 -1.973427
      ESP Fit Center   58 is at   2.546037 -0.561327 -2.100072
      ESP Fit Center   59 is at   1.516502 -0.184894  1.973391
      ESP Fit Center   60 is at   1.516502 -1.428926  1.973391
      ESP Fit Center   61 is at   1.718131 -2.034780  1.608730
      ESP Fit Center   62 is at   1.718131 -2.034780 -1.608657
      ESP Fit Center   63 is at   1.516502 -0.184894 -1.973318
      ESP Fit Center   64 is at   1.516502 -1.428926 -1.973318
      ESP Fit Center   65 is at   1.063618  2.212140  1.973371
      ESP Fit Center   66 is at   0.512393  2.926238  1.608710
      ESP Fit Center   67 is at   0.512393  2.926238 -1.608677
      ESP Fit Center   68 is at   1.063618  2.212140 -1.973338
      ESP Fit Center   69 is at  -1.839563 -0.143704  3.780000
      ESP Fit Center   70 is at  -1.102122 -0.143704  3.707368
      ESP Fit Center   71 is at  -1.470842  0.494939  3.707368
      ESP Fit Center   72 is at  -2.208284  0.494939  3.707368
      ESP Fit Center   73 is at  -2.577004 -0.143704  3.707368
      ESP Fit Center   74 is at  -2.208284 -0.782347  3.707368
      ESP Fit Center   75 is at  -1.470842 -0.782347  3.707368
      ESP Fit Center   76 is at  -0.393020 -0.143704  3.492264
      ESP Fit Center   77 is at  -0.586820  0.579568  3.492264
      ESP Fit Center   78 is at  -1.116291  1.109039  3.492264
      ESP Fit Center   79 is at  -1.839563  1.302839  3.492264
      ESP Fit Center   80 is at  -2.562835  1.109039  3.492264
      ESP Fit Center   81 is at  -3.092306  0.579568  3.492264
      ESP Fit Center   82 is at  -3.286106 -0.143704  3.492264
      ESP Fit Center   83 is at  -3.092306 -0.866976  3.492264
      ESP Fit Center   84 is at  -2.562835 -1.396447  3.492264
      ESP Fit Center   85 is at  -1.839563 -1.590247  3.492264
      ESP Fit Center   86 is at  -1.116291 -1.396447  3.492264
      ESP Fit Center   87 is at  -0.586820 -0.866976  3.492264
      ESP Fit Center   88 is at   0.260492 -0.143704  3.142955
      ESP Fit Center   89 is at   0.133844  0.574557  3.142955
      ESP Fit Center   90 is at  -0.230827  1.206186  3.142955
      ESP Fit Center   91 is at  -0.789535  1.674997  3.142955
      ESP Fit Center   92 is at  -1.474892  1.924447  3.142955
      ESP Fit Center   93 is at  -2.204234  1.924447  3.142955
      ESP Fit Center   94 is at  -2.889591  1.674997  3.142955
      ESP Fit Center   95 is at  -3.448299  1.206186  3.142955
      ESP Fit Center   96 is at  -3.812970  0.574557  3.142955
      ESP Fit Center   97 is at  -3.939619 -0.143704  3.142955
      ESP Fit Center   98 is at  -3.812970 -0.861965  3.142955
      ESP Fit Center   99 is at  -3.448299 -1.493594  3.142955
      ESP Fit Center  100 is at  -2.889591 -1.962405  3.142955
      ESP Fit Center  101 is at  -2.204234 -2.211855  3.142955
      ESP Fit Center  102 is at  -1.474892 -2.211855  3.142955
      ESP Fit Center  103 is at  -0.789535 -1.962405  3.142955
      ESP Fit Center  104 is at  -0.230827 -1.493594  3.142955
      ESP Fit Center  105 is at   0.133844 -0.861965  3.142955
      ESP Fit Center  106 is at   0.833301 -0.143704  2.672863
      ESP Fit Center  107 is at   0.734184  0.577426  2.672863
      ESP Fit Center  108 is at   0.444184  1.245073  2.672863
      ESP Fit Center  109 is at  -0.015192  1.809721  2.672863
      ESP Fit Center  110 is at  -0.609872  2.229492  2.672863
      ESP Fit Center  111 is at  -1.295753  2.473254  2.672863
      ESP Fit Center  112 is at  -2.021966  2.522928  2.672863
      ESP Fit Center  113 is at  -2.734651  2.374831  2.672863
      ESP Fit Center  114 is at  -3.380951  2.039945  2.672863
      ESP Fit Center  115 is at  -3.912934  1.543108  2.672863
      ESP Fit Center  116 is at  -4.291144  0.921168  2.672863
      ESP Fit Center  117 is at  -4.487531  0.220251  2.672863
      ESP Fit Center  118 is at  -4.487531 -0.507659  2.672863
      ESP Fit Center  119 is at  -4.291144 -1.208576  2.672863
      ESP Fit Center  120 is at  -3.912934 -1.830516  2.672863
      ESP Fit Center  121 is at  -3.380951 -2.327353  2.672863
      ESP Fit Center  122 is at  -2.734651 -2.662239  2.672863
      ESP Fit Center  123 is at  -2.021966 -2.810337  2.672863
      ESP Fit Center  124 is at  -1.295753 -2.760662  2.672863
      ESP Fit Center  125 is at  -0.609872 -2.516900  2.672863
      ESP Fit Center  126 is at  -0.015192 -2.097129  2.672863
      ESP Fit Center  127 is at   0.444184 -1.532481  2.672863
      ESP Fit Center  128 is at   0.734184 -0.864834  2.672863
      ESP Fit Center  129 is at   1.303392 -0.143704  2.100055
      ESP Fit Center  130 is at   1.218673  0.581111  2.100055
      ESP Fit Center  131 is at   0.969084  1.266852  2.100055
      ESP Fit Center  132 is at   0.568080  1.876549  2.100055
      ESP Fit Center  133 is at   0.037280  2.377333  2.100055
      ESP Fit Center  134 is at  -0.594702  2.742208  2.100055
      ESP Fit Center  135 is at  -1.293795  2.951503  2.100055
      ESP Fit Center  136 is at  -2.022310  2.993934  2.100055
      ESP Fit Center  137 is at  -2.740973  2.867214  2.100055
      ESP Fit Center  138 is at  -3.411041  2.578175  2.100055
      ESP Fit Center  139 is at  -3.996390  2.142399  2.100055
      ESP Fit Center  140 is at  -4.465464  1.583378  2.100055
      ESP Fit Center  141 is at  -4.792975  0.931250  2.100055
      ESP Fit Center  142 is at  -4.961267  0.221171  2.100055
      ESP Fit Center  143 is at  -4.961267 -0.508579  2.100055
      ESP Fit Center  144 is at  -4.792975 -1.218658  2.100055
      ESP Fit Center  145 is at  -4.465464 -1.870786  2.100055
      ESP Fit Center  146 is at  -3.996390 -2.429807  2.100055
      ESP Fit Center  147 is at  -3.411041 -2.865583  2.100055
      ESP Fit Center  148 is at  -2.740973 -3.154622  2.100055
      ESP Fit Center  149 is at  -2.022310 -3.281342  2.100055
      ESP Fit Center  150 is at  -1.293795 -3.238911  2.100055
      ESP Fit Center  151 is at  -0.594702 -3.029616  2.100055
      ESP Fit Center  152 is at   0.037280 -2.664741  2.100055
      ESP Fit Center  153 is at   0.568080 -2.163957  2.100055
      ESP Fit Center  154 is at   0.969084 -1.554260  2.100055
      ESP Fit Center  155 is at   1.218673 -0.868519  2.100055
      ESP Fit Center  156 is at  -0.760394  3.177637  1.446543
      ESP Fit Center  157 is at  -1.474522  3.329430  1.446543
      ESP Fit Center  158 is at  -2.204604  3.329430  1.446543
      ESP Fit Center  159 is at  -2.918732  3.177637  1.446543
      ESP Fit Center  160 is at  -3.585695  2.880686  1.446543
      ESP Fit Center  161 is at  -4.176344  2.451554  1.446543
      ESP Fit Center  162 is at  -4.664864  1.908998  1.446543
      ESP Fit Center  163 is at  -5.029906  1.276728  1.446543
      ESP Fit Center  164 is at  -5.255513  0.582379  1.446543
      ESP Fit Center  165 is at  -5.331828 -0.143704  1.446543
      ESP Fit Center  166 is at  -5.255513 -0.869787  1.446543
      ESP Fit Center  167 is at  -5.029906 -1.564136  1.446543
      ESP Fit Center  168 is at  -4.664864 -2.196406  1.446543
      ESP Fit Center  169 is at  -4.176344 -2.738962  1.446543
      ESP Fit Center  170 is at  -3.585695 -3.168094  1.446543
      ESP Fit Center  171 is at  -2.918732 -3.465045  1.446543
      ESP Fit Center  172 is at  -2.204604 -3.616838  1.446543
      ESP Fit Center  173 is at  -1.474522 -3.616838  1.446543
      ESP Fit Center  174 is at  -0.760394 -3.465045  1.446543
      ESP Fit Center  175 is at  -0.093431 -3.168094  1.446543
      ESP Fit Center  176 is at   0.497218 -2.738962  1.446543
      ESP Fit Center  177 is at  -1.116291  3.492428  0.737441
      ESP Fit Center  178 is at  -1.839563  3.563664  0.737441
      ESP Fit Center  179 is at  -2.562835  3.492428  0.737441
      ESP Fit Center  180 is at  -3.258311  3.281458  0.737441
      ESP Fit Center  181 is at  -3.899267  2.938860  0.737441
      ESP Fit Center  182 is at  -4.461068  2.477801  0.737441
      ESP Fit Center  183 is at  -4.922127  1.915999  0.737441
      ESP Fit Center  184 is at  -5.264725  1.275044  0.737441
      ESP Fit Center  185 is at  -5.475695  0.579568  0.737441
      ESP Fit Center  186 is at  -5.546931 -0.143704  0.737441
      ESP Fit Center  187 is at  -5.475695 -0.866976  0.737441
      ESP Fit Center  188 is at  -5.264725 -1.562453  0.737441
      ESP Fit Center  189 is at  -4.922127 -2.203408  0.737441
      ESP Fit Center  190 is at  -4.461068 -2.765209  0.737441
      ESP Fit Center  191 is at  -3.899267 -3.226268  0.737441
      ESP Fit Center  192 is at  -3.258311 -3.568866  0.737441
      ESP Fit Center  193 is at  -2.562835 -3.779836  0.737441
      ESP Fit Center  194 is at  -1.839563 -3.851072  0.737441
      ESP Fit Center  195 is at  -1.116291 -3.779836  0.737441
      ESP Fit Center  196 is at  -0.420815 -3.568866  0.737441
      ESP Fit Center  197 is at   0.220140 -3.226268  0.737441
      ESP Fit Center  198 is at  -1.659703  3.632014  0.000000
      ESP Fit Center  199 is at  -2.377513  3.597821  0.000000
      ESP Fit Center  200 is at  -3.075880  3.428399  0.000000
      ESP Fit Center  201 is at  -3.729563  3.129872  0.000000
      ESP Fit Center  202 is at  -4.314937  2.713029  0.000000
      ESP Fit Center  203 is at  -4.810844  2.192937  0.000000
      ESP Fit Center  204 is at  -5.199361  1.588392  0.000000
      ESP Fit Center  205 is at  -5.466446  0.921245  0.000000
      ESP Fit Center  206 is at  -5.602447  0.215608  0.000000
      ESP Fit Center  207 is at  -5.602447 -0.503016  0.000000
      ESP Fit Center  208 is at  -5.466446 -1.208653  0.000000
      ESP Fit Center  209 is at  -5.199361 -1.875800  0.000000
      ESP Fit Center  210 is at  -4.810844 -2.480345  0.000000
      ESP Fit Center  211 is at  -4.314937 -3.000437  0.000000
      ESP Fit Center  212 is at  -3.729563 -3.417280  0.000000
      ESP Fit Center  213 is at  -3.075880 -3.715807  0.000000
      ESP Fit Center  214 is at  -2.377513 -3.885229  0.000000
      ESP Fit Center  215 is at  -1.659703 -3.919423  0.000000
      ESP Fit Center  216 is at  -0.948394 -3.817152  0.000000
      ESP Fit Center  217 is at  -0.269294 -3.582113  0.000000
      ESP Fit Center  218 is at  -1.116291  3.492428 -0.737442
      ESP Fit Center  219 is at  -1.839563  3.563664 -0.737442
      ESP Fit Center  220 is at  -2.562835  3.492428 -0.737442
      ESP Fit Center  221 is at  -3.258311  3.281458 -0.737442
      ESP Fit Center  222 is at  -3.899267  2.938860 -0.737442
      ESP Fit Center  223 is at  -4.461068  2.477801 -0.737442
      ESP Fit Center  224 is at  -4.922127  1.915999 -0.737442
      ESP Fit Center  225 is at  -5.264725  1.275044 -0.737442
      ESP Fit Center  226 is at  -5.475695  0.579568 -0.737442
      ESP Fit Center  227 is at  -5.546931 -0.143704 -0.737442
      ESP Fit Center  228 is at  -5.475695 -0.866976 -0.737442
      ESP Fit Center  229 is at  -5.264725 -1.562453 -0.737442
      ESP Fit Center  230 is at  -4.922127 -2.203408 -0.737442
      ESP Fit Center  231 is at  -4.461068 -2.765209 -0.737442
      ESP Fit Center  232 is at  -3.899267 -3.226268 -0.737442
      ESP Fit Center  233 is at  -3.258311 -3.568866 -0.737442
      ESP Fit Center  234 is at  -2.562835 -3.779836 -0.737442
      ESP Fit Center  235 is at  -1.839563 -3.851072 -0.737442
      ESP Fit Center  236 is at  -1.116291 -3.779836 -0.737442
      ESP Fit Center  237 is at  -0.420815 -3.568866 -0.737442
      ESP Fit Center  238 is at   0.220140 -3.226268 -0.737442
      ESP Fit Center  239 is at  -0.760394  3.177637 -1.446544
      ESP Fit Center  240 is at  -1.474522  3.329430 -1.446544
      ESP Fit Center  241 is at  -2.204604  3.329430 -1.446544
      ESP Fit Center  242 is at  -2.918732  3.177637 -1.446544
      ESP Fit Center  243 is at  -3.585695  2.880686 -1.446544
      ESP Fit Center  244 is at  -4.176344  2.451554 -1.446544
      ESP Fit Center  245 is at  -4.664864  1.908998 -1.446544
      ESP Fit Center  246 is at  -5.029906  1.276728 -1.446544
      ESP Fit Center  247 is at  -5.255513  0.582379 -1.446544
      ESP Fit Center  248 is at  -5.331828 -0.143704 -1.446544
      ESP Fit Center  249 is at  -5.255513 -0.869787 -1.446544
      ESP Fit Center  250 is at  -5.029906 -1.564136 -1.446544
      ESP Fit Center  251 is at  -4.664864 -2.196406 -1.446544
      ESP Fit Center  252 is at  -4.176344 -2.738962 -1.446544
      ESP Fit Center  253 is at  -3.585695 -3.168094 -1.446544
      ESP Fit Center  254 is at  -2.918732 -3.465045 -1.446544
      ESP Fit Center  255 is at  -2.204604 -3.616838 -1.446544
      ESP Fit Center  256 is at  -1.474522 -3.616838 -1.446544
      ESP Fit Center  257 is at  -0.760394 -3.465045 -1.446544
      ESP Fit Center  258 is at  -0.093431 -3.168094 -1.446544
      ESP Fit Center  259 is at   0.497218 -2.738962 -1.446544
      ESP Fit Center  260 is at   1.303392 -0.143704 -2.100056
      ESP Fit Center  261 is at   1.218673  0.581111 -2.100056
      ESP Fit Center  262 is at   0.969084  1.266852 -2.100056
      ESP Fit Center  263 is at   0.568080  1.876549 -2.100056
      ESP Fit Center  264 is at   0.037280  2.377333 -2.100056
      ESP Fit Center  265 is at  -0.594702  2.742208 -2.100056
      ESP Fit Center  266 is at  -1.293795  2.951503 -2.100056
      ESP Fit Center  267 is at  -2.022310  2.993934 -2.100056
      ESP Fit Center  268 is at  -2.740973  2.867214 -2.100056
      ESP Fit Center  269 is at  -3.411041  2.578175 -2.100056
      ESP Fit Center  270 is at  -3.996390  2.142399 -2.100056
      ESP Fit Center  271 is at  -4.465464  1.583378 -2.100056
      ESP Fit Center  272 is at  -4.792975  0.931250 -2.100056
      ESP Fit Center  273 is at  -4.961267  0.221171 -2.100056
      ESP Fit Center  274 is at  -4.961267 -0.508579 -2.100056
      ESP Fit Center  275 is at  -4.792975 -1.218658 -2.100056
      ESP Fit Center  276 is at  -4.465464 -1.870786 -2.100056
      ESP Fit Center  277 is at  -3.996390 -2.429807 -2.100056
      ESP Fit Center  278 is at  -3.411041 -2.865583 -2.100056
      ESP Fit Center  279 is at  -2.740973 -3.154622 -2.100056
      ESP Fit Center  280 is at  -2.022310 -3.281342 -2.100056
      ESP Fit Center  281 is at  -1.293795 -3.238911 -2.100056
      ESP Fit Center  282 is at  -0.594702 -3.029616 -2.100056
      ESP Fit Center  283 is at   0.037280 -2.664741 -2.100056
      ESP Fit Center  284 is at   0.568080 -2.163957 -2.100056
      ESP Fit Center  285 is at   0.969084 -1.554260 -2.100056
      ESP Fit Center  286 is at   1.218673 -0.868519 -2.100056
      ESP Fit Center  287 is at   0.833301 -0.143704 -2.672864
      ESP Fit Center  288 is at   0.734184  0.577426 -2.672864
      ESP Fit Center  289 is at   0.444184  1.245073 -2.672864
      ESP Fit Center  290 is at  -0.015192  1.809721 -2.672864
      ESP Fit Center  291 is at  -0.609872  2.229492 -2.672864
      ESP Fit Center  292 is at  -1.295753  2.473254 -2.672864
      ESP Fit Center  293 is at  -2.021966  2.522928 -2.672864
      ESP Fit Center  294 is at  -2.734651  2.374831 -2.672864
      ESP Fit Center  295 is at  -3.380951  2.039945 -2.672864
      ESP Fit Center  296 is at  -3.912934  1.543108 -2.672864
      ESP Fit Center  297 is at  -4.291144  0.921168 -2.672864
      ESP Fit Center  298 is at  -4.487531  0.220251 -2.672864
      ESP Fit Center  299 is at  -4.487531 -0.507659 -2.672864
      ESP Fit Center  300 is at  -4.291144 -1.208576 -2.672864
      ESP Fit Center  301 is at  -3.912934 -1.830516 -2.672864
      ESP Fit Center  302 is at  -3.380951 -2.327353 -2.672864
      ESP Fit Center  303 is at  -2.734651 -2.662239 -2.672864
      ESP Fit Center  304 is at  -2.021966 -2.810337 -2.672864
      ESP Fit Center  305 is at  -1.295753 -2.760662 -2.672864
      ESP Fit Center  306 is at  -0.609872 -2.516900 -2.672864
      ESP Fit Center  307 is at  -0.015192 -2.097129 -2.672864
      ESP Fit Center  308 is at   0.444184 -1.532481 -2.672864
      ESP Fit Center  309 is at   0.734184 -0.864834 -2.672864
      ESP Fit Center  310 is at   0.260492 -0.143704 -3.142955
      ESP Fit Center  311 is at   0.133844  0.574557 -3.142955
      ESP Fit Center  312 is at  -0.230827  1.206186 -3.142955
      ESP Fit Center  313 is at  -0.789535  1.674997 -3.142955
      ESP Fit Center  314 is at  -1.474892  1.924447 -3.142955
      ESP Fit Center  315 is at  -2.204234  1.924447 -3.142955
      ESP Fit Center  316 is at  -2.889591  1.674997 -3.142955
      ESP Fit Center  317 is at  -3.448299  1.206186 -3.142955
      ESP Fit Center  318 is at  -3.812970  0.574557 -3.142955
      ESP Fit Center  319 is at  -3.939619 -0.143704 -3.142955
      ESP Fit Center  320 is at  -3.812970 -0.861965 -3.142955
      ESP Fit Center  321 is at  -3.448299 -1.493594 -3.142955
      ESP Fit Center  322 is at  -2.889591 -1.962405 -3.142955
      ESP Fit Center  323 is at  -2.204234 -2.211855 -3.142955
      ESP Fit Center  324 is at  -1.474892 -2.211855 -3.142955
      ESP Fit Center  325 is at  -0.789535 -1.962405 -3.142955
      ESP Fit Center  326 is at  -0.230827 -1.493594 -3.142955
      ESP Fit Center  327 is at   0.133844 -0.861965 -3.142955
      ESP Fit Center  328 is at  -0.393020 -0.143704 -3.492265
      ESP Fit Center  329 is at  -0.586820  0.579568 -3.492265
      ESP Fit Center  330 is at  -1.116291  1.109039 -3.492265
      ESP Fit Center  331 is at  -1.839563  1.302839 -3.492265
      ESP Fit Center  332 is at  -2.562835  1.109039 -3.492265
      ESP Fit Center  333 is at  -3.092306  0.579568 -3.492265
      ESP Fit Center  334 is at  -3.286106 -0.143704 -3.492265
      ESP Fit Center  335 is at  -3.092306 -0.866976 -3.492265
      ESP Fit Center  336 is at  -2.562835 -1.396447 -3.492265
      ESP Fit Center  337 is at  -1.839563 -1.590247 -3.492265
      ESP Fit Center  338 is at  -1.116291 -1.396447 -3.492265
      ESP Fit Center  339 is at  -0.586820 -0.866976 -3.492265
      ESP Fit Center  340 is at  -1.102122 -0.143704 -3.707369
      ESP Fit Center  341 is at  -1.470842  0.494939 -3.707369
      ESP Fit Center  342 is at  -2.208284  0.494939 -3.707369
      ESP Fit Center  343 is at  -2.577004 -0.143704 -3.707369
      ESP Fit Center  344 is at  -2.208284 -0.782347 -3.707369
      ESP Fit Center  345 is at  -1.470842 -0.782347 -3.707369
      ESP Fit Center  346 is at  -1.839563 -0.143704 -3.780000
      ESP Fit Center  347 is at   3.438168 -1.609641  2.099851
      ESP Fit Center  348 is at   4.156410 -1.609641  1.973205
      ESP Fit Center  349 is at   3.797289 -0.987625  1.973205
      ESP Fit Center  350 is at   2.719926 -1.609641  1.973205
      ESP Fit Center  351 is at   3.079047 -2.231657  1.973205
      ESP Fit Center  352 is at   3.797289 -2.231657  1.973205
      ESP Fit Center  353 is at   4.573737 -0.879855  1.608544
      ESP Fit Center  354 is at   3.998918 -0.381771  1.608544
      ESP Fit Center  355 is at   2.142993 -1.989939  1.608544
      ESP Fit Center  356 is at   2.554202 -2.629793  1.608544
      ESP Fit Center  357 is at   3.998918 -2.837511  1.608544
      ESP Fit Center  358 is at   4.573737 -2.339427  1.608544
      ESP Fit Center  359 is at   4.655085 -2.961164  1.049851
      ESP Fit Center  360 is at   4.966510 -3.002908  0.364512
      ESP Fit Center  361 is at   4.966510 -3.002908 -0.364810
      ESP Fit Center  362 is at   4.655085 -2.961164 -1.050149
      ESP Fit Center  363 is at   4.573737 -0.879855 -1.608843
      ESP Fit Center  364 is at   3.998918 -0.381771 -1.608843
      ESP Fit Center  365 is at   2.142993 -1.989939 -1.608843
      ESP Fit Center  366 is at   2.554202 -2.629793 -1.608843
      ESP Fit Center  367 is at   3.998918 -2.837511 -1.608843
      ESP Fit Center  368 is at   4.573737 -2.339427 -1.608843
      ESP Fit Center  369 is at   4.156410 -1.609641 -1.973504
      ESP Fit Center  370 is at   3.797289 -0.987625 -1.973504
      ESP Fit Center  371 is at   2.719926 -1.609641 -1.973504
      ESP Fit Center  372 is at   3.079047 -2.231657 -1.973504
      ESP Fit Center  373 is at   3.797289 -2.231657 -1.973504
      ESP Fit Center  374 is at   3.438168 -1.609641 -2.100149
      ESP Fit Center  375 is at   3.178677  2.844807  1.513611
      ESP Fit Center  376 is at   2.814214  3.476074  1.513611
      ESP Fit Center  377 is at   2.085290  3.476074  1.513611
      ESP Fit Center  378 is at   3.763229  2.844807  1.047446
      ESP Fit Center  379 is at   3.512377  3.616849  1.047446
      ESP Fit Center  380 is at   2.855639  4.093998  1.047446
      ESP Fit Center  381 is at   2.043865  4.093998  1.047446
      ESP Fit Center  382 is at   1.387127  3.616849  1.047446
      ESP Fit Center  383 is at   4.087631  2.844807  0.373818
      ESP Fit Center  384 is at   3.900022  3.605967  0.373818
      ESP Fit Center  385 is at   3.380173  4.192755  0.373818
      ESP Fit Center  386 is at   2.647176  4.470744  0.373818
      ESP Fit Center  387 is at   1.868952  4.376250  0.373818
      ESP Fit Center  388 is at   1.223782  3.930922  0.373818
      ESP Fit Center  389 is at   4.087631  2.844807 -0.373852
      ESP Fit Center  390 is at   3.900022  3.605967 -0.373852
      ESP Fit Center  391 is at   3.380173  4.192755 -0.373852
      ESP Fit Center  392 is at   2.647176  4.470744 -0.373852
      ESP Fit Center  393 is at   1.868952  4.376250 -0.373852
      ESP Fit Center  394 is at   1.223782  3.930922 -0.373852
      ESP Fit Center  395 is at   3.763229  2.844807 -1.047480
      ESP Fit Center  396 is at   3.512377  3.616849 -1.047480
      ESP Fit Center  397 is at   2.855639  4.093998 -1.047480
      ESP Fit Center  398 is at   2.043865  4.093998 -1.047480
      ESP Fit Center  399 is at   1.387127  3.616849 -1.047480
      ESP Fit Center  400 is at   3.178677  2.844807 -1.513645
      ESP Fit Center  401 is at   2.814214  3.476074 -1.513645
      ESP Fit Center  402 is at   2.085290  3.476074 -1.513645
      ESP Fit Center  403 is at   4.793700  0.977592  1.513577
      ESP Fit Center  404 is at   4.429237  1.608859  1.513577
      ESP Fit Center  405 is at   4.429237  0.346325  1.513577
      ESP Fit Center  406 is at   5.378252  0.977592  1.047412
      ESP Fit Center  407 is at   5.127400  1.749634  1.047412
      ESP Fit Center  408 is at   4.470662  2.226783  1.047412
      ESP Fit Center  409 is at   5.127400  0.205550  1.047412
      ESP Fit Center  410 is at   5.702654  0.977592  0.373784
      ESP Fit Center  411 is at   5.515045  1.738752  0.373784
      ESP Fit Center  412 is at   4.995196  2.325540  0.373784
      ESP Fit Center  413 is at   4.262199  2.603529  0.373784
      ESP Fit Center  414 is at   5.515045  0.216432  0.373784
      ESP Fit Center  415 is at   5.702654  0.977592 -0.373886
      ESP Fit Center  416 is at   5.515045  1.738752 -0.373886
      ESP Fit Center  417 is at   4.995196  2.325540 -0.373886
      ESP Fit Center  418 is at   4.262199  2.603529 -0.373886
      ESP Fit Center  419 is at   5.515045  0.216432 -0.373886
      ESP Fit Center  420 is at   5.378252  0.977592 -1.047514
      ESP Fit Center  421 is at   5.127400  1.749634 -1.047514
      ESP Fit Center  422 is at   4.470662  2.226783 -1.047514
      ESP Fit Center  423 is at   5.127400  0.205550 -1.047514
      ESP Fit Center  424 is at   4.793700  0.977592 -1.513679
      ESP Fit Center  425 is at   4.429237  1.608859 -1.513679
      ESP Fit Center  426 is at   4.429237  0.346325 -1.513679
      ESP Fit Center  427 is at   1.156533 -2.460204  1.513770
      ESP Fit Center  428 is at   0.386184 -3.078128  1.047605
      ESP Fit Center  429 is at   1.197958 -3.078128  1.047605
      ESP Fit Center  430 is at   0.211271 -3.360380  0.373977
      ESP Fit Center  431 is at   0.989495 -3.454874  0.373977
      ESP Fit Center  432 is at   0.211271 -3.360380 -0.373693
      ESP Fit Center  433 is at   0.989495 -3.454874 -0.373693
      ESP Fit Center  434 is at   0.386184 -3.078128 -1.047321
      ESP Fit Center  435 is at   1.197958 -3.078128 -1.047321
      ESP Fit Center  436 is at   1.156533 -2.460204 -1.513486
      ESP Fit Center  437 is at   0.365361  3.044742  1.513564
      ESP Fit Center  438 is at  -0.363563  3.044742  1.513564
      ESP Fit Center  439 is at   0.406786  3.662666  1.047399
      ESP Fit Center  440 is at  -0.404988  3.662666  1.047399
      ESP Fit Center  441 is at   0.931320  3.761423  0.373771
      ESP Fit Center  442 is at   0.198323  4.039412  0.373771
      ESP Fit Center  443 is at  -0.579901  3.944918  0.373771
      ESP Fit Center  444 is at   0.931320  3.761423 -0.373899
      ESP Fit Center  445 is at   0.198323  4.039412 -0.373899
      ESP Fit Center  446 is at  -0.579901  3.944918 -0.373899
      ESP Fit Center  447 is at   0.406786  3.662666 -1.047527
      ESP Fit Center  448 is at  -0.404988  3.662666 -1.047527
      ESP Fit Center  449 is at   0.365361  3.044742 -1.513692
      ESP Fit Center  450 is at  -0.363563  3.044742 -1.513692
      ESP Fit Center  451 is at   5.160001 -1.445473  1.514623
      ESP Fit Center  452 is at   4.795538 -0.814206  1.514623
      ESP Fit Center  453 is at   5.744553 -1.445473  1.048458
      ESP Fit Center  454 is at   5.493701 -0.673431  1.048458
      ESP Fit Center  455 is at   4.836963 -0.196282  1.048458
      ESP Fit Center  456 is at   5.493701 -2.217515  1.048458
      ESP Fit Center  457 is at   6.068955 -1.445473  0.374830
      ESP Fit Center  458 is at   5.881346 -0.684313  0.374830
      ESP Fit Center  459 is at   5.361497 -0.097525  0.374830
      ESP Fit Center  460 is at   5.361497 -2.793421  0.374830
      ESP Fit Center  461 is at   5.881346 -2.206633  0.374830
      ESP Fit Center  462 is at   6.068955 -1.445473 -0.372840
      ESP Fit Center  463 is at   5.881346 -0.684313 -0.372840
      ESP Fit Center  464 is at   5.361497 -0.097525 -0.372840
      ESP Fit Center  465 is at   5.361497 -2.793421 -0.372840
      ESP Fit Center  466 is at   5.881346 -2.206633 -0.372840
      ESP Fit Center  467 is at   5.744553 -1.445473 -1.046468
      ESP Fit Center  468 is at   5.493701 -0.673431 -1.046468
      ESP Fit Center  469 is at   4.836963 -0.196282 -1.046468
      ESP Fit Center  470 is at   5.493701 -2.217515 -1.046468
      ESP Fit Center  471 is at   5.160001 -1.445473 -1.512633
      ESP Fit Center  472 is at   4.795538 -0.814206 -1.512633
      ESP Fit Center  473 is at   2.756577 -3.196018  1.513654
      ESP Fit Center  474 is at   3.485501 -3.196018  1.513654
      ESP Fit Center  475 is at   2.058414 -3.336793  1.047489
      ESP Fit Center  476 is at   2.715152 -3.813942  1.047489
      ESP Fit Center  477 is at   3.526926 -3.813942  1.047489
      ESP Fit Center  478 is at   4.183664 -3.336793  1.047489
      ESP Fit Center  479 is at   1.895069 -3.650866  0.373861
      ESP Fit Center  480 is at   2.540239 -4.096194  0.373861
      ESP Fit Center  481 is at   3.318463 -4.190688  0.373861
      ESP Fit Center  482 is at   4.051460 -3.912699  0.373861
      ESP Fit Center  483 is at   1.895069 -3.650866 -0.373809
      ESP Fit Center  484 is at   2.540239 -4.096194 -0.373809
      ESP Fit Center  485 is at   3.318463 -4.190688 -0.373809
      ESP Fit Center  486 is at   4.051460 -3.912699 -0.373809
      ESP Fit Center  487 is at   2.058414 -3.336793 -1.047437
      ESP Fit Center  488 is at   2.715152 -3.813942 -1.047437
      ESP Fit Center  489 is at   3.526926 -3.813942 -1.047437
      ESP Fit Center  490 is at   4.183664 -3.336793 -1.047437
      ESP Fit Center  491 is at   2.756577 -3.196018 -1.513602
      ESP Fit Center  492 is at   3.485501 -3.196018 -1.513602
      ESP Fit Center  493 is at   2.083565  1.821216  2.368341
      ESP Fit Center  494 is at   2.815419  1.821216  2.252427
      ESP Fit Center  495 is at   2.449492  2.455020  2.252427
      ESP Fit Center  496 is at   1.717638  2.455020  2.252427
      ESP Fit Center  497 is at   1.717638  1.187412  2.252427
      ESP Fit Center  498 is at   3.254647  2.573825  1.916031
      ESP Fit Center  499 is at   2.661851  3.087486  1.916031
      ESP Fit Center  500 is at   1.885453  3.199115  1.916031
      ESP Fit Center  501 is at   3.853734  2.554444  1.392081
      ESP Fit Center  502 is at   1.350337  3.591386  1.392081
      ESP Fit Center  503 is at   3.853734  2.554444 -1.392056
      ESP Fit Center  504 is at   1.350337  3.591386 -1.392056
      ESP Fit Center  505 is at   3.254647  2.573825 -1.916005
      ESP Fit Center  506 is at   2.661851  3.087486 -1.916005
      ESP Fit Center  507 is at   1.885453  3.199115 -1.916005
      ESP Fit Center  508 is at   2.815419  1.821216 -2.252401
      ESP Fit Center  509 is at   2.449492  2.455020 -2.252401
      ESP Fit Center  510 is at   1.717638  2.455020 -2.252401
      ESP Fit Center  511 is at   1.717638  1.187412 -2.252401
      ESP Fit Center  512 is at   2.083565  1.821216 -2.368315
      ESP Fit Center  513 is at   2.996935  0.772819  2.368315
      ESP Fit Center  514 is at   3.728789  0.772819  2.252401
      ESP Fit Center  515 is at   3.362862  1.406623  2.252401
      ESP Fit Center  516 is at   2.265081  0.772819  2.252401
      ESP Fit Center  517 is at   3.362862  0.139015  2.252401
      ESP Fit Center  518 is at   4.389003  0.772819  1.916005
      ESP Fit Center  519 is at   4.168017  1.525428  1.916005
      ESP Fit Center  520 is at   3.575221  2.039089  1.916005
      ESP Fit Center  521 is at   4.168017  0.020210  1.916005
      ESP Fit Center  522 is at   4.389003  0.772819 -1.916031
      ESP Fit Center  523 is at   4.168017  1.525428 -1.916031
      ESP Fit Center  524 is at   3.575221  2.039089 -1.916031
      ESP Fit Center  525 is at   4.168017  0.020210 -1.916031
      ESP Fit Center  526 is at   3.728789  0.772819 -2.252427
      ESP Fit Center  527 is at   3.362862  1.406623 -2.252427
      ESP Fit Center  528 is at   2.265081  0.772819 -2.252427
      ESP Fit Center  529 is at   3.362862  0.139015 -2.252427
      ESP Fit Center  530 is at   2.996935  0.772819 -2.368341
      ESP Fit Center  531 is at   2.546037 -0.561327  2.368256
      ESP Fit Center  532 is at   3.277891 -0.561327  2.252342
      ESP Fit Center  533 is at   2.180110  0.072477  2.252342
      ESP Fit Center  534 is at   2.180110 -1.195131  2.252342
      ESP Fit Center  535 is at   3.277891 -0.561327 -2.252486
      ESP Fit Center  536 is at   2.180110  0.072477 -2.252486
      ESP Fit Center  537 is at   2.180110 -1.195131 -2.252486
      ESP Fit Center  538 is at   2.546037 -0.561327 -2.368400
      ESP Fit Center  539 is at   1.735667 -2.073180  1.916055
      ESP Fit Center  540 is at   1.735667 -2.073180 -1.915981
      ESP Fit Center  541 is at   1.070424  2.223928  2.252431
      ESP Fit Center  542 is at   0.506385  2.968023  1.916035
      ESP Fit Center  543 is at   0.704497  3.506142  1.392085
      ESP Fit Center  544 is at   0.704497  3.506142 -1.392052
      ESP Fit Center  545 is at   0.506385  2.968023 -1.916001
      ESP Fit Center  546 is at   1.070424  2.223928 -2.252397
      ESP Fit Center  547 is at  -1.839563 -0.143704  4.262991
      ESP Fit Center  548 is at  -1.099302 -0.143704  4.198226
      ESP Fit Center  549 is at  -1.469433  0.497380  4.198226
      ESP Fit Center  550 is at  -2.209693  0.497380  4.198226
      ESP Fit Center  551 is at  -2.579824 -0.143704  4.198226
      ESP Fit Center  552 is at  -2.209693 -0.784789  4.198226
      ESP Fit Center  553 is at  -1.469433 -0.784789  4.198226
      ESP Fit Center  554 is at  -0.381534 -0.143704  4.005901
      ESP Fit Center  555 is at  -0.576873  0.585310  4.005901
      ESP Fit Center  556 is at  -1.110549  1.118986  4.005901
      ESP Fit Center  557 is at  -1.839563  1.314325  4.005901
      ESP Fit Center  558 is at  -2.568577  1.118986  4.005901
      ESP Fit Center  559 is at  -3.102253  0.585310  4.005901
      ESP Fit Center  560 is at  -3.297592 -0.143704  4.005901
      ESP Fit Center  561 is at  -3.102253 -0.872718  4.005901
      ESP Fit Center  562 is at  -2.568577 -1.406394  4.005901
      ESP Fit Center  563 is at  -1.839563 -1.601733  4.005901
      ESP Fit Center  564 is at  -1.110549 -1.406394  4.005901
      ESP Fit Center  565 is at  -0.576873 -0.872718  4.005901
      ESP Fit Center  566 is at   0.291932 -0.143704  3.691858
      ESP Fit Center  567 is at   0.163387  0.585310  3.691858
      ESP Fit Center  568 is at  -0.206743  1.226395  3.691858
      ESP Fit Center  569 is at  -0.773815  1.702225  3.691858
      ESP Fit Center  570 is at  -1.469433  1.955409  3.691858
      ESP Fit Center  571 is at  -2.209693  1.955409  3.691858
      ESP Fit Center  572 is at  -2.905311  1.702225  3.691858
      ESP Fit Center  573 is at  -3.472383  1.226395  3.691858
      ESP Fit Center  574 is at  -3.842513  0.585310  3.691858
      ESP Fit Center  575 is at  -3.971058 -0.143704  3.691858
      ESP Fit Center  576 is at  -3.842513 -0.872718  3.691858
      ESP Fit Center  577 is at  -3.472383 -1.513803  3.691858
      ESP Fit Center  578 is at  -2.905311 -1.989633  3.691858
      ESP Fit Center  579 is at  -2.209693 -2.242817  3.691858
      ESP Fit Center  580 is at  -1.469433 -2.242817  3.691858
      ESP Fit Center  581 is at  -0.773815 -1.989633  3.691858
      ESP Fit Center  582 is at  -0.206743 -1.513803  3.691858
      ESP Fit Center  583 is at   0.163387 -0.872718  3.691858
      ESP Fit Center  584 is at   0.900635 -0.143704  3.265640
      ESP Fit Center  585 is at   0.799021  0.595592  3.265640
      ESP Fit Center  586 is at   0.501715  1.280059  3.265640
      ESP Fit Center  587 is at   0.030767  1.858931  3.265640
      ESP Fit Center  588 is at  -0.578894  2.289277  3.265640
      ESP Fit Center  589 is at  -1.282053  2.539180  3.265640
      ESP Fit Center  590 is at  -2.026561  2.590105  3.265640
      ESP Fit Center  591 is at  -2.757199  2.438277  3.265640
      ESP Fit Center  592 is at  -3.419781  2.094955  3.265640
      ESP Fit Center  593 is at  -3.965165  1.585602  3.265640
      ESP Fit Center  594 is at  -4.352903  0.947994  3.265640
      ESP Fit Center  595 is at  -4.554238  0.229419  3.265640
      ESP Fit Center  596 is at  -4.554238 -0.516828  3.265640
      ESP Fit Center  597 is at  -4.352903 -1.235402  3.265640
      ESP Fit Center  598 is at  -3.965165 -1.873010  3.265640
      ESP Fit Center  599 is at  -3.419781 -2.382363  3.265640
      ESP Fit Center  600 is at  -2.757199 -2.725685  3.265640
      ESP Fit Center  601 is at  -2.026561 -2.877514  3.265640
      ESP Fit Center  602 is at  -1.282053 -2.826588  3.265640
      ESP Fit Center  603 is at  -0.578894 -2.576685  3.265640
      ESP Fit Center  604 is at   0.030767 -2.146339  3.265640
      ESP Fit Center  605 is at   0.501715 -1.567467  3.265640
      ESP Fit Center  606 is at   0.799021 -0.883001  3.265640
      ESP Fit Center  607 is at   1.426077 -0.143704  2.740197
      ESP Fit Center  608 is at   1.344201  0.582969  2.740197
      ESP Fit Center  609 is at   1.102677  1.273204  2.740197
      ESP Fit Center  610 is at   0.713617  1.892389  2.740197
      ESP Fit Center  611 is at   0.196530  2.409476  2.740197
      ESP Fit Center  612 is at  -0.422655  2.798536  2.740197
      ESP Fit Center  613 is at  -1.112890  3.040060  2.740197
      ESP Fit Center  614 is at  -1.839563  3.121936  2.740197
      ESP Fit Center  615 is at  -2.566236  3.040060  2.740197
      ESP Fit Center  616 is at  -3.256471  2.798536  2.740197
      ESP Fit Center  617 is at  -3.875656  2.409476  2.740197
      ESP Fit Center  618 is at  -4.392743  1.892389  2.740197
      ESP Fit Center  619 is at  -4.781803  1.273204  2.740197
      ESP Fit Center  620 is at  -5.023327  0.582969  2.740197
      ESP Fit Center  621 is at  -5.105203 -0.143704  2.740197
      ESP Fit Center  622 is at  -5.023327 -0.870377  2.740197
      ESP Fit Center  623 is at  -4.781803 -1.560612  2.740197
      ESP Fit Center  624 is at  -4.392743 -2.179798  2.740197
      ESP Fit Center  625 is at  -3.875656 -2.696884  2.740197
      ESP Fit Center  626 is at  -3.256471 -3.085944  2.740197
      ESP Fit Center  627 is at  -2.566236 -3.327468  2.740197
      ESP Fit Center  628 is at  -1.839563 -3.409344  2.740197
      ESP Fit Center  629 is at  -1.112890 -3.327468  2.740197
      ESP Fit Center  630 is at  -0.422655 -3.085944  2.740197
      ESP Fit Center  631 is at   0.196530 -2.696884  2.740197
      ESP Fit Center  632 is at   0.713617 -2.179798  2.740197
      ESP Fit Center  633 is at   1.102677 -1.560612  2.740197
      ESP Fit Center  634 is at   1.344201 -0.870377  2.740197
      ESP Fit Center  635 is at   1.781357  0.576542  2.131495
      ESP Fit Center  636 is at   0.211523  2.925964  2.131495
      ESP Fit Center  637 is at  -0.426750  3.267128  2.131495
      ESP Fit Center  638 is at  -1.119317  3.477216  2.131495
      ESP Fit Center  639 is at  -1.839563  3.548154  2.131495
      ESP Fit Center  640 is at  -2.559809  3.477216  2.131495
      ESP Fit Center  641 is at  -3.252376  3.267128  2.131495
      ESP Fit Center  642 is at  -3.890650  2.925964  2.131495
      ESP Fit Center  643 is at  -4.450101  2.466834  2.131495
      ESP Fit Center  644 is at  -4.909231  1.907382  2.131495
      ESP Fit Center  645 is at  -5.250395  1.269109  2.131495
      ESP Fit Center  646 is at  -5.460483  0.576542  2.131495
      ESP Fit Center  647 is at  -5.531421 -0.143704  2.131495
      ESP Fit Center  648 is at  -5.460483 -0.863950  2.131495
      ESP Fit Center  649 is at  -5.250395 -1.556517  2.131495
      ESP Fit Center  650 is at  -4.909231 -2.194791  2.131495
      ESP Fit Center  651 is at  -4.450101 -2.754242  2.131495
      ESP Fit Center  652 is at  -3.890650 -3.213372  2.131495
      ESP Fit Center  653 is at  -3.252376 -3.554536  2.131495
      ESP Fit Center  654 is at  -2.559809 -3.764624  2.131495
      ESP Fit Center  655 is at  -1.839563 -3.835562  2.131495
      ESP Fit Center  656 is at  -1.119317 -3.764624  2.131495
      ESP Fit Center  657 is at  -0.426750 -3.554536  2.131495
      ESP Fit Center  658 is at   0.211523 -3.213372  2.131495
      ESP Fit Center  659 is at   0.770975 -2.754242  2.131495
      ESP Fit Center  660 is at   1.230105 -2.194791  2.131495
      ESP Fit Center  661 is at  -0.743296  3.709274  1.458029
      ESP Fit Center  662 is at  -1.469945  3.845108  1.458029
      ESP Fit Center  663 is at  -2.209181  3.845108  1.458029
      ESP Fit Center  664 is at  -2.935830  3.709274  1.458029
      ESP Fit Center  665 is at  -3.625147  3.442231  1.458029
      ESP Fit Center  666 is at  -4.253658  3.053074  1.458029
      ESP Fit Center  667 is at  -4.799960  2.555054  1.458029
      ESP Fit Center  668 is at  -5.245449  1.965131  1.458029
      ESP Fit Center  669 is at  -5.574954  1.303394  1.458029
      ESP Fit Center  670 is at  -5.777256  0.592378  1.458029
      ESP Fit Center  671 is at  -5.845464 -0.143704  1.458029
      ESP Fit Center  672 is at  -5.777256 -0.879786  1.458029
      ESP Fit Center  673 is at  -5.574954 -1.590802  1.458029
      ESP Fit Center  674 is at  -5.245449 -2.252539  1.458029
      ESP Fit Center  675 is at  -4.799960 -2.842462  1.458029
      ESP Fit Center  676 is at  -4.253658 -3.340482  1.458029
      ESP Fit Center  677 is at  -3.625147 -3.729639  1.458029
      ESP Fit Center  678 is at  -2.935830 -3.996682  1.458029
      ESP Fit Center  679 is at  -2.209181 -4.132516  1.458029
      ESP Fit Center  680 is at  -1.469945 -4.132516  1.458029
      ESP Fit Center  681 is at  -0.743296 -3.996682  1.458029
      ESP Fit Center  682 is at  -0.053979 -3.729639  1.458029
      ESP Fit Center  683 is at   0.574532 -3.340482  1.458029
      ESP Fit Center  684 is at  -1.110549  3.990742  0.740260
      ESP Fit Center  685 is at  -1.839563  4.054522  0.740260
      ESP Fit Center  686 is at  -2.568577  3.990742  0.740260
      ESP Fit Center  687 is at  -3.275441  3.801338  0.740260
      ESP Fit Center  688 is at  -3.938676  3.492067  0.740260
      ESP Fit Center  689 is at  -4.538131  3.072324  0.740260
      ESP Fit Center  690 is at  -5.055591  2.554864  0.740260
      ESP Fit Center  691 is at  -5.475334  1.955409  0.740260
      ESP Fit Center  692 is at  -5.784605  1.292174  0.740260
      ESP Fit Center  693 is at  -5.974009  0.585310  0.740260
      ESP Fit Center  694 is at  -6.037789 -0.143704  0.740260
      ESP Fit Center  695 is at  -5.974009 -0.872718  0.740260
      ESP Fit Center  696 is at  -5.784605 -1.579582  0.740260
      ESP Fit Center  697 is at  -5.475334 -2.242817  0.740260
      ESP Fit Center  698 is at  -5.055591 -2.842272  0.740260
      ESP Fit Center  699 is at  -4.538131 -3.359732  0.740260
      ESP Fit Center  700 is at  -3.938676 -3.779475  0.740260
      ESP Fit Center  701 is at  -3.275441 -4.088746  0.740260
      ESP Fit Center  702 is at  -2.568577 -4.278150  0.740260
      ESP Fit Center  703 is at  -1.839563 -4.341930  0.740260
      ESP Fit Center  704 is at  -1.110549 -4.278150  0.740260
      ESP Fit Center  705 is at  -0.403685 -4.088746  0.740260
      ESP Fit Center  706 is at   0.259550 -3.779475  0.740260
      ESP Fit Center  707 is at  -1.658637  4.115446  0.000000
      ESP Fit Center  708 is at  -2.381039  4.084758  0.000000
      ESP Fit Center  709 is at  -3.087864  3.932426  0.000000
      ESP Fit Center  710 is at  -3.758777  3.662831  0.000000
      ESP Fit Center  711 is at  -4.374479  3.283728  0.000000
      ESP Fit Center  712 is at  -4.917255  2.806025  0.000000
      ESP Fit Center  713 is at  -5.371492  2.243463  0.000000
      ESP Fit Center  714 is at  -5.724122  1.612227  0.000000
      ESP Fit Center  715 is at  -5.965000  0.930476  0.000000
      ESP Fit Center  716 is at  -6.087196  0.217823  0.000000
      ESP Fit Center  717 is at  -6.087196 -0.505231  0.000000
      ESP Fit Center  718 is at  -5.965000 -1.217884  0.000000
      ESP Fit Center  719 is at  -5.724122 -1.899635  0.000000
      ESP Fit Center  720 is at  -5.371492 -2.530871  0.000000
      ESP Fit Center  721 is at  -4.917255 -3.093433  0.000000
      ESP Fit Center  722 is at  -4.374479 -3.571136  0.000000
      ESP Fit Center  723 is at  -3.758777 -3.950239  0.000000
      ESP Fit Center  724 is at  -3.087864 -4.219834  0.000000
      ESP Fit Center  725 is at  -2.381039 -4.372166  0.000000
      ESP Fit Center  726 is at  -1.658637 -4.402854  0.000000
      ESP Fit Center  727 is at  -0.941439 -4.311013  0.000000
      ESP Fit Center  728 is at  -0.250079 -4.099286  0.000000
      ESP Fit Center  729 is at   0.395554 -3.773765  0.000000
      ESP Fit Center  730 is at  -1.110549  3.990742 -0.740261
      ESP Fit Center  731 is at  -1.839563  4.054522 -0.740261
      ESP Fit Center  732 is at  -2.568577  3.990742 -0.740261
      ESP Fit Center  733 is at  -3.275441  3.801338 -0.740261
      ESP Fit Center  734 is at  -3.938676  3.492067 -0.740261
      ESP Fit Center  735 is at  -4.538131  3.072324 -0.740261
      ESP Fit Center  736 is at  -5.055591  2.554864 -0.740261
      ESP Fit Center  737 is at  -5.475334  1.955409 -0.740261
      ESP Fit Center  738 is at  -5.784605  1.292174 -0.740261
      ESP Fit Center  739 is at  -5.974009  0.585310 -0.740261
      ESP Fit Center  740 is at  -6.037789 -0.143704 -0.740261
      ESP Fit Center  741 is at  -5.974009 -0.872718 -0.740261
      ESP Fit Center  742 is at  -5.784605 -1.579582 -0.740261
      ESP Fit Center  743 is at  -5.475334 -2.242817 -0.740261
      ESP Fit Center  744 is at  -5.055591 -2.842272 -0.740261
      ESP Fit Center  745 is at  -4.538131 -3.359732 -0.740261
      ESP Fit Center  746 is at  -3.938676 -3.779475 -0.740261
      ESP Fit Center  747 is at  -3.275441 -4.088746 -0.740261
      ESP Fit Center  748 is at  -2.568577 -4.278150 -0.740261
      ESP Fit Center  749 is at  -1.839563 -4.341930 -0.740261
      ESP Fit Center  750 is at  -1.110549 -4.278150 -0.740261
      ESP Fit Center  751 is at  -0.403685 -4.088746 -0.740261
      ESP Fit Center  752 is at   0.259550 -3.779475 -0.740261
      ESP Fit Center  753 is at  -0.743296  3.709274 -1.458029
      ESP Fit Center  754 is at  -1.469945  3.845108 -1.458029
      ESP Fit Center  755 is at  -2.209181  3.845108 -1.458029
      ESP Fit Center  756 is at  -2.935830  3.709274 -1.458029
      ESP Fit Center  757 is at  -3.625147  3.442231 -1.458029
      ESP Fit Center  758 is at  -4.253658  3.053074 -1.458029
      ESP Fit Center  759 is at  -4.799960  2.555054 -1.458029
      ESP Fit Center  760 is at  -5.245449  1.965131 -1.458029
      ESP Fit Center  761 is at  -5.574954  1.303394 -1.458029
      ESP Fit Center  762 is at  -5.777256  0.592378 -1.458029
      ESP Fit Center  763 is at  -5.845464 -0.143704 -1.458029
      ESP Fit Center  764 is at  -5.777256 -0.879786 -1.458029
      ESP Fit Center  765 is at  -5.574954 -1.590802 -1.458029
      ESP Fit Center  766 is at  -5.245449 -2.252539 -1.458029
      ESP Fit Center  767 is at  -4.799960 -2.842462 -1.458029
      ESP Fit Center  768 is at  -4.253658 -3.340482 -1.458029
[...]
 2708 Fit      -0.009781
 2709 Fit      -0.009748
 2710 Fit      -0.008929
 2711 Fit      -0.007630
 2712 Fit      -0.006294
 2713 Fit      -0.005258
 2714 Fit      -0.004657
 2715 Fit      -0.004462
 2716 Fit      -0.004553
 2717 Fit      -0.004791
 2718 Fit      -0.005055
 2719 Fit      -0.005265
 2720 Fit      -0.005380
 2721 Fit      -0.005389
 2722 Fit      -0.005305
 2723 Fit      -0.005153
 2724 Fit      -0.004965
 2725 Fit      -0.004771
 2726 Fit      -0.004599
 2727 Fit      -0.004467
 2728 Fit      -0.004379
 2729 Fit      -0.004330
 2730 Fit      -0.004297
 2731 Fit      -0.004251
 2732 Fit      -0.004154
 2733 Fit      -0.003964
 2734 Fit      -0.003647
 2735 Fit      -0.003179
 2736 Fit      -0.002560
 2737 Fit      -0.001834
 2738 Fit      -0.001113
 2739 Fit      -0.000613
 2740 Fit      -0.000667
 2741 Fit      -0.001629
 2742 Fit      -0.003546
 2743 Fit      -0.005850
 2744 Fit      -0.007765
 2745 Fit      -0.006155
 2746 Fit      -0.004565
 2747 Fit      -0.003628
 2748 Fit      -0.003275
 2749 Fit      -0.003355
 2750 Fit      -0.003693
 2751 Fit      -0.004132
 2752 Fit      -0.004554
 2753 Fit      -0.004888
 2754 Fit      -0.005100
 2755 Fit      -0.005185
 2756 Fit      -0.005156
 2757 Fit      -0.005036
 2758 Fit      -0.004856
 2759 Fit      -0.004649
 2760 Fit      -0.004444
 2761 Fit      -0.004265
 2762 Fit      -0.004130
 2763 Fit      -0.004043
 2764 Fit      -0.004001
 2765 Fit      -0.003985
 2766 Fit      -0.003971
 2767 Fit      -0.003924
 2768 Fit      -0.003803
 2769 Fit      -0.003568
 2770 Fit      -0.003178
 2771 Fit      -0.002600
 2772 Fit      -0.001816
 2773 Fit      -0.000832
 2774 Fit       0.000290
 2775 Fit       0.001390
 2776 Fit       0.002130
 2777 Fit       0.001914
 2778 Fit       0.000035
 2779 Fit      -0.003508
 2780 Fit      -0.001746
 2781 Fit      -0.001462
 2782 Fit      -0.001697
 2783 Fit      -0.002245
 2784 Fit      -0.002925
 2785 Fit      -0.003596
 2786 Fit      -0.004169
 2787 Fit      -0.004597
 2788 Fit      -0.004870
 2789 Fit      -0.004993
 2790 Fit      -0.004986
 2791 Fit      -0.004877
 2792 Fit      -0.004697
 2793 Fit      -0.004480
 2794 Fit      -0.004257
 2795 Fit      -0.004053
 2796 Fit      -0.003889
 2797 Fit      -0.003775
 2798 Fit      -0.003714
 2799 Fit      -0.003695
 2800 Fit      -0.003700
 2801 Fit      -0.003702
 2802 Fit      -0.003664
 2803 Fit      -0.003547
 2804 Fit      -0.003305
 2805 Fit      -0.002894
 2806 Fit      -0.002268
 2807 Fit      -0.001385
 2808 Fit      -0.000211
 2809 Fit       0.001268
 2810 Fit       0.003018
 2811 Fit       0.004876
 2812 Fit       0.006361
 2813 Fit       0.006283
 2814 Fit       0.001239
 2815 Fit       0.000446
 2816 Fit      -0.000532
 2817 Fit      -0.001575
 2818 Fit      -0.002555
 2819 Fit      -0.003387
 2820 Fit      -0.004033
 2821 Fit      -0.004483
 2822 Fit      -0.004750
 2823 Fit      -0.004853
 2824 Fit      -0.004823
 2825 Fit      -0.004691
 2826 Fit      -0.004492
 2827 Fit      -0.004259
 2828 Fit      -0.004023
 2829 Fit      -0.003810
 2830 Fit      -0.003640
 2831 Fit      -0.003524
 2832 Fit      -0.003463
 2833 Fit      -0.003450
 2834 Fit      -0.003466
 2835 Fit      -0.003486
 2836 Fit      -0.003476
 2837 Fit      -0.003394
 2838 Fit      -0.003197
 2839 Fit      -0.002833
 2840 Fit      -0.002251
 2841 Fit      -0.001391
 2842 Fit      -0.000191
 2843 Fit       0.001425
 2844 Fit       0.003541
 2845 Fit       0.006242
 2846 Fit       0.009559
 2847 Fit       0.013171
 2848 Fit       0.002997
 2849 Fit       0.001397
 2850 Fit      -0.000079
 2851 Fit      -0.001398
 2852 Fit      -0.002507
 2853 Fit      -0.003381
 2854 Fit      -0.004022
 2855 Fit      -0.004447
 2856 Fit      -0.004681
 2857 Fit      -0.004754
 2858 Fit      -0.004698
 2859 Fit      -0.004547
 2860 Fit      -0.004334
 2861 Fit      -0.004093
 2862 Fit      -0.003852
 2863 Fit      -0.003637
 2864 Fit      -0.003465
 2865 Fit      -0.003348
 2866 Fit      -0.003286
 2867 Fit      -0.003275
 2868 Fit      -0.003297
 2869 Fit      -0.003328
 2870 Fit      -0.003339
 2871 Fit      -0.003290
 2872 Fit      -0.003138
 2873 Fit      -0.002836
 2874 Fit      -0.002329
 2875 Fit      -0.001557
 2876 Fit      -0.000445
 2877 Fit       0.001101
 2878 Fit       0.003210
 2879 Fit       0.006085
 2880 Fit       0.010068
 2881 Fit       0.015806
 2882 Fit       0.004457
 2883 Fit       0.002326
 2884 Fit       0.000525
 2885 Fit      -0.001007
 2886 Fit      -0.002253
 2887 Fit      -0.003215
 2888 Fit      -0.003911
 2889 Fit      -0.004369
 2890 Fit      -0.004621
 2891 Fit      -0.004701
 2892 Fit      -0.004645
 2893 Fit      -0.004489
 2894 Fit      -0.004269
 2895 Fit      -0.004020
 2896 Fit      -0.003771
 2897 Fit      -0.003549
 2898 Fit      -0.003373
 2899 Fit      -0.003253
 2900 Fit      -0.003193
 2901 Fit      -0.003184
 2902 Fit      -0.003211
 2903 Fit      -0.003249
 2904 Fit      -0.003264
 2905 Fit      -0.003218
 2906 Fit      -0.003065
 2907 Fit      -0.002754
 2908 Fit      -0.002226
 2909 Fit      -0.001413
 2910 Fit      -0.000230
 2911 Fit       0.001436
 2912 Fit       0.003759
 2913 Fit       0.007030
 2914 Fit       0.011826
 2915 Fit       0.004457
 2916 Fit       0.002326
 2917 Fit       0.000525
 2918 Fit      -0.001007
 2919 Fit      -0.002253
 2920 Fit      -0.003215
 2921 Fit      -0.003911
 2922 Fit      -0.004369
 2923 Fit      -0.004621
 2924 Fit      -0.004701
 2925 Fit      -0.004645
 2926 Fit      -0.004489
 2927 Fit      -0.004269
 2928 Fit      -0.004020
 2929 Fit      -0.003771
 2930 Fit      -0.003549
 2931 Fit      -0.003373
 2932 Fit      -0.003254
 2933 Fit      -0.003193
 2934 Fit      -0.003184
 2935 Fit      -0.003211
 2936 Fit      -0.003249
 2937 Fit      -0.003264
 2938 Fit      -0.003219
 2939 Fit      -0.003066
 2940 Fit      -0.002754
 2941 Fit      -0.002226
 2942 Fit      -0.001413
 2943 Fit      -0.000231
 2944 Fit       0.001436
 2945 Fit       0.003758
 2946 Fit       0.007029
 2947 Fit       0.011824
 2948 Fit       0.002997
 2949 Fit       0.001397
 2950 Fit      -0.000079
 2951 Fit      -0.001398
 2952 Fit      -0.002507
 2953 Fit      -0.003381
 2954 Fit      -0.004022
 2955 Fit      -0.004447
 2956 Fit      -0.004681
 2957 Fit      -0.004754
 2958 Fit      -0.004698
 2959 Fit      -0.004547
 2960 Fit      -0.004334
 2961 Fit      -0.004093
 2962 Fit      -0.003852
 2963 Fit      -0.003637
 2964 Fit      -0.003465
 2965 Fit      -0.003348
 2966 Fit      -0.003287
 2967 Fit      -0.003275
 2968 Fit      -0.003297
 2969 Fit      -0.003329
 2970 Fit      -0.003339
 2971 Fit      -0.003290
 2972 Fit      -0.003139
 2973 Fit      -0.002837
 2974 Fit      -0.002330
 2975 Fit      -0.001558
 2976 Fit      -0.000446
 2977 Fit       0.001099
 2978 Fit       0.003207
 2979 Fit       0.006081
 2980 Fit       0.010063
 2981 Fit       0.015797
 2982 Fit       0.001238
 2983 Fit       0.000446
 2984 Fit      -0.000532
 2985 Fit      -0.001575
 2986 Fit      -0.002555
 2987 Fit      -0.003388
 2988 Fit      -0.004033
 2989 Fit      -0.004484
 2990 Fit      -0.004750
 2991 Fit      -0.004854
 2992 Fit      -0.004823
 2993 Fit      -0.004691
 2994 Fit      -0.004492
 2995 Fit      -0.004259
 2996 Fit      -0.004023
 2997 Fit      -0.003811
 2998 Fit      -0.003641
 2999 Fit      -0.003525
 3000 Fit      -0.003464
 3001 Fit      -0.003450
 3002 Fit      -0.003467
 3003 Fit      -0.003487
 3004 Fit      -0.003476
 3005 Fit      -0.003395
 3006 Fit      -0.003198
 3007 Fit      -0.002835
 3008 Fit      -0.002252
 3009 Fit      -0.001394
 3010 Fit      -0.000193
 3011 Fit       0.001422
 3012 Fit       0.003536
 3013 Fit       0.006235
 3014 Fit       0.009549
 3015 Fit       0.013154
 3016 Fit      -0.001747
 3017 Fit      -0.001463
 3018 Fit      -0.001697
 3019 Fit      -0.002246
 3020 Fit      -0.002926
 3021 Fit      -0.003597
 3022 Fit      -0.004169
 3023 Fit      -0.004598
 3024 Fit      -0.004871
 3025 Fit      -0.004993
 3026 Fit      -0.004987
 3027 Fit      -0.004877
 3028 Fit      -0.004698
 3029 Fit      -0.004481
 3030 Fit      -0.004257
 3031 Fit      -0.004054
 3032 Fit      -0.003890
 3033 Fit      -0.003776
 3034 Fit      -0.003715
 3035 Fit      -0.003696
 3036 Fit      -0.003701
 3037 Fit      -0.003703
 3038 Fit      -0.003665
 3039 Fit      -0.003548
 3040 Fit      -0.003307
 3041 Fit      -0.002896
 3042 Fit      -0.002271
 3043 Fit      -0.001388
 3044 Fit      -0.000215
 3045 Fit       0.001263
 3046 Fit       0.003010
 3047 Fit       0.004865
 3048 Fit       0.006345
 3049 Fit       0.006259
 3050 Fit      -0.006159
 3051 Fit      -0.004568
 3052 Fit      -0.003630
 3053 Fit      -0.003276
 3054 Fit      -0.003356
 3055 Fit      -0.003695
 3056 Fit      -0.004133
 3057 Fit      -0.004555
 3058 Fit      -0.004888
 3059 Fit      -0.005101
 3060 Fit      -0.005186
 3061 Fit      -0.005157
 3062 Fit      -0.005037
 3063 Fit      -0.004857
 3064 Fit      -0.004650
 3065 Fit      -0.004445
 3066 Fit      -0.004266
 3067 Fit      -0.004131
 3068 Fit      -0.004044
 3069 Fit      -0.004002
 3070 Fit      -0.003986
 3071 Fit      -0.003972
 3072 Fit      -0.003925
 3073 Fit      -0.003805
 3074 Fit      -0.003570
 3075 Fit      -0.003181
 3076 Fit      -0.002604
 3077 Fit      -0.001820
 3078 Fit      -0.000837
 3079 Fit       0.000283
 3080 Fit       0.001380
 3081 Fit       0.002116
 3082 Fit       0.001895
 3083 Fit       0.000009
 3084 Fit      -0.003543
 3085 Fit      -0.009087
 3086 Fit      -0.009798
 3087 Fit      -0.009761
 3088 Fit      -0.008938
 3089 Fit      -0.007636
 3090 Fit      -0.006299
 3091 Fit      -0.005261
 3092 Fit      -0.004659
 3093 Fit      -0.004463
 3094 Fit      -0.004555
 3095 Fit      -0.004792
 3096 Fit      -0.005056
 3097 Fit      -0.005266
 3098 Fit      -0.005381
 3099 Fit      -0.005390
 3100 Fit      -0.005306
 3101 Fit      -0.005154
 3102 Fit      -0.004966
 3103 Fit      -0.004772
 3104 Fit      -0.004600
 3105 Fit      -0.004468
 3106 Fit      -0.004381
 3107 Fit      -0.004331
 3108 Fit      -0.004299
 3109 Fit      -0.004253
 3110 Fit      -0.004156
 3111 Fit      -0.003967
 3112 Fit      -0.003650
 3113 Fit      -0.003183
 3114 Fit      -0.002565
 3115 Fit      -0.001840
 3116 Fit      -0.001121
 3117 Fit      -0.000624
 3118 Fit      -0.000682
 3119 Fit      -0.001647
 3120 Fit      -0.003569
 3121 Fit      -0.005876
 3122 Fit      -0.007791
 3123 Fit      -0.008036
 3124 Fit      -0.008586
 3125 Fit      -0.008559
 3126 Fit      -0.008007
 3127 Fit      -0.007158
 3128 Fit      -0.006308
 3129 Fit      -0.005679
 3130 Fit      -0.005349
 3131 Fit      -0.005277
 3132 Fit      -0.005360
 3133 Fit      -0.005492
 3134 Fit      -0.005594
 3135 Fit      -0.005624
 3136 Fit      -0.005572
 3137 Fit      -0.005450
 3138 Fit      -0.005285
 3139 Fit      -0.005108
 3140 Fit      -0.004945
 3141 Fit      -0.004817
 3142 Fit      -0.004727
 3143 Fit      -0.004666
 3144 Fit      -0.004610
 3145 Fit      -0.004526
 3146 Fit      -0.004376
 3147 Fit      -0.004129
 3148 Fit      -0.003771
 3149 Fit      -0.003320
 3150 Fit      -0.002844
 3151 Fit      -0.002481
 3152 Fit      -0.002438
 3153 Fit      -0.002935
 3154 Fit      -0.004047
 3155 Fit      -0.005540
 3156 Fit      -0.006976
 3157 Fit      -0.007355
 3158 Fit      -0.007783
 3159 Fit      -0.007750
 3160 Fit      -0.007345
 3161 Fit      -0.006775
 3162 Fit      -0.006266
 3163 Fit      -0.005945
 3164 Fit      -0.005820
 3165 Fit      -0.005819
 3166 Fit      -0.005853
 3167 Fit      -0.005855
 3168 Fit      -0.005795
 3169 Fit      -0.005675
 3170 Fit      -0.005518
 3171 Fit      -0.005355
 3172 Fit      -0.005212
 3173 Fit      -0.005101
 3174 Fit      -0.005017
 3175 Fit      -0.004938
 3176 Fit      -0.004830
 3177 Fit      -0.004662
 3178 Fit      -0.004417
 3179 Fit      -0.004115
 3180 Fit      -0.003828
 3181 Fit      -0.003692
 3182 Fit      -0.003876
 3183 Fit      -0.004492
 3184 Fit      -0.005465
 3185 Fit      -0.006520
 3186 Fit      -0.006928
 3187 Fit      -0.007253
 3188 Fit      -0.007221
 3189 Fit      -0.006936
 3190 Fit      -0.006584
 3191 Fit      -0.006315
 3192 Fit      -0.006175
 3193 Fit      -0.006119
 3194 Fit      -0.006078
 3195 Fit      -0.006003
 3196 Fit      -0.005882
 3197 Fit      -0.005734
 3198 Fit      -0.005585
 3199 Fit      -0.005457
 3200 Fit      -0.005353
 3201 Fit      -0.005254
 3202 Fit      -0.005133
 3203 Fit      -0.004971
 3204 Fit      -0.004781
 3205 Fit      -0.004633
 3206 Fit      -0.004649
 3207 Fit      -0.004950
 3208 Fit      -0.005552
 3209 Fit      -0.006297
 3210 Fit      -0.006672
 3211 Fit      -0.006916
 3212 Fit      -0.006869
 3213 Fit      -0.006666
 3214 Fit      -0.006470
 3215 Fit      -0.006343
 3216 Fit      -0.006249
 3217 Fit      -0.006138
 3218 Fit      -0.005996
 3219 Fit      -0.005846
 3220 Fit      -0.005711
 3221 Fit      -0.005593
 3222 Fit      -0.005475
 3223 Fit      -0.005351
 3224 Fit      -0.005270
 3225 Fit      -0.005343
 3226 Fit      -0.005664
 3227 Fit      -0.006182
 3228 Fit      -0.006520
 3229 Fit      -0.006695
 3230 Fit      -0.006633
 3231 Fit      -0.006493
 3232 Fit      -0.006359
 3233 Fit      -0.006213
 3234 Fit      -0.006054
 3235 Fit      -0.005910
 3236 Fit      -0.005795
 3237 Fit      -0.005736
 3238 Fit      -0.005829
 3239 Fit      -0.006143
 3240 Fit      -0.006418
 3241 Fit      -0.006514
 3242 Fit      -0.006390
 3243 Fit      -0.006211
 3244 Fit      -0.006082
 3245 Fit      -0.006146
 3246 Fit      -0.006326
 3247 Fit      -0.004545
 3248 Fit      -0.001312
 3249 Fit      -0.004614
 3250 Fit      -0.002842
 3251 Fit      -0.000852
 3252 Fit       0.003096
 3253 Fit       0.001043
 3254 Fit      -0.003258
 3255 Fit       0.000597
 3256 Fit       0.002591
 3257 Fit       0.003288
 3258 Fit       0.003516
 3259 Fit       0.008604
 3260 Fit       0.007388
 3261 Fit       0.004128
 3262 Fit       0.007019
 3263 Fit       0.007778
 3264 Fit       0.007811
 3265 Fit       0.007991
 3266 Fit       0.008480
 3267 Fit       0.012006
 3268 Fit       0.013265
 3269 Fit       0.012586
 3270 Fit       0.012289
 3271 Fit       0.012850
 3272 Fit       0.013986
 3273 Fit       0.017135
 3274 Fit       0.016189
 3275 Fit       0.016308
 3276 Fit       0.017541
 3277 Fit       0.018698
 3278 Fit       0.019182
 3279 Fit       0.020350
 3280 Fit       0.019591
 3281 Fit       0.020279
 3282 Fit       0.018679
 3283 Fit       0.019159
 3284 Fit       0.017106
 3285 Fit       0.016155
 3286 Fit       0.016268
 3287 Fit       0.017493
 3288 Fit       0.011942
 3289 Fit       0.013230
 3290 Fit       0.012545
 3291 Fit       0.012241
 3292 Fit       0.012792
 3293 Fit       0.013920
 3294 Fit       0.008531
 3295 Fit       0.007317
 3296 Fit       0.004065
 3297 Fit       0.006983
 3298 Fit       0.007735
 3299 Fit       0.007760
 3300 Fit       0.007932
 3301 Fit       0.008412
 3302 Fit       0.003028
 3303 Fit       0.000978
 3304 Fit      -0.003312
 3305 Fit       0.000559
 3306 Fit       0.002545
 3307 Fit       0.003234
 3308 Fit       0.003453
 3309 Fit      -0.001372
 3310 Fit      -0.004666
 3311 Fit      -0.002886
 3312 Fit      -0.000905
 3313 Fit      -0.004594
 3314 Fit       0.002742
 3315 Fit       0.001615
 3316 Fit       0.005683
 3317 Fit       0.005688
 3318 Fit       0.005333
 3319 Fit       0.004577
 3320 Fit       0.003396
 3321 Fit       0.008428
 3322 Fit       0.007789
 3323 Fit       0.007350
 3324 Fit       0.006865
 3325 Fit       0.006235
 3326 Fit       0.005509
 3327 Fit       0.004905
 3328 Fit       0.010059
 3329 Fit       0.008902
 3330 Fit       0.008288
 3331 Fit       0.007777
 3332 Fit       0.007205
 3333 Fit       0.006606
 3334 Fit       0.006267
 3335 Fit       0.010058
 3336 Fit       0.008901
 3337 Fit       0.008287
 3338 Fit       0.007776
 3339 Fit       0.007205
 3340 Fit       0.006606
 3341 Fit       0.006267
 3342 Fit       0.008425
 3343 Fit       0.007787
 3344 Fit       0.007349
 3345 Fit       0.006864
 3346 Fit       0.006235
 3347 Fit       0.005508
 3348 Fit       0.004905
 3349 Fit       0.005678
 3350 Fit       0.005686
 3351 Fit       0.005331
 3352 Fit       0.004576
 3353 Fit       0.003395
 3354 Fit       0.002738
 3355 Fit       0.001613
 3356 Fit       0.007454
 3357 Fit       0.005528
 3358 Fit       0.011642
 3359 Fit       0.009494
 3360 Fit       0.007714
 3361 Fit       0.014329
 3362 Fit       0.014523
 3363 Fit       0.012067
 3364 Fit       0.010386
 3365 Fit       0.009288
 3366 Fit       0.018427
 3367 Fit       0.015995
 3368 Fit       0.013238
 3369 Fit       0.011493
 3370 Fit       0.010506
 3371 Fit       0.010611
 3372 Fit       0.020816
 3373 Fit       0.015990
 3374 Fit       0.013234
 3375 Fit       0.011491
 3376 Fit       0.010504
 3377 Fit       0.010609
 3378 Fit       0.020806
 3379 Fit       0.014508
 3380 Fit       0.012058
 3381 Fit       0.010379
 3382 Fit       0.009283
 3383 Fit       0.018400
 3384 Fit       0.011620
 3385 Fit       0.009480
 3386 Fit       0.007704
 3387 Fit       0.014288
 3388 Fit       0.007427
 3389 Fit       0.005511
 3390 Fit       0.012983
 3391 Fit       0.017266
 3392 Fit       0.016959
 3393 Fit       0.015705
 3394 Fit       0.016872
 3395 Fit       0.020033
 3396 Fit       0.020113
 3397 Fit       0.020068
 3398 Fit       0.019245
 3399 Fit       0.019709
 3400 Fit       0.021387
 3401 Fit       0.021623
 3402 Fit       0.022050
 3403 Fit       0.020685
 3404 Fit       0.021051
 3405 Fit       0.021381
 3406 Fit       0.021618
 3407 Fit       0.022045
 3408 Fit       0.020678
 3409 Fit       0.021045
 3410 Fit       0.020015
 3411 Fit       0.020095
 3412 Fit       0.020053
 3413 Fit       0.019225
 3414 Fit       0.019690
 3415 Fit       0.017233
 3416 Fit       0.016929
 3417 Fit       0.015677
 3418 Fit       0.016838
 3419 Fit       0.012934
 3420 Fit       0.011544
 3421 Fit       0.015166
 3422 Fit       0.015775
 3423 Fit       0.015686
 3424 Fit       0.018058
 3425 Fit       0.018425
 3426 Fit       0.018492
 3427 Fit       0.018502
 3428 Fit       0.019091
 3429 Fit       0.019514
 3430 Fit       0.019762
 3431 Fit       0.019855
 3432 Fit       0.020130
 3433 Fit       0.019088
 3434 Fit       0.019511
 3435 Fit       0.019758
 3436 Fit       0.019850
 3437 Fit       0.020123
 3438 Fit       0.018048
 3439 Fit       0.018413
 3440 Fit       0.018477
 3441 Fit       0.018481
 3442 Fit       0.015149
 3443 Fit       0.015754
 3444 Fit       0.015660
 3445 Fit       0.011515
 -----------------------------------------------------------------
 Leave Link  602 at Fri Jan 17 11:54:38 2014, MaxMem=   235929600 cpu:         0.6

 Test job not archived.
 1\1\GINC-G29\SP\RHF\Gen\C6H6I1N1\KOLAR\17-Jan-2014\0\\# hf/gen pseudo=
 read pop=(mk, readradii) iop(6/33=2,6/41=5,6/42=2)\\na resp\\0,1\C,0,2
 .083565,1.821216,0.000013\C,0,2.996935,0.772819,-0.000013\C,0,2.546037
 ,-0.561327,-0.000072\C,0,1.157381,-0.80691,0.000037\C,0,0.273261,0.265
 26,0.000023\C,0,0.704497,1.590124,0.000017\I,0,-1.839563,-0.143704,0.\
 N,0,3.438168,-1.609641,-0.000149\H,0,2.449752,2.844807,-0.000017\H,0,4
 .064775,0.977592,-0.000051\H,0,0.792071,-1.828937,0.000142\H,0,0.00089
 9,2.413475,-0.000064\H,0,4.431076,-1.445473,0.000995\H,0,3.121039,-2.5
 64751,0.000026\\Version=AM64L-G09RevD.01\State=1-A\HF=-296.2943254\RMS
 D=7.210e-09\Dipole=1.2795165,-0.3603136,0.0009215\Quadrupole=5.878138,
 2.551983,-8.430121,-2.7046734,0.0081379,-0.0033429\PG=C01 [X(C6H6I1N1)
 ]\\@


 BETTER TO HUNT IN FIELDS, FOR HEALTH UNBOUGHT
 THAN FEE THE DOCTOR FOR A NAUSEOUS DRAUGHT.
 THE WISE, FOR CURE, ON EXERCISE DEPEND;
 GOD NEVER MADE HIS WORK FOR MAN TO MEND.
     -- JOHN DRYDEN (1631-1700)
 Job cpu time:       0 days  0 hours  0 minutes  6.5 seconds.
 File lengths (MBytes):  RWF=      7 Int=      0 D2E=      0 Chk=      2 Scr=      1
 Normal termination of Gaussian 09 at Fri Jan 17 11:54:38 2014.
6.13user 0.39system 0:07.05elapsed 92%CPU (0avgtext+0avgdata 1010928maxresident)k
24inputs+15976outputs (0major+215836minor)pagefaults 0swaps
