Linux g33 2.6.38.6-client #1 SMP Tue Jun 12 11:27:21 CEST 2012 x86_64 GNU/Linux
Thu Jan 16 22:36:46 CET 2014

 Entering Gaussian System, Link 0=/usr/local/programs/common/gaussian/gaussian09_d01/arch/amd64-pgi_10.4.0-acml/g09/g09
 Initial command:
 /usr/local/programs/common/gaussian/gaussian09_d01/arch/amd64-pgi_10.4.0-acml/g09/l1.exe "/scratch/kolar/g09_26057/Gau-1865.inp" -scrdir="/scratch/kolar/g09_26057/"
 Entering Link 1 = /usr/local/programs/common/gaussian/gaussian09_d01/arch/amd64-pgi_10.4.0-acml/g09/l1.exe PID=      1869.
  
 Copyright (c) 1988,1990,1992,1993,1995,1998,2003,2009,2013,
            Gaussian, Inc.  All Rights Reserved.
  
 This is part of the Gaussian(R) 09 program.  It is based on
 the Gaussian(R) 03 system (copyright 2003, Gaussian, Inc.),
 the Gaussian(R) 98 system (copyright 1998, Gaussian, Inc.),
 the Gaussian(R) 94 system (copyright 1995, Gaussian, Inc.),
 the Gaussian 92(TM) system (copyright 1992, Gaussian, Inc.),
 the Gaussian 90(TM) system (copyright 1990, Gaussian, Inc.),
 the Gaussian 88(TM) system (copyright 1988, Gaussian, Inc.),
 the Gaussian 86(TM) system (copyright 1986, Carnegie Mellon
 University), and the Gaussian 82(TM) system (copyright 1983,
 Carnegie Mellon University). Gaussian is a federally registered
 trademark of Gaussian, Inc.
  
 This software contains proprietary and confidential information,
 including trade secrets, belonging to Gaussian, Inc.
  
 This software is provided under written license and may be
 used, copied, transmitted, or stored only in accord with that
 written license.
  
 The following legend is applicable only to US Government
 contracts under FAR:
  
                    RESTRICTED RIGHTS LEGEND
  
 Use, reproduction and disclosure by the US Government is
 subject to restrictions as set forth in subparagraphs (a)
 and (c) of the Commercial Computer Software - Restricted
 Rights clause in FAR 52.227-19.
  
 Gaussian, Inc.
 340 Quinnipiac St., Bldg. 40, Wallingford CT 06492
  
  
 ---------------------------------------------------------------
 Warning -- This program may not be used in any manner that
 competes with the business of Gaussian, Inc. or will provide
 assistance to any competitor of Gaussian, Inc.  The licensee
 of this program is prohibited from giving any competitor of
 Gaussian, Inc. access to this program.  By using this program,
 the user acknowledges that Gaussian, Inc. is engaged in the
 business of creating and licensing software in the field of
 computational chemistry and represents and warrants to the
 licensee that it is not a competitor of Gaussian, Inc. and that
 it will not use this program in any manner prohibited above.
 ---------------------------------------------------------------
  

 Cite this work as:
 Gaussian 09, Revision D.01,
 M. J. Frisch, G. W. Trucks, H. B. Schlegel, G. E. Scuseria, 
 M. A. Robb, J. R. Cheeseman, G. Scalmani, V. Barone, B. Mennucci, 
 G. A. Petersson, H. Nakatsuji, M. Caricato, X. Li, H. P. Hratchian, 
 A. F. Izmaylov, J. Bloino, G. Zheng, J. L. Sonnenberg, M. Hada, 
 M. Ehara, K. Toyota, R. Fukuda, J. Hasegawa, M. Ishida, T. Nakajima, 
 Y. Honda, O. Kitao, H. Nakai, T. Vreven, J. A. Montgomery, Jr., 
 J. E. Peralta, F. Ogliaro, M. Bearpark, J. J. Heyd, E. Brothers, 
 K. N. Kudin, V. N. Staroverov, T. Keith, R. Kobayashi, J. Normand, 
 K. Raghavachari, A. Rendell, J. C. Burant, S. S. Iyengar, J. Tomasi, 
 M. Cossi, N. Rega, J. M. Millam, M. Klene, J. E. Knox, J. B. Cross, 
 V. Bakken, C. Adamo, J. Jaramillo, R. Gomperts, R. E. Stratmann, 
 O. Yazyev, A. J. Austin, R. Cammi, C. Pomelli, J. W. Ochterski, 
 R. L. Martin, K. Morokuma, V. G. Zakrzewski, G. A. Voth, 
 P. Salvador, J. J. Dannenberg, S. Dapprich, A. D. Daniels, 
 O. Farkas, J. B. Foresman, J. V. Ortiz, J. Cioslowski, 
 and D. J. Fox, Gaussian, Inc., Wallingford CT, 2013.
 
 ******************************************
 Gaussian 09:  AM64L-G09RevD.01 24-Apr-2013
                16-Jan-2014 
 ******************************************
 %mem=1800mb
 -----------------------------------------
 # hf/gen pop=mk iop(6/33=2,6/41=5,6/42=2)
 -----------------------------------------
 1/38=1/1;
 2/12=2,17=6,18=5,40=1/2;
 3/5=7,11=9,16=1,25=1,30=1/1,2,3;
 4//1;
 5/5=2,38=5/2;
 6/7=2,8=2,9=2,10=2,15=8,20=1,28=1,33=2,41=5,42=2/1,2;
 99/5=1,9=1/99;
 -------
 na resp
 -------
 Symbolic Z-matrix:
 Charge =  0 Multiplicity = 1
 6                     4.91746   1.20907   0.0629 
 6                     3.4338    0.93271   0.05813 
 6                     2.54377   2.01309   0.15787 
 6                     1.15935   1.87781   0.16141 
 6                     0.59346   0.59792   0.05671 
 6                     1.44146  -0.5047   -0.04855 
 6                     2.82505  -0.33376  -0.04524 
 7                     3.61689  -1.57434  -0.15847 
 8                     3.00792  -2.63076  -0.33519 
 8                     4.84224  -1.49718  -0.06868 
 7                    -0.79361   0.35023   0.04772 
 6                    -1.81075   1.25134   0.15572 
 8                    -1.67834   2.46338   0.27275 
 6                    -3.25303   0.72249   0.08024 
 1                    -3.7714    1.09399   0.96417 
 6                    -3.94313   1.18922  -1.1984 
 35                   -3.42414  -1.26693   0.23496 
 1                     5.40928   0.813    -0.83004 
 1                     5.08581   2.28936   0.10727 
 1                     5.41428   0.74051   0.91722 
 1                     2.96238   3.01249   0.23693 
 1                     0.51671   2.74316   0.24379 
 1                     1.05     -1.51134  -0.13604 
 1                    -1.07174  -0.62305  -0.01551 
 1                    -3.46615   0.75662  -2.08298 
 1                    -4.99736   0.90193  -1.19402 
 1                    -3.86892   2.28001  -1.25465 
 
                          Input orientation:                          
 ---------------------------------------------------------------------
 Center     Atomic      Atomic             Coordinates (Angstroms)
 Number     Number       Type             X           Y           Z
 ---------------------------------------------------------------------
      1          6           0        4.917462    1.209072    0.062900
      2          6           0        3.433799    0.932713    0.058129
      3          6           0        2.543768    2.013093    0.157866
      4          6           0        1.159349    1.877811    0.161411
      5          6           0        0.593460    0.597915    0.056713
      6          6           0        1.441464   -0.504704   -0.048553
      7          6           0        2.825049   -0.333757   -0.045237
      8          7           0        3.616894   -1.574341   -0.158471
      9          8           0        3.007920   -2.630755   -0.335193
     10          8           0        4.842237   -1.497178   -0.068678
     11          7           0       -0.793614    0.350232    0.047719
     12          6           0       -1.810752    1.251342    0.155720
     13          8           0       -1.678340    2.463377    0.272745
     14          6           0       -3.253033    0.722491    0.080240
     15          1           0       -3.771396    1.093988    0.964169
     16          6           0       -3.943132    1.189216   -1.198403
     17         35           0       -3.424142   -1.266931    0.234955
     18          1           0        5.409277    0.813003   -0.830044
     19          1           0        5.085810    2.289355    0.107271
     20          1           0        5.414277    0.740505    0.917222
     21          1           0        2.962375    3.012486    0.236932
     22          1           0        0.516708    2.743157    0.243793
     23          1           0        1.049997   -1.511344   -0.136042
     24          1           0       -1.071744   -0.623052   -0.015510
     25          1           0       -3.466154    0.756623   -2.082983
     26          1           0       -4.997358    0.901932   -1.194019
     27          1           0       -3.868917    2.280008   -1.254654
 ---------------------------------------------------------------------
                    Distance matrix (angstroms):
                    1          2          3          4          5
     1  C    0.000000
     2  C    1.509190   0.000000
     3  C    2.507966   1.403326   0.000000
     4  C    3.818420   2.465157   1.391018   0.000000
     5  C    4.366983   2.860003   2.411776   1.403327   0.000000
     6  C    3.877114   2.459054   2.756263   2.408330   1.394977
     7  C    2.601962   1.408974   2.372356   2.776381   2.420412
     8  N    3.080239   2.523046   3.757839   4.249612   3.729096
     9  O    4.306867   3.610316   4.692959   4.898061   4.050619
    10  O    2.710491   2.811432   4.201938   5.000716   4.738907
    11  N    5.775312   4.267366   3.730329   2.482033   1.409043
    12  C    6.728987   5.255127   4.420646   3.035456   2.493392
    13  O    6.717285   5.340689   4.247605   2.899614   2.947489
    14  C    8.184989   6.690172   5.939241   4.561849   3.848582
    15  H    8.736234   7.263729   6.432431   5.056782   4.485703
    16  C    8.949939   7.487575   6.678182   5.325276   4.744009
    17  Br   8.703020   7.204239   6.810319   5.559065   4.432894
    18  H    1.093664   2.169261   3.259958   4.492069   4.901499
    19  H    1.094222   2.138231   2.557510   3.948341   4.800493
    20  H    1.093730   2.167320   3.230468   4.468683   4.899090
    21  H    2.665512   2.140016   1.086402   2.131688   3.387387
    22  H    4.663987   3.438255   2.156235   1.081017   2.154751
    23  H    4.732603   3.419595   3.839191   3.403940   2.166692
    24  H    6.263658   4.767153   4.477862   3.356098   2.066127
    25  H    8.665711   7.226667   6.535999   5.262095   4.591727
    26  H    9.998892   8.523686   7.741502   6.379230   5.737073
    27  H    8.948928   7.541105   6.571833   5.239319   4.945900
                    6          7          8          9         10
     6  C    0.000000
     7  C    1.394110   0.000000
     8  N    2.426665   1.476106   0.000000
     9  O    2.656321   2.322438   1.232108   0.000000
    10  O    3.542692   2.328765   1.231049   2.172728   0.000000
    11  N    2.394944   3.683911   4.816542   4.846088   5.932056
    12  C    3.701666   4.903425   6.127197   6.207356   7.201873
    13  O    4.318092   5.310893   6.672977   6.948439   7.636785
    14  C    4.853957   6.170453   7.247642   7.114519   8.395386
    15  H    5.545749   6.824254   7.935183   7.843544   9.054037
    16  C    5.760677   7.032604   8.116200   7.978373   9.256117
    17  Br   4.933101   6.324690   7.058716   6.599735   8.275157
    18  H    4.253307   2.934146   3.059912   4.227394   2.497629
    19  H    4.594813   3.466268   4.142038   5.359187   3.798436
    20  H    4.273934   2.963860   3.121893   4.327181   2.511265
    21  H    3.842564   3.360925   4.650131   5.672351   4.895339
    22  H    3.389578   3.857379   5.330456   5.951495   6.065334
    23  H    1.083617   2.132080   2.567768   2.264112   3.792865
    24  H    2.516210   3.907630   4.786305   4.558150   5.978469
    25  H    5.460272   6.702281   7.701085   7.512838   8.841177
    26  H    6.689480   8.002292   9.022728   8.792152  10.190179
    27  H    6.116326   7.287224   8.490877   8.500111   9.568588
                   11         12         13         14         15
    11  N    0.000000
    12  C    1.363170   0.000000
    13  O    2.301903   1.224850   0.000000
    14  C    2.487645   1.538036   2.355292   0.000000
    15  H    3.203161   2.126611   2.595029   1.089973   0.000000
    16  C    3.489438   2.526767   2.986142   1.526105   2.171469
    17  Br   3.093534   2.991823   4.118792   2.002752   2.495251
    18  H    6.281758   7.300184   7.360312   8.710478   9.358574
    19  H    6.191233   6.974409   6.768411   8.484816   8.978490
    20  H    6.280626   7.282986   7.327268   8.707648   9.192592
    21  H    4.607695   5.088317   4.673226   6.625702   7.039402
    22  H    2.735229   2.765925   2.212996   4.280279   4.650434
    23  H    2.626430   3.987661   4.838320   4.853129   5.589638
    24  H    1.014217   2.022079   3.158654   2.564698   3.346060
    25  H    3.442022   2.827878   3.414490   2.173964   3.080929
    26  H    4.417890   3.478267   3.950366   2.167627   2.489507
    27  H    3.857162   2.698769   2.676789   2.141755   2.517802
                   16         17         18         19         20
    16  C    0.000000
    17  Br   2.890765   0.000000
    18  H    9.367218   9.137267   0.000000
    19  H    9.188954   9.224031   1.778428   0.000000
    20  H    9.604078   9.089166   1.748777   1.778440   0.000000
    21  H    7.284952   7.687718   3.458828   2.246933   3.411234
    22  H    4.938100   5.622382   5.368040   4.593612   5.333883
    23  H    5.775203   4.496142   4.988742   5.549081   5.022662
    24  H    3.595611   2.451752   6.688001   6.812684   6.693112
    25  H    1.094133   3.077235   8.963610   8.960054   9.373556
    26  H    1.092677   3.036600  10.413378  10.261022  10.624761
    27  H    1.094760   3.872665   9.403046   9.057707   9.657371
                   21         22         23         24         25
    21  H    0.000000
    22  H    2.460462   0.000000
    23  H    4.925580   4.304585   0.000000
    24  H    5.436449   3.731190   2.303340   0.000000
    25  H    7.197007   5.022290   5.415706   3.451253   0.000000
    26  H    8.358194   5.988517   6.596493   4.373203   1.776501
    27  H    7.030498   4.657634   6.310417   4.217513   1.780182
                   26         27
    26  H    0.000000
    27  H    1.782175   0.000000
 Stoichiometry    C10H11BrN2O3
 Framework group  C1[X(C10H11BrN2O3)]
 Deg. of freedom    75
 Full point group                 C1      NOp   1
 Largest Abelian subgroup         C1      NOp   1
 Largest concise Abelian subgroup C1      NOp   1
                         Standard orientation:                         
 ---------------------------------------------------------------------
 Center     Atomic      Atomic             Coordinates (Angstroms)
 Number     Number       Type             X           Y           Z
 ---------------------------------------------------------------------
      1          6           0       -4.917462    1.209072   -0.062900
      2          6           0       -3.433799    0.932713   -0.058129
      3          6           0       -2.543768    2.013093   -0.157866
      4          6           0       -1.159349    1.877811   -0.161411
      5          6           0       -0.593460    0.597915   -0.056713
      6          6           0       -1.441464   -0.504704    0.048553
      7          6           0       -2.825049   -0.333757    0.045237
      8          7           0       -3.616894   -1.574341    0.158471
      9          8           0       -3.007920   -2.630755    0.335193
     10          8           0       -4.842237   -1.497178    0.068678
     11          7           0        0.793614    0.350232   -0.047719
     12          6           0        1.810752    1.251342   -0.155720
     13          8           0        1.678340    2.463377   -0.272745
     14          6           0        3.253033    0.722491   -0.080240
     15          1           0        3.771396    1.093988   -0.964169
     16          6           0        3.943132    1.189216    1.198403
     17         35           0        3.424142   -1.266931   -0.234955
     18          1           0       -5.409277    0.813003    0.830044
     19          1           0       -5.085810    2.289355   -0.107271
     20          1           0       -5.414277    0.740505   -0.917222
     21          1           0       -2.962375    3.012486   -0.236932
     22          1           0       -0.516708    2.743157   -0.243793
     23          1           0       -1.049997   -1.511344    0.136042
     24          1           0        1.071744   -0.623052    0.015510
     25          1           0        3.466154    0.756623    2.082983
     26          1           0        4.997358    0.901932    1.194019
     27          1           0        3.868917    2.280008    1.254654
 ---------------------------------------------------------------------
 Rotational constants (GHZ):      0.7850220      0.1754160      0.1463628
 General basis read from cards:  (5D, 7F)
 There are   277 symmetry adapted cartesian basis functions of A   symmetry.
 There are   260 symmetry adapted basis functions of A   symmetry.
   260 basis functions,   547 primitive gaussians,   277 cartesian basis functions
    72 alpha electrons       72 beta electrons
       nuclear repulsion energy      1383.8954019846 Hartrees.
 NAtoms=   27 NActive=   27 NUniq=   27 SFac= 1.00D+00 NAtFMM=   60 NAOKFM=F Big=F
 Integral buffers will be    131072 words long.
 Raffenetti 1 integral format.
 Two-electron integral symmetry is turned on.
 One-electron integrals computed using PRISM.
 NBasis=   260 RedAO= T EigKep=  3.80D-04  NBF=   260
 NBsUse=   260 1.00D-06 EigRej= -1.00D+00 NBFU=   260
 ExpMin= 1.43D-01 ExpMax= 5.74D+05 ExpMxC= 5.74D+03 IAcc=2 IRadAn=         4 AccDes= 0.00D+00
 Harris functional with IExCor=  205 and IRadAn=       4 diagonalized for initial guess.
 HarFok:  IExCor=  205 AccDes= 0.00D+00 IRadAn=         4 IDoV= 1 UseB2=F ITyADJ=14
 ICtDFT=  3500011 ScaDFX=  1.000000  1.000000  1.000000  1.000000
 FoFCou: FMM=F IPFlag=           0 FMFlag=      100000 FMFlg1=           0
         NFxFlg=           0 DoJE=T BraDBF=F KetDBF=T FulRan=T
         wScrn=  0.000000 ICntrl=     500 IOpCl=  0 I1Cent=   200000004 NGrid=           0
         NMat0=    1 NMatS0=      1 NMatT0=    0 NMatD0=    1 NMtDS0=    0 NMtDT0=    0
 Petite list used in FoFCou.
 Requested convergence on RMS density matrix=1.00D-08 within 128 cycles.
 Requested convergence on MAX density matrix=1.00D-06.
 Requested convergence on             energy=1.00D-06.
 No special actions if energy rises.
 Integral accuracy reduced to 1.0D-05 until final iterations.
 Initial convergence to 1.0D-05 achieved.  Increase integral accuracy.
 SCF Done:  E(RHF) =  -3288.05418660     A.U. after   17 cycles
            NFock= 17  Conv=0.56D-08     -V/T= 1.9993

 **********************************************************************

            Population analysis using the SCF density.

 **********************************************************************

 Orbital symmetries:
 BldTbl:  Degeneracy threshold= 1.00D-02
       Occupied  (A) (A) (A) (A) (A) (A) (A) (A) (A) (A) (A) (A)
                 (A) (A) (A) (A) (A) (A) (A) (A) (A) (A) (A) (A)
                 (A) (A) (A) (A) (A) (A) (A) (A) (A) (A) (A) (A)
                 (A) (A) (A) (A) (A) (A) (A) (A) (A) (A) (A) (A)
                 (A) (A) (A) (A) (A) (A) (A) (A) (A) (A) (A) (A)
                 (A) (A) (A) (A) (A) (A) (A) (A) (A) (A) (A) (A)
       Virtual   (A) (A) (A) (A) (A) (A) (A) (A) (A) (A) (A) (A)
                 (A) (A) (A) (A) (A) (A) (A) (A) (A) (A) (A) (A)
                 (A) (A) (A) (A) (A) (A) (A) (A) (A) (A) (A) (A)
                 (A) (A) (A) (A) (A) (A) (A) (A) (A) (A) (A) (A)
                 (A) (A) (A) (A) (A) (A) (A) (A) (A) (A) (A) (A)
                 (A) (A) (A) (A) (A) (A) (A) (A) (A) (A) (A) (A)
                 (A) (A) (A) (A) (A) (A) (A) (A) (A) (A) (A) (A)
                 (A) (A) (A) (A) (A) (A) (A) (A) (A) (A) (A) (A)
                 (A) (A) (A) (A) (A) (A) (A) (A) (A) (A) (A) (A)
                 (A) (A) (A) (A) (A) (A) (A) (A) (A) (A) (A) (A)
                 (A) (A) (A) (A) (A) (A) (A) (A) (A) (A) (A) (A)
                 (A) (A) (A) (A) (A) (A) (A) (A) (A) (A) (A) (A)
                 (A) (A) (A) (A) (A) (A) (A) (A) (A) (A) (A) (A)
                 (A) (A) (A) (A) (A) (A) (A) (A) (A) (A) (A) (A)
                 (A) (A) (A) (A) (A) (A) (A) (A) (A) (A) (A) (A)
                 (A) (A) (A) (A) (A) (A) (A) (A)
 The electronic state is 1-A.
 Alpha  occ. eigenvalues -- -489.85737 -64.40179 -58.56826 -58.56680 -58.56668
 Alpha  occ. eigenvalues --  -20.60687 -20.60409 -20.56144 -15.85717 -15.63238
 Alpha  occ. eigenvalues --  -11.39718 -11.33557 -11.31628 -11.31422 -11.28475
 Alpha  occ. eigenvalues --  -11.27435 -11.26363 -11.26041 -11.25420 -11.23423
 Alpha  occ. eigenvalues --   -9.67935  -7.49445  -7.48672  -7.48619  -3.23732
 Alpha  occ. eigenvalues --   -3.23386  -3.23333  -3.22432  -3.22431  -1.59876
 Alpha  occ. eigenvalues --   -1.41598  -1.39216  -1.28542  -1.19256  -1.11909
 Alpha  occ. eigenvalues --   -1.08606  -1.06790  -0.98723  -0.98587  -0.94053
 Alpha  occ. eigenvalues --   -0.90479  -0.85513  -0.84771  -0.80061  -0.76762
 Alpha  occ. eigenvalues --   -0.73205  -0.71602  -0.71309  -0.68449  -0.67567
 Alpha  occ. eigenvalues --   -0.66184  -0.65070  -0.62791  -0.61628  -0.61196
 Alpha  occ. eigenvalues --   -0.58619  -0.57198  -0.56411  -0.55805  -0.54567
 Alpha  occ. eigenvalues --   -0.53481  -0.52190  -0.50632  -0.48954  -0.48164
 Alpha  occ. eigenvalues --   -0.46100  -0.45654  -0.44735  -0.42540  -0.42138
 Alpha  occ. eigenvalues --   -0.37316  -0.32911
 Alpha virt. eigenvalues --    0.04791   0.10569   0.12997   0.15323   0.18952
 Alpha virt. eigenvalues --    0.22451   0.23584   0.24340   0.26617   0.26750
 Alpha virt. eigenvalues --    0.29338   0.29808   0.30626   0.31419   0.33031
 Alpha virt. eigenvalues --    0.33656   0.34907   0.36833   0.37716   0.38424
 Alpha virt. eigenvalues --    0.39585   0.42213   0.44825   0.47246   0.49594
 Alpha virt. eigenvalues --    0.50131   0.50990   0.53781   0.56605   0.58042
 Alpha virt. eigenvalues --    0.61362   0.62329   0.62672   0.64311   0.65531
 Alpha virt. eigenvalues --    0.67482   0.68563   0.69674   0.70479   0.70953
 Alpha virt. eigenvalues --    0.71793   0.72057   0.73670   0.74808   0.76506
 Alpha virt. eigenvalues --    0.77336   0.78619   0.79141   0.81353   0.82259
 Alpha virt. eigenvalues --    0.83422   0.84990   0.85725   0.86669   0.88078
 Alpha virt. eigenvalues --    0.89086   0.91025   0.91646   0.92688   0.95008
 Alpha virt. eigenvalues --    0.95937   0.97718   0.98534   0.99437   1.02113
 Alpha virt. eigenvalues --    1.03918   1.04279   1.05216   1.06252   1.07815
 Alpha virt. eigenvalues --    1.09169   1.10354   1.11034   1.12043   1.12613
 Alpha virt. eigenvalues --    1.13805   1.14104   1.15853   1.17641   1.17777
 Alpha virt. eigenvalues --    1.18893   1.20401   1.22281   1.24308   1.24545
 Alpha virt. eigenvalues --    1.25402   1.27100   1.28689   1.28973   1.30178
 Alpha virt. eigenvalues --    1.30479   1.32554   1.33714   1.34896   1.39982
 Alpha virt. eigenvalues --    1.41021   1.44791   1.46572   1.47806   1.51522
 Alpha virt. eigenvalues --    1.52960   1.54269   1.56795   1.60146   1.62027
 Alpha virt. eigenvalues --    1.63377   1.64240   1.66901   1.68283   1.70934
 Alpha virt. eigenvalues --    1.71221   1.73250   1.73645   1.76596   1.79648
 Alpha virt. eigenvalues --    1.83912   1.87137   1.91559   1.95938   1.96765
 Alpha virt. eigenvalues --    1.98373   2.00985   2.02911   2.05347   2.07065
 Alpha virt. eigenvalues --    2.08961   2.09964   2.10833   2.11674   2.11912
 Alpha virt. eigenvalues --    2.14660   2.15832   2.16885   2.19709   2.20874
 Alpha virt. eigenvalues --    2.23091   2.24479   2.25341   2.25518   2.26561
 Alpha virt. eigenvalues --    2.27499   2.32530   2.33012   2.36153   2.37562
 Alpha virt. eigenvalues --    2.42394   2.44010   2.44389   2.45731   2.47380
 Alpha virt. eigenvalues --    2.48340   2.53059   2.54484   2.57377   2.57823
 Alpha virt. eigenvalues --    2.58755   2.61492   2.65174   2.66736   2.67751
 Alpha virt. eigenvalues --    2.68745   2.69790   2.72062   2.77299   2.83629
 Alpha virt. eigenvalues --    2.86029   2.88599   2.90258   2.92943   2.94200
 Alpha virt. eigenvalues --    2.98967   3.01270   3.02445   3.04546   3.05525
 Alpha virt. eigenvalues --    3.13819   3.18174   3.19529   3.23005   3.27163
 Alpha virt. eigenvalues --    3.28684   3.31822   3.36480   3.44773   3.54234
 Alpha virt. eigenvalues --    3.68802   3.79722   9.20753
          Condensed to atoms (all electrons):
               1          2          3          4          5          6
     1  C    5.098655   0.321614  -0.044296   0.003453  -0.000018   0.003013
     2  C    0.321614   4.821543   0.549702  -0.047897  -0.019311  -0.059307
     3  C   -0.044296   0.549702   4.980894   0.504716  -0.035673  -0.042614
     4  C    0.003453  -0.047897   0.504716   4.960154   0.571431  -0.040179
     5  C   -0.000018  -0.019311  -0.035673   0.571431   4.536850   0.520742
     6  C    0.003013  -0.059307  -0.042614  -0.040179   0.520742   5.067060
     7  C   -0.043866   0.537579  -0.027613  -0.033581  -0.033195   0.527775
     8  N   -0.003255  -0.036339   0.001974   0.000130   0.000571  -0.051276
     9  O    0.000029   0.002432  -0.000032   0.000001   0.001107  -0.001243
    10  O   -0.012295  -0.006265   0.000297  -0.000008   0.000017   0.004889
    11  N    0.000001   0.000495   0.003172  -0.045612   0.177230  -0.044680
    12  C    0.000000  -0.000001   0.000104  -0.002613  -0.028669   0.002698
    13  O    0.000000  -0.000001   0.000580  -0.010579   0.002420   0.000353
    14  C    0.000000   0.000000   0.000005   0.000078   0.003719  -0.000160
    15  H    0.000000   0.000000   0.000000   0.000002  -0.000046   0.000000
    16  C    0.000000   0.000000   0.000000   0.000000  -0.000125   0.000004
    17  Br   0.000000   0.000000  -0.000001  -0.000031   0.002091  -0.000397
    18  H    0.390302  -0.032898   0.001139  -0.000098   0.000020  -0.000089
    19  H    0.389652  -0.048294  -0.003913   0.000551  -0.000030   0.000012
    20  H    0.389376  -0.032452   0.000621  -0.000107   0.000022  -0.000104
    21  H   -0.003135  -0.029832   0.382597  -0.026850   0.001430   0.000430
    22  H   -0.000061   0.001499  -0.024572   0.361431  -0.017839   0.002533
    23  H   -0.000068   0.002304   0.000028   0.002221  -0.029616   0.358048
    24  H    0.000000  -0.000008  -0.000053   0.001643  -0.026589   0.002137
    25  H    0.000000   0.000000   0.000000  -0.000003  -0.000035  -0.000002
    26  H    0.000000   0.000000   0.000000   0.000000   0.000002   0.000000
    27  H    0.000000   0.000000   0.000000   0.000001   0.000007   0.000000
               7          8          9         10         11         12
     1  C   -0.043866  -0.003255   0.000029  -0.012295   0.000001   0.000000
     2  C    0.537579  -0.036339   0.002432  -0.006265   0.000495  -0.000001
     3  C   -0.027613   0.001974  -0.000032   0.000297   0.003172   0.000104
     4  C   -0.033581   0.000130   0.000001  -0.000008  -0.045612  -0.002613
     5  C   -0.033195   0.000571   0.001107   0.000017   0.177230  -0.028669
     6  C    0.527775  -0.051276  -0.001243   0.004889  -0.044680   0.002698
     7  C    4.864638   0.232419  -0.089976  -0.073968   0.001735  -0.000063
     8  N    0.232419   5.681876   0.332232   0.320568  -0.000054   0.000000
     9  O   -0.089976   0.332232   8.329706  -0.088192  -0.000005   0.000000
    10  O   -0.073968   0.320568  -0.088192   8.343601   0.000000   0.000000
    11  N    0.001735  -0.000054  -0.000005   0.000000   7.486802   0.280981
    12  C   -0.000063   0.000000   0.000000   0.000000   0.280981   4.175537
    13  O   -0.000008   0.000000   0.000000   0.000000  -0.086285   0.562595
    14  C   -0.000002   0.000000   0.000000   0.000000  -0.091615   0.338503
    15  H    0.000000   0.000000   0.000000   0.000000   0.001677  -0.036919
    16  C    0.000000   0.000000   0.000000   0.000000  -0.000798  -0.040618
    17  Br  -0.000006   0.000000   0.000000   0.000000  -0.014314  -0.057850
    18  H   -0.005744   0.000999  -0.000010   0.000097   0.000000   0.000000
    19  H    0.004247  -0.000175   0.000001   0.000806   0.000000   0.000000
    20  H   -0.005242   0.000933  -0.000001  -0.000144   0.000000   0.000000
    21  H    0.002189  -0.000049   0.000000   0.000003  -0.000080   0.000001
    22  H    0.000066   0.000002   0.000000   0.000000  -0.003945  -0.000566
    23  H   -0.010595  -0.007371   0.012550   0.000087  -0.001844   0.000027
    24  H    0.000102  -0.000004  -0.000015   0.000000   0.301146  -0.015465
    25  H    0.000000   0.000000   0.000000   0.000000   0.001045  -0.004680
    26  H    0.000000   0.000000   0.000000   0.000000  -0.000079   0.004517
    27  H    0.000000   0.000000   0.000000   0.000000   0.000415  -0.003521
              13         14         15         16         17         18
     1  C    0.000000   0.000000   0.000000   0.000000   0.000000   0.390302
     2  C   -0.000001   0.000000   0.000000   0.000000   0.000000  -0.032898
     3  C    0.000580   0.000005   0.000000   0.000000  -0.000001   0.001139
     4  C   -0.010579   0.000078   0.000002   0.000000  -0.000031  -0.000098
     5  C    0.002420   0.003719  -0.000046  -0.000125   0.002091   0.000020
     6  C    0.000353  -0.000160   0.000000   0.000004  -0.000397  -0.000089
     7  C   -0.000008  -0.000002   0.000000   0.000000  -0.000006  -0.005744
     8  N    0.000000   0.000000   0.000000   0.000000   0.000000   0.000999
     9  O    0.000000   0.000000   0.000000   0.000000   0.000000  -0.000010
    10  O    0.000000   0.000000   0.000000   0.000000   0.000000   0.000097
    11  N   -0.086285  -0.091615   0.001677  -0.000798  -0.014314   0.000000
    12  C    0.562595   0.338503  -0.036919  -0.040618  -0.057850   0.000000
    13  O    8.202987  -0.068033   0.001768  -0.001771   0.001945   0.000000
    14  C   -0.068033   5.226786   0.389207   0.295921   0.260782   0.000000
    15  H    0.001768   0.389207   0.450595  -0.031423  -0.042440   0.000000
    16  C   -0.001771   0.295921  -0.031423   5.176262  -0.066849   0.000000
    17  Br   0.001945   0.260782  -0.042440  -0.066849  35.083123   0.000000
    18  H    0.000000   0.000000   0.000000   0.000000   0.000000   0.492109
    19  H    0.000000   0.000000   0.000000   0.000000   0.000000  -0.026044
    20  H    0.000000   0.000000   0.000000   0.000000   0.000000  -0.026437
    21  H   -0.000003   0.000000   0.000000   0.000000   0.000000   0.000082
    22  H    0.013376   0.000226  -0.000002  -0.000006  -0.000006   0.000001
    23  H    0.000002   0.000008   0.000000   0.000000   0.000035   0.000000
    24  H    0.001823  -0.005292   0.000434   0.000388   0.023064   0.000000
    25  H    0.000159  -0.037620   0.003433   0.388795  -0.000867   0.000000
    26  H   -0.000010  -0.037292  -0.003171   0.393792  -0.003046   0.000000
    27  H    0.004774  -0.035594  -0.001000   0.380755   0.004183   0.000000
              19         20         21         22         23         24
     1  C    0.389652   0.389376  -0.003135  -0.000061  -0.000068   0.000000
     2  C   -0.048294  -0.032452  -0.029832   0.001499   0.002304  -0.000008
     3  C   -0.003913   0.000621   0.382597  -0.024572   0.000028  -0.000053
     4  C    0.000551  -0.000107  -0.026850   0.361431   0.002221   0.001643
     5  C   -0.000030   0.000022   0.001430  -0.017839  -0.029616  -0.026589
     6  C    0.000012  -0.000104   0.000430   0.002533   0.358048   0.002137
     7  C    0.004247  -0.005242   0.002189   0.000066  -0.010595   0.000102
     8  N   -0.000175   0.000933  -0.000049   0.000002  -0.007371  -0.000004
     9  O    0.000001  -0.000001   0.000000   0.000000   0.012550  -0.000015
    10  O    0.000806  -0.000144   0.000003   0.000000   0.000087   0.000000
    11  N    0.000000   0.000000  -0.000080  -0.003945  -0.001844   0.301146
    12  C    0.000000   0.000000   0.000001  -0.000566   0.000027  -0.015465
    13  O    0.000000   0.000000  -0.000003   0.013376   0.000002   0.001823
    14  C    0.000000   0.000000   0.000000   0.000226   0.000008  -0.005292
    15  H    0.000000   0.000000   0.000000  -0.000002   0.000000   0.000434
    16  C    0.000000   0.000000   0.000000  -0.000006   0.000000   0.000388
    17  Br   0.000000   0.000000   0.000000  -0.000006   0.000035   0.023064
    18  H   -0.026044  -0.026437   0.000082   0.000001   0.000000   0.000000
    19  H    0.532709  -0.025922   0.002667  -0.000006   0.000001   0.000000
    20  H   -0.025922   0.489810   0.000103   0.000001   0.000001   0.000000
    21  H    0.002667   0.000103   0.447614  -0.000900   0.000008   0.000001
    22  H   -0.000006   0.000001  -0.000900   0.368402  -0.000064  -0.000118
    23  H    0.000001   0.000001   0.000008  -0.000064   0.387307   0.003630
    24  H    0.000000   0.000000   0.000001  -0.000118   0.003630   0.268173
    25  H    0.000000   0.000000   0.000000   0.000000   0.000000   0.000086
    26  H    0.000000   0.000000   0.000000   0.000000   0.000000  -0.000005
    27  H    0.000000   0.000000   0.000000   0.000001   0.000000  -0.000044
              25         26         27
     1  C    0.000000   0.000000   0.000000
     2  C    0.000000   0.000000   0.000000
     3  C    0.000000   0.000000   0.000000
     4  C   -0.000003   0.000000   0.000001
     5  C   -0.000035   0.000002   0.000007
     6  C   -0.000002   0.000000   0.000000
     7  C    0.000000   0.000000   0.000000
     8  N    0.000000   0.000000   0.000000
     9  O    0.000000   0.000000   0.000000
    10  O    0.000000   0.000000   0.000000
    11  N    0.001045  -0.000079   0.000415
    12  C   -0.004680   0.004517  -0.003521
    13  O    0.000159  -0.000010   0.004774
    14  C   -0.037620  -0.037292  -0.035594
    15  H    0.003433  -0.003171  -0.001000
    16  C    0.388795   0.393792   0.380755
    17  Br  -0.000867  -0.003046   0.004183
    18  H    0.000000   0.000000   0.000000
    19  H    0.000000   0.000000   0.000000
    20  H    0.000000   0.000000   0.000000
    21  H    0.000000   0.000000   0.000000
    22  H    0.000000   0.000000   0.000001
    23  H    0.000000   0.000000   0.000000
    24  H    0.000086  -0.000005  -0.000044
    25  H    0.498034  -0.023239  -0.021539
    26  H   -0.023239   0.486032  -0.022324
    27  H   -0.021539  -0.022324   0.473275
 Mulliken charges:
               1
     1  C   -0.489102
     2  C    0.075436
     3  C   -0.247064
     4  C   -0.198256
     5  C    0.373490
     6  C   -0.249647
     7  C    0.153109
     8  N    0.526821
     9  O   -0.498584
    10  O   -0.489494
    11  N   -0.965390
    12  C    0.826000
    13  O   -0.626093
    14  C   -0.239629
    15  H    0.267886
    16  C   -0.494325
    17  Br  -0.189416
    18  H    0.206569
    19  H    0.173738
    20  H    0.209544
    21  H    0.223722
    22  H    0.300549
    23  H    0.283303
    24  H    0.444964
    25  H    0.196434
    26  H    0.204824
    27  H    0.220611
 Sum of Mulliken charges =   0.00000
 Mulliken charges with hydrogens summed into heavy atoms:
               1
     1  C    0.100748
     2  C    0.075436
     3  C   -0.023342
     4  C    0.102293
     5  C    0.373490
     6  C    0.033657
     7  C    0.153109
     8  N    0.526821
     9  O   -0.498584
    10  O   -0.489494
    11  N   -0.520426
    12  C    0.826000
    13  O   -0.626093
    14  C    0.028257
    16  C    0.127544
    17  Br  -0.189416
 DipInt: DoE/N= T F RetVal/Mat= T F Init=T NMatP=  1 IDeriv=0 Min/MaxMlt=  0  4
 Entering OneElI...
 OneElI was handed   235730901 working-precision words.
 Multipole integrals L=0 to 4 MinM= 0 MaxM= 0.
 Requested accuracy = 0.1000D-12
 PrtBox:  NBox=     1 Levels=  1 BoxLen=   38.93 SMaxX=       19.68
          Shift=           10.231501            4.971406            1.822015
 Box      1 Number                   0 centers from      1 to     94:
 ShPair: Thresh= 1.00D-13 NBox=     1 BxSize= 3.89D+01 RnKept= 2.01D+01
         NSMCal=                 4465 NSMKep=                3519
 PrsmSu:  NPrtUS=   1 ThrOK=F IAlg=1 NPAlg=1 LenDen=           0.
 Prism:   IPart=     0 DynPar=F LinDyn=F Incr=          35.
 PRISM was handed   235409564 working-precision words and  3519 shell-pairs
 IPart=  0 NShTot=        3519 NBatch=         137 AvBLen=        25.7
 PrSmSu:  NxtVal=             36.
 Electronic moments (au):
       -144.00000000          1.13508772          1.15366562          0.14057531
      -5267.79500053      -1210.54625892       -160.32274760        -10.90886330
          2.42437898          1.32238948       5757.42527801       -381.41086975
       -151.36157773       1197.50439159       2618.90885501       -587.16112910
       -363.50939958       -147.32925358         -3.61826524       -818.38606075
    -297511.73921715     -20254.98098550      -1033.12152894       1105.48356963
      -3173.51402689      -5193.74091430        999.09618319      -1144.50056365
       -287.33437189     -41767.20877302      -7185.45474604      -1280.39294959
      -1946.86089967        617.00747801       -894.76139238
 Electronic spatial extent (au):  <R**2>=           6638.6640
 DipInt: DoE/N= F T RetVal/Mat= T F Init=T NMatP=  1 IDeriv=0 Min/MaxMlt=  0  4
 Nuclear    moments (au):
        144.00000000          0.00000000          0.00000000          0.00000000
       5186.61623059       1123.29277065         81.40832563          0.00000000
          0.00001681         -0.00004728      -5508.93723362        330.66853756
        145.47142291      -1140.60936060      -2512.66842001        587.53561212
        410.71197655        122.23981389         -1.78926614        818.79244039
     280397.31753741      16238.23067765        485.02377427      -1822.31634940
       3194.30128357       4535.80334393       -941.68718077       1060.35673454
        295.71515018      38085.72302178       4371.72625532        535.94821952
       1990.86165759       -582.94102957        898.20927681
 Total      moments (au):
          0.00000000          1.13508772          1.15366562          0.14057531
        -81.17876995        -87.25348827        -78.91442197        -10.90886330
          2.42439579          1.32234221        248.48804439        -50.74233219
         -5.89015481         56.89503099        106.24043500          0.37448301
         47.20257698        -25.08943968         -5.40753137          0.40637964
     -17114.42167973      -4016.75030786       -548.09775467       -716.83277977
         20.78725668       -657.93757037         57.40900242        -84.14382911
          8.38077829      -3681.48575125      -2813.72849072       -744.44473007
         44.00075793         34.06644844          3.44788443
 Traceless Quadrup. (au):
          1.27012345         -4.80459488          3.53447143        -10.90886330
          2.42439579          1.32234221
 Charge=              0.0000 electrons
 Dipole moment (field-independent basis, Debye):
    X=              2.8851    Y=              2.9323    Z=              0.3573  Tot=              4.1292
 Quadrupole moment (field-independent basis, Debye-Ang):
   XX=           -109.1882   YY=           -117.3589   ZZ=           -106.1426
   XY=            -14.6728   XZ=              3.2609   YZ=              1.7786
 Traceless Quadrupole moment (field-independent basis, Debye-Ang):
   XX=              1.7084   YY=             -6.4623   ZZ=              4.7540
   XY=            -14.6728   XZ=              3.2609   YZ=              1.7786
 Octapole moment (field-independent basis, Debye-Ang**2):
  XXX=            176.8642  YYY=            -36.1164  ZZZ=             -4.1924  XYY=             40.4957
  XXY=             75.6178  XXZ=              0.2665  XZZ=             33.5970  YZZ=            -17.8577
  YYZ=             -3.8489  XYZ=              0.2892
 Hexadecapole moment (field-independent basis, Debye-Ang**3):
 XXXX=          -6446.1114 YYYY=          -1512.9007 ZZZZ=           -206.4399 XXXY=           -269.9936
 XXXZ=              7.8295 YYYX=           -247.8108 YYYZ=             21.6230 ZZZX=            -31.6926
 ZZZY=              3.1566 XXYY=          -1386.6240 XXZZ=          -1059.7850 YYZZ=           -280.3936
 XXYZ=             16.5728 YYXZ=             12.8311 ZZXY=              1.2986
 N-N= 1.383895401985D+03 E-N=-1.060103410402D+04  KE= 3.290473128838D+03
 Entering OneElI...
 OneElI was handed   235777598 working-precision words.
 Calculate electrostatic properties
    NBasis =   260  MinDer = 0  MaxDer = 0
    NGrid  =    27  NMatD  =   1
 Requested accuracy = 0.1000D-12
 PrtBox:  NBox=     1 Levels=  1 BoxLen=   32.44 SMaxX=       19.68
          Shift=           10.231501            4.971406            1.822015
 Box      1 Number                   0 centers from      1 to     94:
 ShPair: Thresh= 1.00D-13 NBox=     1 BxSize= 3.24D+01 RnKept= 1.81D+01
         NSMCal=                 4465 NSMKep=                3024
 PrsmSu:  NPrtUS=   1 ThrOK=F IAlg=1 NPAlg=1 LenDen=           0.
 Prism:   IPart=     0 DynPar=F LinDyn=F Incr=         512.
 PRISM was handed   235492648 working-precision words and  3024 shell-pairs
 IPart=  0 NShTot=       81648 NBatch=        3126 AvBLen=        26.1
 PrSmSu:  NxtVal=            513.
 --------------------------------------------------------
       Center         ----      EFG at Nuclei      ----
                      3XX-RR        3YY-RR        3ZZ-RR
 --------------------------------------------------------
     1   Atom       -0.101637      0.041449      0.060187
     2   Atom        0.218751      0.156504     -0.375255
     3   Atom        0.179969      0.125921     -0.305890
     4   Atom        0.219360      0.161787     -0.381147
     5   Atom       -0.104127      0.309457     -0.205330
     6   Atom        0.134815      0.174595     -0.309410
     7   Atom        0.117593     -0.105644     -0.011948
     8   Atom        0.266231      0.391069     -0.657300
     9   Atom        1.292767     -0.902805     -0.389962
    10   Atom       -1.986457      2.409769     -0.423312
    11   Atom       -0.535246     -0.341498      0.876744
    12   Atom        0.216447      0.296034     -0.512480
    13   Atom        1.633471     -0.958970     -0.674501
    14   Atom        0.187176     -0.502802      0.315626
    15   Atom        0.045334      0.093531     -0.138865
    16   Atom        0.019528      0.064776     -0.084305
    17   Atom        2.736334     -6.001797      3.265463
    18   Atom        0.051924      0.096911     -0.148835
    19   Atom        0.127554     -0.285106      0.157552
    20   Atom        0.050051      0.073377     -0.123428
    21   Atom        0.071737     -0.236667      0.164930
    22   Atom       -0.000604     -0.154865      0.155468
    23   Atom        0.071128     -0.232635      0.161507
    24   Atom        0.102258     -0.329205      0.226948
    25   Atom        0.060955      0.083151     -0.144107
    26   Atom       -0.266160      0.123022      0.143138
    27   Atom        0.147404     -0.287517      0.140113
 --------------------------------------------------------
                        XY            XZ            YZ
 --------------------------------------------------------
     1   Atom        0.071380     -0.001576      0.001164
     2   Atom        0.040025     -0.010189     -0.042558
     3   Atom       -0.001346     -0.005155     -0.035848
     4   Atom        0.055656     -0.011038     -0.048747
     5   Atom        0.042865     -0.005980     -0.046468
     6   Atom       -0.003540     -0.006807     -0.043975
     7   Atom       -0.280113      0.024096      0.009290
     8   Atom        0.143145      0.039378     -0.130437
     9   Atom        1.912052     -0.130273      0.206095
    10   Atom        0.314596     -0.149318     -0.362684
    11   Atom       -0.025931      0.030489      0.116424
    12   Atom       -0.086172      0.012558     -0.081247
    13   Atom        0.247414     -0.059991      0.035205
    14   Atom        0.080270     -0.006586     -0.048514
    15   Atom       -0.066894      0.169357      0.118324
    16   Atom       -0.040527     -0.081239     -0.060382
    17   Atom        0.955071      0.141513     -0.713057
    18   Atom       -0.065955      0.162494      0.134587
    19   Atom        0.063907     -0.002240      0.018366
    20   Atom       -0.080643     -0.157510     -0.152127
    21   Atom        0.158337     -0.012062      0.032039
    22   Atom       -0.206511      0.019334      0.029329
    23   Atom        0.158564     -0.014056      0.033595
    24   Atom        0.125935     -0.006596      0.037862
    25   Atom       -0.082700      0.152030      0.139392
    26   Atom        0.113512      0.000664     -0.006201
    27   Atom        0.026022     -0.003600     -0.025075
 --------------------------------------------------------


 ---------------------------------------------------------------------------------
              Nuclear Quadrupole Coupling Constant in Principal Axis System
 ---------------------------------------------------------------------------------

       Atom             a.u.   MegaHertz   Gauss  10(-4) cm-1        Axes

              Baa    -0.6767     3.250     1.160     1.084 -0.0609  0.1291  0.9898
     8 N(14)  Bbb     0.1850    -0.889    -0.317    -0.296  0.8492 -0.5144  0.1194
              Bcc     0.4917    -2.361    -0.843    -0.788  0.5246  0.8478 -0.0783
 
              Baa    -0.5402     2.594     0.926     0.865  0.9883  0.1486 -0.0335
    11 N(14)  Bbb    -0.3481     1.672     0.597     0.558 -0.1511  0.9844 -0.0898
              Bcc     0.8883    -4.266    -1.522    -1.423  0.0196  0.0938  0.9954
 
              Baa    -6.1606   453.075   161.668   151.130 -0.1076  0.9912  0.0766
    17 Br(79) Bbb     2.8312  -208.215   -74.296   -69.453  0.9847  0.1169 -0.1290
              Bcc     3.3294  -244.860   -87.372   -81.676  0.1368 -0.0616  0.9887
 

 ---------------------------------------------------------------------------------

 No NMR shielding tensors so no spin-rotation constants.
 Leave Link  601 at Thu Jan 16 22:40:56 2014, MaxMem=   235929600 cpu:         0.4
 FitSet:  NAtFit=    27 NAtPot=    27 NAtFrz=     0 MDM=    31 TotChg=   0.00000
 Merz-Kollman atomic radii used.
 Atom Element Radius
    1     6    1.50
    2     6    1.50
    3     6    1.50
    4     6    1.50
    5     6    1.50
    6     6    1.50
    7     6    1.50
    8     7    1.50
    9     8    1.40
   10     8    1.40
   11     7    1.50
   12     6    1.50
   13     8    1.40
   14     6    1.50
   15     1    1.20
   16     6    1.50
   17    35    2.30
   18     1    1.20
   19     1    1.20
   20     1    1.20
   21     1    1.20
   22     1    1.20
   23     1    1.20
   24     1    1.20
   25     1    1.20
   26     1    1.20
   27     1    1.20
 Generate VDW surfaces: Layer= 5 Dens= 2 Start= 1.400 Inc= 0.179

 **********************************************************************

            Electrostatic Properties Using The SCF Density

 **********************************************************************

       Atomic Center    1 is at  -4.917462  1.209072 -0.062900
       Atomic Center    2 is at  -3.433799  0.932713 -0.058129
       Atomic Center    3 is at  -2.543768  2.013093 -0.157866
       Atomic Center    4 is at  -1.159349  1.877811 -0.161411
       Atomic Center    5 is at  -0.593460  0.597915 -0.056713
       Atomic Center    6 is at  -1.441464 -0.504704  0.048553
       Atomic Center    7 is at  -2.825049 -0.333757  0.045237
       Atomic Center    8 is at  -3.616894 -1.574341  0.158471
       Atomic Center    9 is at  -3.007920 -2.630755  0.335193
       Atomic Center   10 is at  -4.842237 -1.497178  0.068678
       Atomic Center   11 is at   0.793614  0.350232 -0.047719
       Atomic Center   12 is at   1.810752  1.251342 -0.155720
       Atomic Center   13 is at   1.678340  2.463377 -0.272745
       Atomic Center   14 is at   3.253033  0.722491 -0.080240
       Atomic Center   15 is at   3.771396  1.093988 -0.964169
       Atomic Center   16 is at   3.943132  1.189216  1.198403
       Atomic Center   17 is at   3.424142 -1.266931 -0.234955
       Atomic Center   18 is at  -5.409277  0.813003  0.830044
       Atomic Center   19 is at  -5.085810  2.289355 -0.107271
       Atomic Center   20 is at  -5.414277  0.740505 -0.917222
       Atomic Center   21 is at  -2.962375  3.012486 -0.236932
       Atomic Center   22 is at  -0.516708  2.743157 -0.243793
       Atomic Center   23 is at  -1.049997 -1.511344  0.136042
       Atomic Center   24 is at   1.071744 -0.623052  0.015510
       Atomic Center   25 is at   3.466154  0.756623  2.082983
       Atomic Center   26 is at   4.997358  0.901932  1.194019
       Atomic Center   27 is at   3.868917  2.280008  1.254654
      ESP Fit Center   28 is at  -4.558341  1.831088  1.910455
      ESP Fit Center   29 is at  -4.356712  2.436942  1.545793
      ESP Fit Center   30 is at  -6.388783  2.278050  0.987100
      ESP Fit Center   31 is at  -6.950345  1.589084  0.301761
      ESP Fit Center   32 is at  -6.950345  1.589084 -0.427561
      ESP Fit Center   33 is at  -4.356712  2.436942 -1.671593
      ESP Fit Center   34 is at  -5.801428  2.229224 -1.671593
      ESP Fit Center   35 is at  -4.199220  1.209072 -2.036254
      ESP Fit Center   36 is at  -4.558341  1.831088 -2.036254
      ESP Fit Center   37 is at  -3.433799  0.932713  2.041871
      ESP Fit Center   38 is at  -2.715557  0.932713  1.915226
      ESP Fit Center   39 is at  -3.074678  1.554729  1.915226
      ESP Fit Center   40 is at  -3.792920  1.554729  1.915226
      ESP Fit Center   41 is at  -3.792920  0.310697  1.915226
      ESP Fit Center   42 is at  -2.715557  0.932713 -2.031483
      ESP Fit Center   43 is at  -3.792920  1.554729 -2.031483
      ESP Fit Center   44 is at  -4.152041  0.932713 -2.031483
      ESP Fit Center   45 is at  -3.792920  0.310697 -2.031483
      ESP Fit Center   46 is at  -3.074678  0.310697 -2.031483
      ESP Fit Center   47 is at  -3.433799  0.932713 -2.158129
      ESP Fit Center   48 is at  -2.543768  2.013093  1.942134
      ESP Fit Center   49 is at  -2.184647  2.635109  1.815489
      ESP Fit Center   50 is at  -2.902889  2.635109  1.815489
      ESP Fit Center   51 is at  -3.262010  2.013093  1.815489
      ESP Fit Center   52 is at  -2.184647  1.391077  1.815489
      ESP Fit Center   53 is at  -1.983018  3.240963  1.450827
      ESP Fit Center   54 is at  -2.735872  3.349207  1.450827
      ESP Fit Center   55 is at  -3.427734  3.033245  1.450827
      ESP Fit Center   56 is at  -3.838943  2.393391  1.450827
      ESP Fit Center   57 is at  -1.983018  3.240963 -1.766559
      ESP Fit Center   58 is at  -3.838943  2.393391 -1.766559
      ESP Fit Center   59 is at  -1.983018  0.785223 -1.766559
      ESP Fit Center   60 is at  -2.184647  2.635109 -2.131220
      ESP Fit Center   61 is at  -2.902889  2.635109 -2.131220
      ESP Fit Center   62 is at  -3.262010  2.013093 -2.131220
      ESP Fit Center   63 is at  -2.902889  1.391077 -2.131220
      ESP Fit Center   64 is at  -2.184647  1.391077 -2.131220
      ESP Fit Center   65 is at  -2.543768  2.013093 -2.257866
      ESP Fit Center   66 is at  -1.159349  1.877811  1.938589
      ESP Fit Center   67 is at  -0.441107  1.877811  1.811944
      ESP Fit Center   68 is at  -0.800228  2.499827  1.811944
      ESP Fit Center   69 is at  -1.518470  2.499827  1.811944
      ESP Fit Center   70 is at  -1.518470  1.255795  1.811944
      ESP Fit Center   71 is at   0.190505  1.877811  1.447282
      ESP Fit Center   72 is at  -0.023779  2.607597  1.447282
      ESP Fit Center   73 is at  -0.598599  3.105681  1.447282
      ESP Fit Center   74 is at  -1.351453  3.213925  1.447282
      ESP Fit Center   75 is at  -1.349450  3.686502  0.888589
      ESP Fit Center   76 is at   0.190505  1.877811 -1.770104
      ESP Fit Center   77 is at  -1.351453  3.213925 -1.770104
      ESP Fit Center   78 is at  -0.441107  1.877811 -2.134765
      ESP Fit Center   79 is at  -0.800228  2.499827 -2.134765
      ESP Fit Center   80 is at  -1.518470  2.499827 -2.134765
      ESP Fit Center   81 is at  -1.518470  1.255795 -2.134765
      ESP Fit Center   82 is at  -0.800228  1.255795 -2.134765
      ESP Fit Center   83 is at  -1.159349  1.877811 -2.261411
      ESP Fit Center   84 is at  -0.593460  0.597915  2.043287
      ESP Fit Center   85 is at  -0.234339  1.219931  1.916642
      ESP Fit Center   86 is at  -0.952581  1.219931  1.916642
      ESP Fit Center   87 is at  -1.311702  0.597915  1.916642
      ESP Fit Center   88 is at  -0.234339 -0.024101  1.916642
      ESP Fit Center   89 is at   0.124782  0.597915 -2.030067
      ESP Fit Center   90 is at  -0.234339  1.219931 -2.030067
      ESP Fit Center   91 is at  -1.311702  0.597915 -2.030067
      ESP Fit Center   92 is at  -0.952581 -0.024101 -2.030067
      ESP Fit Center   93 is at  -0.234339 -0.024101 -2.030067
      ESP Fit Center   94 is at  -0.593460  0.597915 -2.156713
      ESP Fit Center   95 is at  -1.441464 -0.504704  2.148553
      ESP Fit Center   96 is at  -0.723222 -0.504704  2.021908
      ESP Fit Center   97 is at  -1.082343  0.117312  2.021908
      ESP Fit Center   98 is at  -1.800585  0.117312  2.021908
      ESP Fit Center   99 is at  -1.800585 -1.126720  2.021908
      ESP Fit Center  100 is at  -1.082343 -1.126720  2.021908
      ESP Fit Center  101 is at  -0.305895 -1.234490  1.657246
      ESP Fit Center  102 is at  -1.633568 -1.840818 -1.560140
      ESP Fit Center  103 is at  -0.880714 -1.732574 -1.560140
      ESP Fit Center  104 is at  -0.305895 -1.234490 -1.560140
      ESP Fit Center  105 is at  -0.723222 -0.504704 -1.924801
      ESP Fit Center  106 is at  -1.800585  0.117312 -1.924801
      ESP Fit Center  107 is at  -1.800585 -1.126720 -1.924801
      ESP Fit Center  108 is at  -1.082343 -1.126720 -1.924801
      ESP Fit Center  109 is at  -1.441464 -0.504704 -2.051447
      ESP Fit Center  110 is at  -2.825049 -0.333757  2.145237
      ESP Fit Center  111 is at  -2.465928  0.288259  2.018592
      ESP Fit Center  112 is at  -3.184170  0.288259  2.018592
      ESP Fit Center  113 is at  -3.543291 -0.333757  2.018592
      ESP Fit Center  114 is at  -2.465928 -0.955773  2.018592
      ESP Fit Center  115 is at  -2.465928  0.288259 -1.928117
      ESP Fit Center  116 is at  -3.543291 -0.333757 -1.928117
      ESP Fit Center  117 is at  -3.184170 -0.955773 -1.928117
      ESP Fit Center  118 is at  -2.465928 -0.955773 -1.928117
      ESP Fit Center  119 is at  -2.825049 -0.333757 -2.054763
      ESP Fit Center  120 is at  -3.616894 -1.574341  2.258471
      ESP Fit Center  121 is at  -2.898652 -1.574341  2.131826
      ESP Fit Center  122 is at  -3.257773 -0.952325  2.131826
      ESP Fit Center  123 is at  -3.976015 -0.952325  2.131826
      ESP Fit Center  124 is at  -4.335136 -1.574341  2.131826
      ESP Fit Center  125 is at  -3.976015 -2.196357  2.131826
      ESP Fit Center  126 is at  -4.500860 -0.554189  1.767164
      ESP Fit Center  127 is at  -4.500860 -2.594493  1.767164
      ESP Fit Center  128 is at  -3.808998 -2.910455 -1.450222
      ESP Fit Center  129 is at  -2.898652 -1.574341 -1.814883
      ESP Fit Center  130 is at  -3.976015 -0.952325 -1.814883
      ESP Fit Center  131 is at  -3.976015 -2.196357 -1.814883
      ESP Fit Center  132 is at  -3.257773 -2.196357 -1.814883
      ESP Fit Center  133 is at  -3.616894 -1.574341 -1.941529
      ESP Fit Center  134 is at  -3.007920 -2.630755  2.295193
      ESP Fit Center  135 is at  -2.257861 -2.630755  2.145997
      ESP Fit Center  136 is at  -2.632890 -1.981184  2.145997
      ESP Fit Center  137 is at  -3.757980 -2.630755  2.145997
      ESP Fit Center  138 is at  -3.382950 -3.280326  2.145997
      ESP Fit Center  139 is at  -2.632890 -3.280326  2.145997
      ESP Fit Center  140 is at  -1.621991 -2.630755  1.721122
      ESP Fit Center  141 is at  -1.807670 -1.937790  1.721122
      ESP Fit Center  142 is at  -4.208170 -3.323720  1.721122
      ESP Fit Center  143 is at  -3.700885 -3.831005  1.721122
      ESP Fit Center  144 is at  -3.007920 -4.016684  1.721122
      ESP Fit Center  145 is at  -2.314955 -3.831005  1.721122
      ESP Fit Center  146 is at  -1.807670 -3.323720  1.721122
      ESP Fit Center  147 is at  -4.472891 -3.695119  1.085253
      ESP Fit Center  148 is at  -3.913322 -4.198957  1.085253
      ESP Fit Center  149 is at  -3.197201 -4.431639  1.085253
      ESP Fit Center  150 is at  -2.448351 -4.352932  1.085253
      ESP Fit Center  151 is at  -1.796256 -3.976445  1.085253
      ESP Fit Center  152 is at  -1.353668 -3.367275  1.085253
      ESP Fit Center  153 is at  -4.674346 -3.662562  0.335193
      ESP Fit Center  154 is at  -4.189084 -4.194869  0.335193
      ESP Fit Center  155 is at  -3.544300 -4.515933  0.335193
      ESP Fit Center  156 is at  -2.827074 -4.582394  0.335193
      ESP Fit Center  157 is at  -2.134273 -4.385275  0.335193
      ESP Fit Center  158 is at  -1.559463 -3.951198  0.335193
      ESP Fit Center  159 is at  -1.180274 -3.338789  0.335193
      ESP Fit Center  160 is at  -4.472891 -3.695119 -0.414866
      ESP Fit Center  161 is at  -3.913322 -4.198957 -0.414866
      ESP Fit Center  162 is at  -3.197201 -4.431639 -0.414866
      ESP Fit Center  163 is at  -2.448351 -4.352932 -0.414866
      ESP Fit Center  164 is at  -1.796256 -3.976445 -0.414866
      ESP Fit Center  165 is at  -1.353668 -3.367275 -0.414866
      ESP Fit Center  166 is at  -1.621991 -2.630755 -1.050736
      ESP Fit Center  167 is at  -4.208170 -3.323720 -1.050736
      ESP Fit Center  168 is at  -3.700885 -3.831005 -1.050736
      ESP Fit Center  169 is at  -3.007920 -4.016684 -1.050736
      ESP Fit Center  170 is at  -2.314955 -3.831005 -1.050736
      ESP Fit Center  171 is at  -1.807670 -3.323720 -1.050736
      ESP Fit Center  172 is at  -2.257861 -2.630755 -1.475611
      ESP Fit Center  173 is at  -3.382950 -3.280326 -1.475611
      ESP Fit Center  174 is at  -2.632890 -3.280326 -1.475611
      ESP Fit Center  175 is at  -3.007920 -2.630755 -1.624807
      ESP Fit Center  176 is at  -4.842237 -1.497178  2.028678
      ESP Fit Center  177 is at  -5.217267 -0.847607  1.879482
      ESP Fit Center  178 is at  -5.592297 -1.497178  1.879482
      ESP Fit Center  179 is at  -5.217267 -2.146749  1.879482
      ESP Fit Center  180 is at  -6.042487 -0.804213  1.454607
      ESP Fit Center  181 is at  -6.228166 -1.497178  1.454607
      ESP Fit Center  182 is at  -6.042487 -2.190143  1.454607
      ESP Fit Center  183 is at  -5.535202 -2.697428  1.454607
      ESP Fit Center  184 is at  -4.842237 -2.883107  1.454607
      ESP Fit Center  185 is at  -6.613470 -1.120691  0.818738
      ESP Fit Center  186 is at  -6.613470 -1.873665  0.818738
      ESP Fit Center  187 is at  -6.307208 -2.561542  0.818738
      ESP Fit Center  188 is at  -5.747639 -3.065380  0.818738
      ESP Fit Center  189 is at  -5.031518 -3.298062  0.818738
      ESP Fit Center  190 is at  -6.508663 -0.465371  0.068678
      ESP Fit Center  191 is at  -6.768864 -1.137029  0.068678
      ESP Fit Center  192 is at  -6.768864 -1.857327  0.068678
      ESP Fit Center  193 is at  -6.508663 -2.528985  0.068678
      ESP Fit Center  194 is at  -6.023401 -3.061292  0.068678
      ESP Fit Center  195 is at  -5.378616 -3.382356  0.068678
      ESP Fit Center  196 is at  -6.613470 -1.120691 -0.681381
      ESP Fit Center  197 is at  -6.613470 -1.873665 -0.681381
      ESP Fit Center  198 is at  -6.307208 -2.561542 -0.681381
      ESP Fit Center  199 is at  -5.747639 -3.065380 -0.681381
      ESP Fit Center  200 is at  -5.031518 -3.298062 -0.681381
      ESP Fit Center  201 is at  -6.042487 -0.804213 -1.317251
      ESP Fit Center  202 is at  -6.228166 -1.497178 -1.317251
      ESP Fit Center  203 is at  -6.042487 -2.190143 -1.317251
      ESP Fit Center  204 is at  -5.535202 -2.697428 -1.317251
      ESP Fit Center  205 is at  -4.842237 -2.883107 -1.317251
      ESP Fit Center  206 is at  -4.467207 -0.847607 -1.742126
      ESP Fit Center  207 is at  -5.217267 -0.847607 -1.742126
      ESP Fit Center  208 is at  -5.592297 -1.497178 -1.742126
      ESP Fit Center  209 is at  -5.217267 -2.146749 -1.742126
      ESP Fit Center  210 is at  -4.467207 -2.146749 -1.742126
      ESP Fit Center  211 is at  -4.842237 -1.497178 -1.891322
      ESP Fit Center  212 is at   0.793614  0.350232  2.052281
      ESP Fit Center  213 is at   1.511856  0.350232  1.925636
      ESP Fit Center  214 is at   1.152735  0.972248  1.925636
      ESP Fit Center  215 is at   0.434493  0.972248  1.925636
      ESP Fit Center  216 is at   0.075372  0.350232  1.925636
      ESP Fit Center  217 is at   0.434493 -0.271784  1.925636
      ESP Fit Center  218 is at   1.152735 -0.271784  1.925636
      ESP Fit Center  219 is at   0.601510  1.686346  1.560974
      ESP Fit Center  220 is at  -0.090352 -0.669920 -1.656412
      ESP Fit Center  221 is at   0.434493  0.972248 -2.021073
      ESP Fit Center  222 is at   0.434493 -0.271784 -2.021073
      ESP Fit Center  223 is at   0.793614  0.350232 -2.147719
      ESP Fit Center  224 is at   1.810752  1.251342  1.944280
      ESP Fit Center  225 is at   1.451631  1.873358  1.817635
      ESP Fit Center  226 is at   0.515577  1.631640 -1.764413
      ESP Fit Center  227 is at   2.528994  1.251342 -2.129074
      ESP Fit Center  228 is at   2.169873  1.873358 -2.129074
      ESP Fit Center  229 is at   1.451631  1.873358 -2.129074
      ESP Fit Center  230 is at   1.092510  1.251342 -2.129074
      ESP Fit Center  231 is at   1.451631  0.629326 -2.129074
      ESP Fit Center  232 is at   1.810752  1.251342 -2.255720
      ESP Fit Center  233 is at   1.678340  2.463377  1.687255
      ESP Fit Center  234 is at   2.053370  3.112947  1.538059
      ESP Fit Center  235 is at   1.303310  3.112947  1.538059
      ESP Fit Center  236 is at   0.928281  2.463377  1.538059
      ESP Fit Center  237 is at   2.371305  3.663627  1.113184
      ESP Fit Center  238 is at   1.678340  3.849306  1.113184
      ESP Fit Center  239 is at   0.985375  3.663627  1.113184
      ESP Fit Center  240 is at   0.478090  3.156341  1.113184
      ESP Fit Center  241 is at   2.890004  3.809066  0.477315
      ESP Fit Center  242 is at   2.237909  4.185554  0.477315
      ESP Fit Center  243 is at   1.489060  4.264261  0.477315
      ESP Fit Center  244 is at   0.772938  4.031579  0.477315
      ESP Fit Center  245 is at   3.505986  3.171410 -0.272745
      ESP Fit Center  246 is at   3.126798  3.783820 -0.272745
      ESP Fit Center  247 is at   2.551987  4.217897 -0.272745
      ESP Fit Center  248 is at   1.859186  4.415016 -0.272745
      ESP Fit Center  249 is at   1.141961  4.348555 -0.272745
      ESP Fit Center  250 is at   3.332592  3.199897 -1.022804
      ESP Fit Center  251 is at   2.890004  3.809066 -1.022804
      ESP Fit Center  252 is at   2.237909  4.185554 -1.022804
      ESP Fit Center  253 is at   1.489060  4.264261 -1.022804
      ESP Fit Center  254 is at   0.772938  4.031579 -1.022804
      ESP Fit Center  255 is at   3.064269  2.463377 -1.658674
      ESP Fit Center  256 is at   2.878590  3.156341 -1.658674
      ESP Fit Center  257 is at   2.371305  3.663627 -1.658674
      ESP Fit Center  258 is at   1.678340  3.849306 -1.658674
      ESP Fit Center  259 is at   0.985375  3.663627 -1.658674
      ESP Fit Center  260 is at   0.478090  3.156341 -1.658674
      ESP Fit Center  261 is at   2.428400  2.463377 -2.083549
      ESP Fit Center  262 is at   2.053370  3.112947 -2.083549
      ESP Fit Center  263 is at   1.303310  3.112947 -2.083549
      ESP Fit Center  264 is at   0.928281  2.463377 -2.083549
      ESP Fit Center  265 is at   1.678340  2.463377 -2.232745
      ESP Fit Center  266 is at   5.221666  1.855148 -0.590334
      ESP Fit Center  267 is at   4.701817  2.441936 -0.590334
      ESP Fit Center  268 is at   3.968821  2.719925 -0.590334
      ESP Fit Center  269 is at   5.409275  1.093988 -1.338004
      ESP Fit Center  270 is at   5.221666  1.855148 -1.338004
      ESP Fit Center  271 is at   4.701817  2.441936 -1.338004
      ESP Fit Center  272 is at   3.968821  2.719925 -1.338004
      ESP Fit Center  273 is at   5.084873  1.093988 -2.011632
      ESP Fit Center  274 is at   4.834021  1.866030 -2.011632
      ESP Fit Center  275 is at   4.177283  2.343178 -2.011632
      ESP Fit Center  276 is at   3.365509  2.343178 -2.011632
      ESP Fit Center  277 is at   2.708771  1.866030 -2.011632
      ESP Fit Center  278 is at   4.500321  1.093988 -2.477797
      ESP Fit Center  279 is at   4.135858  1.725255 -2.477797
      ESP Fit Center  280 is at   3.406934  1.725255 -2.477797
      ESP Fit Center  281 is at   3.042471  1.093988 -2.477797
      ESP Fit Center  282 is at   3.771396  1.093988 -2.644169
      ESP Fit Center  283 is at   4.302253  1.811232  3.171758
      ESP Fit Center  284 is at   5.078702  1.919002  2.807096
      ESP Fit Center  285 is at   4.503882  2.417086  2.807096
      ESP Fit Center  286 is at   2.471811  2.258193  2.248403
      ESP Fit Center  287 is at   5.471474  2.582483  0.833742
      ESP Fit Center  288 is at   5.160049  2.540739  0.148403
      ESP Fit Center  289 is at   3.424142 -1.266931  2.985045
      ESP Fit Center  290 is at   4.140659 -1.266931  2.904313
      ESP Fit Center  291 is at   2.707625 -1.266931  2.904313
      ESP Fit Center  292 is at   3.065883 -1.887454  2.904313
      ESP Fit Center  293 is at   3.782401 -1.887454  2.904313
      ESP Fit Center  294 is at   4.821248 -1.266931  2.666165
      ESP Fit Center  295 is at   4.634071 -0.568378  2.666165
      ESP Fit Center  296 is at   2.214213 -0.568378  2.666165
      ESP Fit Center  297 is at   2.027036 -1.266931  2.666165
      ESP Fit Center  298 is at   2.214213 -1.965484  2.666165
      ESP Fit Center  299 is at   2.725589 -2.476860  2.666165
      ESP Fit Center  300 is at   3.424142 -2.664037  2.666165
      ESP Fit Center  301 is at   4.122695 -2.476860  2.666165
      ESP Fit Center  302 is at   4.634071 -1.965484  2.666165
      ESP Fit Center  303 is at   5.431779 -1.266931  2.282542
      ESP Fit Center  304 is at   5.296208 -0.541689  2.282542
      ESP Fit Center  305 is at   1.717214 -0.210046  2.282542
      ESP Fit Center  306 is at   1.450689 -0.898029  2.282542
      ESP Fit Center  307 is at   1.450689 -1.635834  2.282542
      ESP Fit Center  308 is at   1.717214 -2.323816  2.282542
      ESP Fit Center  309 is at   2.214270 -2.869060  2.282542
      ESP Fit Center  310 is at   2.874726 -3.197928  2.282542
      ESP Fit Center  311 is at   3.609383 -3.266004  2.282542
      ESP Fit Center  312 is at   4.319023 -3.064094  2.282542
      ESP Fit Center  313 is at   4.907804 -2.619468  2.282542
      ESP Fit Center  314 is at   5.296208 -1.992173  2.282542
      ESP Fit Center  315 is at   5.941639 -1.266931  1.772682
      ESP Fit Center  316 is at   5.829794 -0.524886  1.772682
      ESP Fit Center  317 is at   0.934763 -0.891718  1.772682
      ESP Fit Center  318 is at   0.934763 -1.642145  1.772682
      ESP Fit Center  319 is at   1.155955 -2.359232  1.772682
      ESP Fit Center  320 is at   1.578686 -2.979264  1.772682
      ESP Fit Center  321 is at   2.165393 -3.447148  1.772682
      ESP Fit Center  322 is at   2.863946 -3.721310  1.772682
      ESP Fit Center  323 is at   3.612275 -3.777389  1.772682
      ESP Fit Center  324 is at   4.343887 -3.610403  1.772682
      ESP Fit Center  325 is at   4.993776 -3.235190  1.772682
      ESP Fit Center  326 is at   5.504196 -2.685088  1.772682
      ESP Fit Center  327 is at   5.829794 -2.008977  1.772682
      ESP Fit Center  328 is at   6.325262 -1.266931  1.162151
      ESP Fit Center  329 is at   6.234118 -0.545452  1.162151
      ESP Fit Center  330 is at   0.726749 -2.334905  1.162151
      ESP Fit Center  331 is at   1.077087 -2.972167  1.162151
      ESP Fit Center  332 is at   1.574899 -3.502282  1.162151
      ESP Fit Center  333 is at   2.188905 -3.891943  1.162151
      ESP Fit Center  334 is at   2.880526 -4.116664  1.162151
      ESP Fit Center  335 is at   3.606305 -4.162326  1.162151
      ESP Fit Center  336 is at   4.320637 -4.026060  1.162151
      ESP Fit Center  337 is at   4.978640 -3.716428  1.162151
      ESP Fit Center  338 is at   5.538967 -3.252884  1.162151
      ESP Fit Center  339 is at   5.966413 -2.664556  1.162151
      ESP Fit Center  340 is at   6.234118 -1.988410  1.162151
      ESP Fit Center  341 is at   6.563410 -1.266931  0.481562
      ESP Fit Center  342 is at   6.478790 -0.542966  0.481562
      ESP Fit Center  343 is at   0.474195 -2.340624  0.481562
      ESP Fit Center  344 is at   0.801322 -2.991987  0.481562
      ESP Fit Center  345 is at   1.269846 -3.550352  0.481562
      ESP Fit Center  346 is at   1.854508 -3.985617  0.481562
      ESP Fit Center  347 is at   2.523790 -4.274317  0.481562
      ESP Fit Center  348 is at   3.241610 -4.400888  0.481562
      ESP Fit Center  349 is at   3.969270 -4.358507  0.481562
      ESP Fit Center  350 is at   4.667542 -4.149458  0.481562
      ESP Fit Center  351 is at   5.298783 -3.785011  0.481562
      ESP Fit Center  352 is at   5.828961 -3.284814  0.481562
      ESP Fit Center  353 is at   6.229494 -2.675832  0.481562
      ESP Fit Center  354 is at   6.478790 -1.990896  0.481562
      ESP Fit Center  355 is at   6.644142 -1.266931 -0.234955
      ESP Fit Center  356 is at   6.563410 -0.550414 -0.234955
      ESP Fit Center  357 is at   6.325262  0.130174 -0.234955
      ESP Fit Center  358 is at   5.941639  0.740706 -0.234955
      ESP Fit Center  359 is at   0.523022 -2.664037 -0.234955
      ESP Fit Center  360 is at   0.906645 -3.274568 -0.234955
      ESP Fit Center  361 is at   1.416505 -3.784429 -0.234955
      ESP Fit Center  362 is at   2.027036 -4.168051 -0.234955
      ESP Fit Center  363 is at   2.707625 -4.406199 -0.234955
      ESP Fit Center  364 is at   3.424142 -4.486931 -0.234955
      ESP Fit Center  365 is at   4.140659 -4.406199 -0.234955
      ESP Fit Center  366 is at   4.821248 -4.168051 -0.234955
      ESP Fit Center  367 is at   5.431779 -3.784429 -0.234955
      ESP Fit Center  368 is at   5.941639 -3.274568 -0.234955
      ESP Fit Center  369 is at   6.325262 -2.664037 -0.234955
      ESP Fit Center  370 is at   6.563410 -1.983449 -0.234955
      ESP Fit Center  371 is at   6.563410 -1.266931 -0.951472
      ESP Fit Center  372 is at   6.478790 -0.542966 -0.951472
      ESP Fit Center  373 is at   6.229494  0.141970 -0.951472
      ESP Fit Center  374 is at   5.828961  0.750951 -0.951472
      ESP Fit Center  375 is at   0.474195 -2.340624 -0.951472
      ESP Fit Center  376 is at   0.801322 -2.991987 -0.951472
      ESP Fit Center  377 is at   1.269846 -3.550352 -0.951472
      ESP Fit Center  378 is at   1.854508 -3.985617 -0.951472
      ESP Fit Center  379 is at   2.523790 -4.274317 -0.951472
      ESP Fit Center  380 is at   3.241610 -4.400888 -0.951472
      ESP Fit Center  381 is at   3.969270 -4.358507 -0.951472
      ESP Fit Center  382 is at   4.667542 -4.149458 -0.951472
      ESP Fit Center  383 is at   5.298783 -3.785011 -0.951472
      ESP Fit Center  384 is at   5.828961 -3.284814 -0.951472
      ESP Fit Center  385 is at   6.229494 -2.675832 -0.951472
      ESP Fit Center  386 is at   6.478790 -1.990896 -0.951472
      ESP Fit Center  387 is at   6.325262 -1.266931 -1.632061
      ESP Fit Center  388 is at   6.234118 -0.545452 -1.632061
      ESP Fit Center  389 is at   5.966413  0.130694 -1.632061
      ESP Fit Center  390 is at   5.538967  0.719022 -1.632061
      ESP Fit Center  391 is at   0.545898 -1.630538 -1.632061
      ESP Fit Center  392 is at   0.726749 -2.334905 -1.632061
      ESP Fit Center  393 is at   1.077087 -2.972167 -1.632061
      ESP Fit Center  394 is at   1.574899 -3.502282 -1.632061
      ESP Fit Center  395 is at   2.188905 -3.891943 -1.632061
      ESP Fit Center  396 is at   2.880526 -4.116664 -1.632061
      ESP Fit Center  397 is at   3.606305 -4.162326 -1.632061
      ESP Fit Center  398 is at   4.320637 -4.026060 -1.632061
      ESP Fit Center  399 is at   4.978640 -3.716428 -1.632061
      ESP Fit Center  400 is at   5.538967 -3.252884 -1.632061
      ESP Fit Center  401 is at   5.966413 -2.664556 -1.632061
      ESP Fit Center  402 is at   6.234118 -1.988410 -1.632061
      ESP Fit Center  403 is at   5.941639 -1.266931 -2.242592
      ESP Fit Center  404 is at   5.829794 -0.524886 -2.242592
      ESP Fit Center  405 is at   5.504196  0.151226 -2.242592
      ESP Fit Center  406 is at   4.993776  0.701327 -2.242592
      ESP Fit Center  407 is at   2.165393  0.913285 -2.242592
      ESP Fit Center  408 is at   1.578686  0.445402 -2.242592
      ESP Fit Center  409 is at   1.155955 -0.174630 -2.242592
      ESP Fit Center  410 is at   0.934763 -0.891718 -2.242592
      ESP Fit Center  411 is at   0.934763 -1.642145 -2.242592
      ESP Fit Center  412 is at   1.155955 -2.359232 -2.242592
      ESP Fit Center  413 is at   1.578686 -2.979264 -2.242592
      ESP Fit Center  414 is at   2.165393 -3.447148 -2.242592
      ESP Fit Center  415 is at   2.863946 -3.721310 -2.242592
      ESP Fit Center  416 is at   3.612275 -3.777389 -2.242592
      ESP Fit Center  417 is at   4.343887 -3.610403 -2.242592
      ESP Fit Center  418 is at   4.993776 -3.235190 -2.242592
      ESP Fit Center  419 is at   5.504196 -2.685088 -2.242592
      ESP Fit Center  420 is at   5.829794 -2.008977 -2.242592
      ESP Fit Center  421 is at   5.431779 -1.266931 -2.752452
      ESP Fit Center  422 is at   5.296208 -0.541689 -2.752452
      ESP Fit Center  423 is at   4.907804  0.085605 -2.752452
      ESP Fit Center  424 is at   4.319023  0.530232 -2.752452
      ESP Fit Center  425 is at   3.609383  0.732142 -2.752452
      ESP Fit Center  426 is at   2.874726  0.664066 -2.752452
      ESP Fit Center  427 is at   2.214270  0.335198 -2.752452
      ESP Fit Center  428 is at   1.717214 -0.210046 -2.752452
      ESP Fit Center  429 is at   1.450689 -0.898029 -2.752452
      ESP Fit Center  430 is at   1.450689 -1.635834 -2.752452
      ESP Fit Center  431 is at   1.717214 -2.323816 -2.752452
      ESP Fit Center  432 is at   2.214270 -2.869060 -2.752452
      ESP Fit Center  433 is at   2.874726 -3.197928 -2.752452
      ESP Fit Center  434 is at   3.609383 -3.266004 -2.752452
      ESP Fit Center  435 is at   4.319023 -3.064094 -2.752452
      ESP Fit Center  436 is at   4.907804 -2.619468 -2.752452
      ESP Fit Center  437 is at   5.296208 -1.992173 -2.752452
      ESP Fit Center  438 is at   4.821248 -1.266931 -3.136075
      ESP Fit Center  439 is at   4.634071 -0.568378 -3.136075
      ESP Fit Center  440 is at   4.122695 -0.057002 -3.136075
      ESP Fit Center  441 is at   3.424142  0.130174 -3.136075
      ESP Fit Center  442 is at   2.725589 -0.057002 -3.136075
      ESP Fit Center  443 is at   2.214213 -0.568378 -3.136075
      ESP Fit Center  444 is at   2.027036 -1.266931 -3.136075
      ESP Fit Center  445 is at   2.214213 -1.965484 -3.136075
      ESP Fit Center  446 is at   2.725589 -2.476860 -3.136075
      ESP Fit Center  447 is at   3.424142 -2.664037 -3.136075
      ESP Fit Center  448 is at   4.122695 -2.476860 -3.136075
      ESP Fit Center  449 is at   4.634071 -1.965484 -3.136075
      ESP Fit Center  450 is at   4.140659 -1.266931 -3.374223
      ESP Fit Center  451 is at   3.782401 -0.646409 -3.374223
      ESP Fit Center  452 is at   3.065883 -0.646409 -3.374223
      ESP Fit Center  453 is at   2.707625 -1.266931 -3.374223
      ESP Fit Center  454 is at   3.065883 -1.887454 -3.374223
      ESP Fit Center  455 is at   3.782401 -1.887454 -3.374223
      ESP Fit Center  456 is at   3.424142 -1.266931 -3.454955
      ESP Fit Center  457 is at  -5.409277  0.813003  2.510044
      ESP Fit Center  458 is at  -4.680352  0.813003  2.343672
      ESP Fit Center  459 is at  -5.044815  1.444270  2.343672
      ESP Fit Center  460 is at  -5.773739  1.444270  2.343672
      ESP Fit Center  461 is at  -6.138202  0.813003  2.343672
      ESP Fit Center  462 is at  -5.773739  0.181736  2.343672
      ESP Fit Center  463 is at  -5.044815  0.181736  2.343672
      ESP Fit Center  464 is at  -5.003390  2.062194  1.877507
      ESP Fit Center  465 is at  -5.815164  2.062194  1.877507
      ESP Fit Center  466 is at  -6.471902  1.585045  1.877507
      ESP Fit Center  467 is at  -6.722754  0.813003  1.877507
      ESP Fit Center  468 is at  -6.471902  0.040961  1.877507
      ESP Fit Center  469 is at  -5.815164 -0.436188  1.877507
      ESP Fit Center  470 is at  -5.003390 -0.436188  1.877507
      ESP Fit Center  471 is at  -4.346652  0.040961  1.877507
      ESP Fit Center  472 is at  -6.635247  1.899118  1.203879
      ESP Fit Center  473 is at  -6.999562  1.204973  1.203879
      ESP Fit Center  474 is at  -6.999562  0.421033  1.203879
      ESP Fit Center  475 is at  -6.635247 -0.273112  1.203879
      ESP Fit Center  476 is at  -6.999562  1.204973  0.456209
      ESP Fit Center  477 is at  -6.999562  0.421033  0.456209
      ESP Fit Center  478 is at  -6.635247 -0.273112  0.456209
      ESP Fit Center  479 is at  -4.721348  2.920622  1.406357
      ESP Fit Center  480 is at  -5.450272  2.920622  1.406357
      ESP Fit Center  481 is at  -4.679923  3.538546  0.940192
      ESP Fit Center  482 is at  -5.491697  3.538546  0.940192
      ESP Fit Center  483 is at  -6.148435  3.061397  0.940192
      ESP Fit Center  484 is at  -4.888385  3.915292  0.266564
      ESP Fit Center  485 is at  -5.666610  3.820798  0.266564
      ESP Fit Center  486 is at  -6.311780  3.375470  0.266564
      ESP Fit Center  487 is at  -6.676095  2.681325  0.266564
      ESP Fit Center  488 is at  -4.888385  3.915292 -0.481106
      ESP Fit Center  489 is at  -5.666610  3.820798 -0.481106
      ESP Fit Center  490 is at  -6.311780  3.375470 -0.481106
      ESP Fit Center  491 is at  -6.676095  2.681325 -0.481106
      ESP Fit Center  492 is at  -4.679923  3.538546 -1.154734
      ESP Fit Center  493 is at  -5.491697  3.538546 -1.154734
      ESP Fit Center  494 is at  -6.148435  3.061397 -1.154734
      ESP Fit Center  495 is at  -6.399287  2.289355 -1.154734
      ESP Fit Center  496 is at  -4.721348  2.920622 -1.620899
      ESP Fit Center  497 is at  -5.450272  2.920622 -1.620899
      ESP Fit Center  498 is at  -7.004562  1.132475 -0.543387
      ESP Fit Center  499 is at  -7.004562  0.348535 -0.543387
      ESP Fit Center  500 is at  -6.640247 -0.345610 -0.543387
      ESP Fit Center  501 is at  -6.640247  1.826620 -1.291057
      ESP Fit Center  502 is at  -7.004562  1.132475 -1.291057
      ESP Fit Center  503 is at  -7.004562  0.348535 -1.291057
      ESP Fit Center  504 is at  -6.640247 -0.345610 -1.291057
      ESP Fit Center  505 is at  -5.820164  1.989696 -1.964685
      ESP Fit Center  506 is at  -6.476902  1.512547 -1.964685
      ESP Fit Center  507 is at  -6.727754  0.740505 -1.964685
      ESP Fit Center  508 is at  -6.476902 -0.031537 -1.964685
      ESP Fit Center  509 is at  -5.820164 -0.508686 -1.964685
      ESP Fit Center  510 is at  -5.008390 -0.508686 -1.964685
      ESP Fit Center  511 is at  -4.351652 -0.031537 -1.964685
      ESP Fit Center  512 is at  -4.685352  0.740505 -2.430850
      ESP Fit Center  513 is at  -5.049815  1.371772 -2.430850
      ESP Fit Center  514 is at  -5.778739  1.371772 -2.430850
      ESP Fit Center  515 is at  -6.143202  0.740505 -2.430850
      ESP Fit Center  516 is at  -5.778739  0.109238 -2.430850
      ESP Fit Center  517 is at  -5.049815  0.109238 -2.430850
      ESP Fit Center  518 is at  -5.414277  0.740505 -2.597222
      ESP Fit Center  519 is at  -2.597913  3.643753  1.276696
      ESP Fit Center  520 is at  -3.326837  3.643753  1.276696
      ESP Fit Center  521 is at  -1.899750  3.784528  0.810531
      ESP Fit Center  522 is at  -2.556488  4.261677  0.810531
      ESP Fit Center  523 is at  -3.368262  4.261677  0.810531
      ESP Fit Center  524 is at  -4.025000  3.784528  0.810531
      ESP Fit Center  525 is at  -2.031954  4.360434  0.136903
      ESP Fit Center  526 is at  -2.764950  4.638423  0.136903
      ESP Fit Center  527 is at  -3.543175  4.543929  0.136903
      ESP Fit Center  528 is at  -4.188345  4.098601  0.136903
      ESP Fit Center  529 is at  -2.031954  4.360434 -0.610767
      ESP Fit Center  530 is at  -2.764950  4.638423 -0.610767
[...]
 3187 Fit      -0.021652
 3188 Fit      -0.023505
 3189 Fit      -0.013435
 3190 Fit      -0.017370
 3191 Fit      -0.020476
 3192 Fit      -0.023040
 3193 Fit      -0.025313
 3194 Fit      -0.027920
 3195 Fit      -0.012250
 3196 Fit      -0.016288
 3197 Fit      -0.019545
 3198 Fit      -0.022336
 3199 Fit      -0.024792
 3200 Fit      -0.027129
 3201 Fit      -0.030002
 3202 Fit      -0.014797
 3203 Fit      -0.018221
 3204 Fit      -0.021181
 3205 Fit      -0.023801
 3206 Fit      -0.026162
 3207 Fit      -0.028551
 3208 Fit      -0.031862
 3209 Fit      -0.014644
 3210 Fit      -0.018026
 3211 Fit      -0.020934
 3212 Fit      -0.023478
 3213 Fit      -0.025713
 3214 Fit      -0.027857
 3215 Fit      -0.030624
 3216 Fit      -0.011812
 3217 Fit      -0.015773
 3218 Fit      -0.018909
 3219 Fit      -0.021516
 3220 Fit      -0.023677
 3221 Fit      -0.025471
 3222 Fit      -0.027212
 3223 Fit      -0.012642
 3224 Fit      -0.016474
 3225 Fit      -0.019325
 3226 Fit      -0.021451
 3227 Fit      -0.022911
 3228 Fit      -0.023841
 3229 Fit      -0.011009
 3230 Fit      -0.015132
 3231 Fit      -0.017824
 3232 Fit      -0.019353
 3233 Fit      -0.019700
 3234 Fit      -0.011517
 3235 Fit      -0.014641
 3236 Fit      -0.015677
 3237 Fit      -0.014396
 3238 Fit      -0.009298
 3239 Fit      -0.011242
 3240 Fit      -0.006423
 3241 Fit       0.008329
 3242 Fit       0.007654
 3243 Fit       0.004728
 3244 Fit       0.006201
 3245 Fit      -0.000332
 3246 Fit       0.000603
 3247 Fit      -0.003292
 3248 Fit      -0.003285
 3249 Fit      -0.001112
 3250 Fit      -0.006331
 3251 Fit      -0.006432
 3252 Fit      -0.004305
 3253 Fit      -0.007090
 3254 Fit      -0.009041
 3255 Fit      -0.008378
 3256 Fit      -0.005427
 3257 Fit      -0.007721
 3258 Fit      -0.010492
 3259 Fit      -0.010859
 3260 Fit      -0.009028
 3261 Fit      -0.009356
 3262 Fit      -0.011866
 3263 Fit      -0.012236
 3264 Fit      -0.010532
 3265 Fit      -0.006245
 3266 Fit      -0.006438
 3267 Fit      -0.010746
 3268 Fit      -0.012805
 3269 Fit      -0.012920
 3270 Fit      -0.011067
 3271 Fit      -0.006688
 3272 Fit      -0.001653
 3273 Fit      -0.007946
 3274 Fit      -0.011583
 3275 Fit      -0.013112
 3276 Fit      -0.012798
 3277 Fit      -0.010573
 3278 Fit      -0.004187
 3279 Fit      -0.009453
 3280 Fit      -0.012077
 3281 Fit      -0.012572
 3282 Fit      -0.011130
 3283 Fit      -0.007722
 3284 Fit       0.000628
 3285 Fit      -0.006388
 3286 Fit      -0.010182
 3287 Fit      -0.011361
 3288 Fit      -0.010369
 3289 Fit      -0.007673
 3290 Fit      -0.002860
 3291 Fit      -0.007744
 3292 Fit      -0.009337
 3293 Fit      -0.008292
 3294 Fit      -0.005847
 3295 Fit      -0.005123
 3296 Fit      -0.006117
 3297 Fit      -0.003134
 3298 Fit      -0.001951
 3299 Fit       0.007699
 3300 Fit       0.011731
 3301 Fit       0.007153
 3302 Fit       0.009623
 3303 Fit       0.004710
 3304 Fit       0.011449
 3305 Fit       0.011204
 3306 Fit       0.011126
 3307 Fit       0.010958
 3308 Fit       0.010660
 3309 Fit       0.010364
 3310 Fit       0.010436
 3311 Fit       0.011086
 3312 Fit       0.011358
 3313 Fit       0.011184
 3314 Fit       0.010824
 3315 Fit       0.010447
 3316 Fit       0.009917
 3317 Fit       0.009207
 3318 Fit       0.008966
 3319 Fit       0.011038
 3320 Fit       0.011799
 3321 Fit       0.011227
 3322 Fit       0.010800
 3323 Fit       0.006649
 3324 Fit       0.008674
 3325 Fit       0.011854
 3326 Fit       0.011201
 3327 Fit       0.011538
 3328 Fit       0.011859
 3329 Fit       0.012108
 3330 Fit       0.014138
 3331 Fit       0.012562
 3332 Fit       0.013072
 3333 Fit       0.008775
 3334 Fit       0.006991
 3335 Fit       0.006718
 3336 Fit       0.008812
 3337 Fit       0.009064
 3338 Fit       0.007121
 3339 Fit       0.005435
 3340 Fit       0.005268
 3341 Fit       0.006396
 3342 Fit       0.008514
 3343 Fit       0.010740
 3344 Fit       0.011297
 3345 Fit       0.009231
 3346 Fit       0.007102
 3347 Fit       0.005330
 3348 Fit       0.004162
 3349 Fit       0.003704
 3350 Fit       0.003919
 3351 Fit       0.004810
 3352 Fit       0.006134
 3353 Fit       0.008081
 3354 Fit       0.010227
 3355 Fit       0.010901
 3356 Fit       0.008828
 3357 Fit       0.007013
 3358 Fit       0.005358
 3359 Fit       0.004007
 3360 Fit       0.003127
 3361 Fit       0.002704
 3362 Fit       0.002648
 3363 Fit       0.002912
 3364 Fit       0.003534
 3365 Fit       0.004593
 3366 Fit       0.005985
 3367 Fit       0.007869
 3368 Fit       0.009923
 3369 Fit       0.011676
 3370 Fit       0.009831
 3371 Fit       0.008356
 3372 Fit       0.006970
 3373 Fit       0.005451
 3374 Fit       0.004000
 3375 Fit       0.002914
 3376 Fit       0.002263
 3377 Fit       0.001953
 3378 Fit       0.001873
 3379 Fit       0.001957
 3380 Fit       0.002200
 3381 Fit       0.002648
 3382 Fit       0.003378
 3383 Fit       0.004473
 3384 Fit       0.005910
 3385 Fit       0.007878
 3386 Fit       0.010135
 3387 Fit       0.010642
 3388 Fit       0.009248
 3389 Fit       0.008365
 3390 Fit       0.007636
 3391 Fit       0.006433
 3392 Fit       0.004760
 3393 Fit       0.003208
 3394 Fit       0.002166
 3395 Fit       0.001611
 3396 Fit       0.001380
 3397 Fit       0.001333
 3398 Fit       0.001384
 3399 Fit       0.001500
 3400 Fit       0.001689
 3401 Fit       0.001996
 3402 Fit       0.002488
 3403 Fit       0.003251
 3404 Fit       0.004370
 3405 Fit       0.005821
 3406 Fit       0.007888
 3407 Fit       0.010418
 3408 Fit       0.004848
 3409 Fit       0.002763
 3410 Fit       0.001507
 3411 Fit       0.000962
 3412 Fit       0.000814
 3413 Fit       0.000851
 3414 Fit       0.000961
 3415 Fit       0.001089
 3416 Fit       0.001219
 3417 Fit       0.001361
 3418 Fit       0.001556
 3419 Fit       0.001862
 3420 Fit       0.002357
 3421 Fit       0.003124
 3422 Fit       0.004251
 3423 Fit       0.005640
 3424 Fit       0.007663
 3425 Fit       0.010217
 3426 Fit       0.001922
 3427 Fit       0.000362
 3428 Fit      -0.000038
 3429 Fit       0.000036
 3430 Fit       0.000263
 3431 Fit       0.000518
 3432 Fit       0.000750
 3433 Fit       0.000939
 3434 Fit       0.001085
 3435 Fit       0.001201
 3436 Fit       0.001323
 3437 Fit       0.001498
 3438 Fit       0.001791
 3439 Fit       0.002273
 3440 Fit       0.003022
 3441 Fit       0.004117
 3442 Fit       0.005344
 3443 Fit       0.007237
 3444 Fit       0.009617
 3445 Fit      -0.001699
 3446 Fit      -0.001280
 3447 Fit      -0.000709
 3448 Fit      -0.000193
 3449 Fit       0.000236
 3450 Fit       0.000576
 3451 Fit       0.000831
 3452 Fit       0.001008
 3453 Fit       0.001124
 3454 Fit       0.001206
 3455 Fit       0.001295
 3456 Fit       0.001442
 3457 Fit       0.001708
 3458 Fit       0.002162
 3459 Fit       0.002872
 3460 Fit       0.003910
 3461 Fit       0.004963
 3462 Fit       0.006727
 3463 Fit       0.008906
 3464 Fit       0.011388
 3465 Fit      -0.003036
 3466 Fit      -0.001882
 3467 Fit      -0.000978
 3468 Fit      -0.000298
 3469 Fit       0.000217
 3470 Fit       0.000600
 3471 Fit       0.000870
 3472 Fit       0.001043
 3473 Fit       0.001140
 3474 Fit       0.001193
 3475 Fit       0.001246
 3476 Fit       0.001353
 3477 Fit       0.001577
 3478 Fit       0.001985
 3479 Fit       0.002643
 3480 Fit       0.003616
 3481 Fit       0.004549
 3482 Fit       0.006133
 3483 Fit       0.008049
 3484 Fit       0.010186
 3485 Fit       0.012271
 3486 Fit      -0.003041
 3487 Fit      -0.001804
 3488 Fit      -0.000893
 3489 Fit      -0.000216
 3490 Fit       0.000291
 3491 Fit       0.000662
 3492 Fit       0.000914
 3493 Fit       0.001065
 3494 Fit       0.001138
 3495 Fit       0.001165
 3496 Fit       0.001192
 3497 Fit       0.001271
 3498 Fit       0.001462
 3499 Fit       0.001828
 3500 Fit       0.002430
 3501 Fit       0.003322
 3502 Fit       0.004148
 3503 Fit       0.005585
 3504 Fit       0.007306
 3505 Fit       0.009210
 3506 Fit       0.011106
 3507 Fit       0.012718
 3508 Fit       0.013764
 3509 Fit      -0.002642
 3510 Fit      -0.001648
 3511 Fit      -0.000844
 3512 Fit      -0.000214
 3513 Fit       0.000272
 3514 Fit       0.000633
 3515 Fit       0.000880
 3516 Fit       0.001025
 3517 Fit       0.001089
 3518 Fit       0.001104
 3519 Fit       0.001114
 3520 Fit       0.001171
 3521 Fit       0.001332
 3522 Fit       0.001659
 3523 Fit       0.002206
 3524 Fit       0.003025
 3525 Fit       0.003785
 3526 Fit       0.005119
 3527 Fit       0.006714
 3528 Fit       0.008488
 3529 Fit       0.010298
 3530 Fit       0.011941
 3531 Fit       0.013128
 3532 Fit       0.013333
 3533 Fit      -0.001580
 3534 Fit      -0.001844
 3535 Fit      -0.001398
 3536 Fit      -0.000830
 3537 Fit      -0.000299
 3538 Fit       0.000150
 3539 Fit       0.000504
 3540 Fit       0.000757
 3541 Fit       0.000912
 3542 Fit       0.000986
 3543 Fit       0.001005
 3544 Fit       0.001011
 3545 Fit       0.001054
 3546 Fit       0.001192
 3547 Fit       0.001484
 3548 Fit       0.001985
 3549 Fit       0.002742
 3550 Fit       0.003470
 3551 Fit       0.004705
 3552 Fit       0.006182
 3553 Fit       0.007840
 3554 Fit       0.009569
 3555 Fit       0.011198
 3556 Fit       0.012429
 3557 Fit       0.012682
 3558 Fit       0.000709
 3559 Fit      -0.000508
 3560 Fit      -0.000762
 3561 Fit      -0.000591
 3562 Fit      -0.000273
 3563 Fit       0.000066
 3564 Fit       0.000366
 3565 Fit       0.000599
 3566 Fit       0.000754
 3567 Fit       0.000837
 3568 Fit       0.000869
 3569 Fit       0.000884
 3570 Fit       0.000931
 3571 Fit       0.001063
 3572 Fit       0.001336
 3573 Fit       0.001802
 3574 Fit       0.002504
 3575 Fit       0.003201
 3576 Fit       0.004399
 3577 Fit       0.005839
 3578 Fit       0.007456
 3579 Fit       0.009133
 3580 Fit       0.010663
 3581 Fit       0.011655
 3582 Fit       0.011423
 3583 Fit       0.003436
 3584 Fit       0.001724
 3585 Fit       0.000479
 3586 Fit      -0.000092
 3587 Fit      -0.000205
 3588 Fit      -0.000084
 3589 Fit       0.000125
 3590 Fit       0.000339
 3591 Fit       0.000513
 3592 Fit       0.000629
 3593 Fit       0.000694
 3594 Fit       0.000732
 3595 Fit       0.000786
 3596 Fit       0.000910
 3597 Fit       0.001162
 3598 Fit       0.001600
 3599 Fit       0.002270
 3600 Fit       0.002968
 3601 Fit       0.004151
 3602 Fit       0.005570
 3603 Fit       0.007138
 3604 Fit       0.008690
 3605 Fit       0.009923
 3606 Fit       0.010337
 3607 Fit       0.009335
 3608 Fit       0.006720
 3609 Fit       0.003357
 3610 Fit       0.001038
 3611 Fit       0.000984
 3612 Fit       0.002302
 3613 Fit       0.003185
 3614 Fit       0.003349
 3615 Fit       0.003482
 3616 Fit       0.003656
 3617 Fit       0.003393
 3618 Fit       0.002494
 3619 Fit       0.001391
 3620 Fit       0.000571
 3621 Fit       0.000160
 3622 Fit       0.000058
 3623 Fit       0.000126
 3624 Fit       0.000258
 3625 Fit       0.000388
 3626 Fit       0.000486
 3627 Fit       0.000557
 3628 Fit       0.000630
 3629 Fit       0.000754
 3630 Fit       0.000993
 3631 Fit       0.001408
 3632 Fit       0.002056
 3633 Fit       0.002762
 3634 Fit       0.003904
 3635 Fit       0.005249
 3636 Fit       0.006669
 3637 Fit       0.007930
 3638 Fit       0.008663
 3639 Fit       0.008462
 3640 Fit       0.007219
 3641 Fit       0.005492
 3642 Fit       0.004229
 3643 Fit       0.003832
 3644 Fit       0.003815
 3645 Fit       0.003679
 3646 Fit       0.003449
 3647 Fit       0.003167
 3648 Fit       0.002664
 3649 Fit       0.001904
 3650 Fit       0.001118
 3651 Fit       0.000550
 3652 Fit       0.000261
 3653 Fit       0.000185
 3654 Fit       0.000225
 3655 Fit       0.000306
 3656 Fit       0.000393
 3657 Fit       0.000487
 3658 Fit       0.000622
 3659 Fit       0.000856
 3660 Fit       0.001256
 3661 Fit       0.001879
 3662 Fit       0.002575
 3663 Fit       0.003682
 3664 Fit       0.004934
 3665 Fit       0.006120
 3666 Fit       0.006918
 3667 Fit       0.007009
 3668 Fit       0.006359
 3669 Fit       0.005395
 3670 Fit       0.004615
 3671 Fit       0.004081
 3672 Fit       0.003600
 3673 Fit       0.003093
 3674 Fit       0.002521
 3675 Fit       0.001849
 3676 Fit       0.001174
 3677 Fit       0.000661
 3678 Fit       0.000377
 3679 Fit       0.000283
 3680 Fit       0.000301
 3681 Fit       0.000379
 3682 Fit       0.000510
 3683 Fit       0.000733
 3684 Fit       0.001111
 3685 Fit       0.001712
 3686 Fit       0.002404
 3687 Fit       0.003491
 3688 Fit       0.004600
 3689 Fit       0.005379
 3690 Fit       0.005512
 3691 Fit       0.005043
 3692 Fit       0.004344
 3693 Fit       0.003648
 3694 Fit       0.002957
 3695 Fit       0.002247
 3696 Fit       0.001542
 3697 Fit       0.000954
 3698 Fit       0.000591
 3699 Fit       0.000453
 3700 Fit       0.000481
 3701 Fit       0.000644
 3702 Fit       0.000976
 3703 Fit       0.001548
 3704 Fit       0.002253
 3705 Fit       0.003271
 3706 Fit       0.004042
 3707 Fit       0.004144
 3708 Fit       0.003647
 3709 Fit       0.002897
 3710 Fit       0.002092
 3711 Fit       0.001374
 3712 Fit       0.000911
 3713 Fit       0.000773
 3714 Fit       0.000938
 3715 Fit       0.001423
 3716 Fit       0.002130
 3717 Fit       0.002933
 3718 Fit       0.002827
 3719 Fit       0.002033
 3720 Fit       0.001386
 3721 Fit       0.001409
 3722 Fit       0.002052
 3723 Fit       0.002741
 3724 Fit       0.003454
 3725 Fit       0.004115
 3726 Fit       0.003660
 3727 Fit       0.002041
 3728 Fit       0.000455
 3729 Fit       0.001600
 3730 Fit       0.004951
 3731 Fit       0.003998
 3732 Fit       0.002403
 3733 Fit       0.000066
 3734 Fit      -0.002598
 3735 Fit      -0.003470
 3736 Fit      -0.000230
 3737 Fit       0.003282
 3738 Fit       0.004225
 3739 Fit       0.002679
 3740 Fit       0.000561
 3741 Fit      -0.002411
 3742 Fit      -0.006275
 3743 Fit       0.003835
 3744 Fit       0.002063
 3745 Fit      -0.000238
 3746 Fit      -0.003466
 3747 Fit      -0.008078
 3748 Fit       0.000477
 3749 Fit      -0.002707
 3750 Fit      -0.007407
 3751 Fit      -0.008912
 3752 Fit       0.008527
 3753 Fit       0.010661
 3754 Fit       0.008967
 3755 Fit       0.007389
 3756 Fit       0.012349
 3757 Fit       0.010293
 3758 Fit       0.008597
 3759 Fit       0.007052
 3760 Fit       0.014313
 3761 Fit       0.011565
 3762 Fit       0.009587
 3763 Fit       0.007889
 3764 Fit       0.006300
 3765 Fit       0.014680
 3766 Fit       0.011752
 3767 Fit       0.009702
 3768 Fit       0.007968
 3769 Fit       0.006358
 3770 Fit       0.013138
 3771 Fit       0.010734
 3772 Fit       0.008881
 3773 Fit       0.007248
 3774 Fit       0.011654
 3775 Fit       0.009528
 3776 Fit       0.007736
 3777 Fit       0.010766
 3778 Fit       0.009300
 3779 Fit       0.007530
 3780 Fit      -0.008943
 3781 Fit       0.000515
 3782 Fit      -0.002534
 3783 Fit      -0.006898
 3784 Fit       0.002169
 3785 Fit      -0.000003
 3786 Fit      -0.002937
 3787 Fit      -0.006968
 3788 Fit       0.004345
 3789 Fit       0.002807
 3790 Fit       0.000850
 3791 Fit      -0.001782
 3792 Fit      -0.005068
 3793 Fit      -0.008128
 3794 Fit       0.005034
 3795 Fit       0.004056
 3796 Fit       0.002548
 3797 Fit       0.000457
 3798 Fit      -0.001874
 3799 Fit      -0.002824
 3800 Fit      -0.000726
 3801 Fit       0.001906
 3802 Fit       0.002895
 3803 Fit       0.003865
 3804 Fit       0.003607
 3805 Fit       0.002148
 3806 Fit       0.000641
 3807 Fit       0.001296
 3808 Fit       0.002586
 3809 Fit       0.009286
 3810 Fit       0.010156
 3811 Fit       0.009431
 3812 Fit       0.010645
 3813 Fit       0.011653
 3814 Fit       0.012524
 3815 Fit       0.010823
 3816 Fit       0.011796
 3817 Fit       0.012732
 3818 Fit       0.013714
 3819 Fit       0.011262
 3820 Fit       0.012161
 3821 Fit       0.013103
 3822 Fit       0.014100
 3823 Fit       0.011304
 3824 Fit       0.012206
 3825 Fit       0.013139
 3826 Fit       0.014103
 3827 Fit       0.010137
 3828 Fit       0.010960
 3829 Fit       0.011929
 3830 Fit       0.012825
 3831 Fit       0.013689
 3832 Fit       0.009685
 3833 Fit       0.010874
 3834 Fit       0.011798
 3835 Fit       0.012461
 3836 Fit       0.009593
 3837 Fit       0.010279
 3838 Fit      -0.001664
 3839 Fit      -0.003410
 3840 Fit       0.002472
 3841 Fit      -0.003329
 3842 Fit       0.003052
 3843 Fit       0.007921
 3844 Fit       0.001742
 3845 Fit       0.007522
 3846 Fit       0.001499
 3847 Fit       0.007446
 3848 Fit      -0.004566
 3849 Fit       0.002456
 3850 Fit       0.007791
 3851 Fit      -0.005590
 3852 Fit       0.001463
 3853 Fit      -0.004375
 3854 Fit       0.002942
 3855 Fit       0.011296
 3856 Fit       0.011211
 3857 Fit       0.011233
 3858 Fit       0.011175
 3859 Fit       0.011473
 3860 Fit       0.011343
 3861 Fit       0.011032
 3862 Fit       0.011361
 3863 Fit       0.010764
 3864 Fit       0.010767
 3865 Fit       0.011402
 3866 Fit       0.011883
 3867 Fit       0.009976
 3868 Fit       0.011027
 3869 Fit       0.009218
 3870 Fit       0.011576
 3871 Fit       0.011649
 3872 Fit       0.011961
 3873 Fit       0.011884
 3874 Fit       0.012162
 3875 Fit       0.012186
 3876 Fit       0.012156
 3877 Fit       0.012470
 3878 Fit       0.012447
 3879 Fit       0.012881
 3880 Fit       0.012895
 3881 Fit       0.013752
 3882 Fit       0.009722
 3883 Fit       0.008407
 3884 Fit       0.007753
 3885 Fit       0.010276
 3886 Fit       0.008904
 3887 Fit       0.007256
 3888 Fit       0.005464
 3889 Fit       0.004288
 3890 Fit       0.010690
 3891 Fit       0.009320
 3892 Fit       0.007667
 3893 Fit       0.005485
 3894 Fit       0.002740
 3895 Fit      -0.000212
 3896 Fit       0.010757
 3897 Fit       0.009082
 3898 Fit       0.007000
 3899 Fit       0.004080
 3900 Fit      -0.000046
 3901 Fit       0.010758
 3902 Fit       0.008572
 3903 Fit       0.005745
 3904 Fit       0.001591
 3905 Fit      -0.004802
 3906 Fit       0.010721
 3907 Fit       0.007640
 3908 Fit       0.003454
 3909 Fit      -0.003062
 3910 Fit       0.009574
 3911 Fit       0.003746
 -----------------------------------------------------------------
 Leave Link  602 at Thu Jan 16 22:40:58 2014, MaxMem=   235929600 cpu:         1.7

 Test job not archived.
 1\1\GINC-G33\SP\RHF\Gen\C10H11Br1N2O3\KOLAR\16-Jan-2014\0\\# hf/gen po
 p=mk iop(6/33=2,6/41=5,6/42=2)\\na resp\\0,1\C,0,4.917462,1.209072,0.0
 629\C,0,3.433799,0.932713,0.058129\C,0,2.543768,2.013093,0.157866\C,0,
 1.159349,1.877811,0.161411\C,0,0.59346,0.597915,0.056713\C,0,1.441464,
 -0.504704,-0.048553\C,0,2.825049,-0.333757,-0.045237\N,0,3.616894,-1.5
 74341,-0.158471\O,0,3.00792,-2.630755,-0.335193\O,0,4.842237,-1.497178
 ,-0.068678\N,0,-0.793614,0.350232,0.047719\C,0,-1.810752,1.251342,0.15
 572\O,0,-1.67834,2.463377,0.272745\C,0,-3.253033,0.722491,0.08024\H,0,
 -3.771396,1.093988,0.964169\C,0,-3.943132,1.189216,-1.198403\Br,0,-3.4
 24142,-1.266931,0.234955\H,0,5.409277,0.813003,-0.830044\H,0,5.08581,2
 .289355,0.107271\H,0,5.414277,0.740505,0.917222\H,0,2.962375,3.012486,
 0.236932\H,0,0.516708,2.743157,0.243793\H,0,1.049997,-1.511344,-0.1360
 42\H,0,-1.071744,-0.623052,-0.01551\H,0,-3.466154,0.756623,-2.082983\H
 ,0,-4.997358,0.901932,-1.194019\H,0,-3.868917,2.280008,-1.254654\\Vers
 ion=AM64L-G09RevD.01\State=1-A\HF=-3288.0541866\RMSD=5.632e-09\Dipole=
 -1.1350877,1.1536657,-0.1405753\Quadrupole=1.2701243,-4.8045957,3.5344
 714,10.9088631,2.4243957,-1.3223423\PG=C01 [X(C10H11Br1N2O3)]\\@


 ABSOLUTISM, OBSOLETISM -- IF IT WORKS, IT'S OUT OF DATE

                          -- STAFFORD BEER
 Job cpu time:       0 days  0 hours  4 minutes 11.2 seconds.
 File lengths (MBytes):  RWF=     38 Int=      0 D2E=      0 Chk=      3 Scr=      1
 Normal termination of Gaussian 09 at Thu Jan 16 22:40:58 2014.
250.83user 0.38system 4:11.70elapsed 99%CPU (0avgtext+0avgdata 603552maxresident)k
8inputs+195048outputs (0major+173126minor)pagefaults 0swaps
