Linux g54 2.6.38.6-client #1 SMP Tue Jun 12 11:27:21 CEST 2012 x86_64 GNU/Linux
Thu Jan 16 22:36:46 CET 2014

 Entering Gaussian System, Link 0=/usr/local/programs/common/gaussian/gaussian09_d01/arch/amd64-pgi_10.4.0-acml/g09/g09
 Initial command:
 /usr/local/programs/common/gaussian/gaussian09_d01/arch/amd64-pgi_10.4.0-acml/g09/l1.exe "/scratch/kolar/g09_25679/Gau-1757.inp" -scrdir="/scratch/kolar/g09_25679/"
 Entering Link 1 = /usr/local/programs/common/gaussian/gaussian09_d01/arch/amd64-pgi_10.4.0-acml/g09/l1.exe PID=      1767.
  
 Copyright (c) 1988,1990,1992,1993,1995,1998,2003,2009,2013,
            Gaussian, Inc.  All Rights Reserved.
  
 This is part of the Gaussian(R) 09 program.  It is based on
 the Gaussian(R) 03 system (copyright 2003, Gaussian, Inc.),
 the Gaussian(R) 98 system (copyright 1998, Gaussian, Inc.),
 the Gaussian(R) 94 system (copyright 1995, Gaussian, Inc.),
 the Gaussian 92(TM) system (copyright 1992, Gaussian, Inc.),
 the Gaussian 90(TM) system (copyright 1990, Gaussian, Inc.),
 the Gaussian 88(TM) system (copyright 1988, Gaussian, Inc.),
 the Gaussian 86(TM) system (copyright 1986, Carnegie Mellon
 University), and the Gaussian 82(TM) system (copyright 1983,
 Carnegie Mellon University). Gaussian is a federally registered
 trademark of Gaussian, Inc.
  
 This software contains proprietary and confidential information,
 including trade secrets, belonging to Gaussian, Inc.
  
 This software is provided under written license and may be
 used, copied, transmitted, or stored only in accord with that
 written license.
  
 The following legend is applicable only to US Government
 contracts under FAR:
  
                    RESTRICTED RIGHTS LEGEND
  
 Use, reproduction and disclosure by the US Government is
 subject to restrictions as set forth in subparagraphs (a)
 and (c) of the Commercial Computer Software - Restricted
 Rights clause in FAR 52.227-19.
  
 Gaussian, Inc.
 340 Quinnipiac St., Bldg. 40, Wallingford CT 06492
  
  
 ---------------------------------------------------------------
 Warning -- This program may not be used in any manner that
 competes with the business of Gaussian, Inc. or will provide
 assistance to any competitor of Gaussian, Inc.  The licensee
 of this program is prohibited from giving any competitor of
 Gaussian, Inc. access to this program.  By using this program,
 the user acknowledges that Gaussian, Inc. is engaged in the
 business of creating and licensing software in the field of
 computational chemistry and represents and warrants to the
 licensee that it is not a competitor of Gaussian, Inc. and that
 it will not use this program in any manner prohibited above.
 ---------------------------------------------------------------
  

 Cite this work as:
 Gaussian 09, Revision D.01,
 M. J. Frisch, G. W. Trucks, H. B. Schlegel, G. E. Scuseria, 
 M. A. Robb, J. R. Cheeseman, G. Scalmani, V. Barone, B. Mennucci, 
 G. A. Petersson, H. Nakatsuji, M. Caricato, X. Li, H. P. Hratchian, 
 A. F. Izmaylov, J. Bloino, G. Zheng, J. L. Sonnenberg, M. Hada, 
 M. Ehara, K. Toyota, R. Fukuda, J. Hasegawa, M. Ishida, T. Nakajima, 
 Y. Honda, O. Kitao, H. Nakai, T. Vreven, J. A. Montgomery, Jr., 
 J. E. Peralta, F. Ogliaro, M. Bearpark, J. J. Heyd, E. Brothers, 
 K. N. Kudin, V. N. Staroverov, T. Keith, R. Kobayashi, J. Normand, 
 K. Raghavachari, A. Rendell, J. C. Burant, S. S. Iyengar, J. Tomasi, 
 M. Cossi, N. Rega, J. M. Millam, M. Klene, J. E. Knox, J. B. Cross, 
 V. Bakken, C. Adamo, J. Jaramillo, R. Gomperts, R. E. Stratmann, 
 O. Yazyev, A. J. Austin, R. Cammi, C. Pomelli, J. W. Ochterski, 
 R. L. Martin, K. Morokuma, V. G. Zakrzewski, G. A. Voth, 
 P. Salvador, J. J. Dannenberg, S. Dapprich, A. D. Daniels, 
 O. Farkas, J. B. Foresman, J. V. Ortiz, J. Cioslowski, 
 and D. J. Fox, Gaussian, Inc., Wallingford CT, 2013.
 
 ******************************************
 Gaussian 09:  AM64L-G09RevD.01 24-Apr-2013
                16-Jan-2014 
 ******************************************
 %mem=1800mb
 -----------------------------------------
 # hf/gen pop=mk iop(6/33=2,6/41=5,6/42=2)
 -----------------------------------------
 1/38=1/1;
 2/12=2,17=6,18=5,40=1/2;
 3/5=7,11=9,16=1,25=1,30=1/1,2,3;
 4//1;
 5/5=2,38=5/2;
 6/7=2,8=2,9=2,10=2,15=8,20=1,28=1,33=2,41=5,42=2/1,2;
 99/5=1,9=1/99;
 -------
 na resp
 -------
 Symbolic Z-matrix:
 Charge =  0 Multiplicity = 1
 7                    -3.13141  -0.28316  -0.00011 
 6                    -1.80892  -0.14418  -0.00001 
 7                    -1.15295  -1.36422  -0.00002 
 6                    -2.13425  -2.32677   0.00015 
 6                    -3.33174  -1.63126   0.00002 
 6                     0.23454  -1.43312  -0.00002 
 6                     0.88856  -0.23627  -0.00001 
 7                     0.3219    0.98537  0. 
 6                    -1.00417   1.04397   0.00001 
 7                    -1.6384    2.23639  -0.00032 
 6                    -0.93739   3.50618   0.00021 
 35                    2.80623  -0.27357  -0.00001 
 1                    -0.30082   3.60559  -0.8861 
 1                    -1.67723   4.30927   0.00197 
 1                    -0.29875   3.60349   0.88524 
 1                    -2.64793   2.20399  -0.00005 
 1                    -4.32846  -2.05269   0.00004 
 1                    -1.90154  -3.38057   0.00031 
 1                     0.70302  -2.40608  -0.00001 
 
                          Input orientation:                          
 ---------------------------------------------------------------------
 Center     Atomic      Atomic             Coordinates (Angstroms)
 Number     Number       Type             X           Y           Z
 ---------------------------------------------------------------------
      1          7           0       -3.131410   -0.283160   -0.000107
      2          6           0       -1.808918   -0.144181   -0.000014
      3          7           0       -1.152951   -1.364222   -0.000019
      4          6           0       -2.134253   -2.326770    0.000151
      5          6           0       -3.331744   -1.631263    0.000023
      6          6           0        0.234541   -1.433121   -0.000020
      7          6           0        0.888558   -0.236267   -0.000012
      8          7           0        0.321898    0.985366   -0.000003
      9          6           0       -1.004166    1.043973    0.000005
     10          7           0       -1.638395    2.236391   -0.000324
     11          6           0       -0.937389    3.506180    0.000211
     12         35           0        2.806227   -0.273570   -0.000008
     13          1           0       -0.300820    3.605588   -0.886102
     14          1           0       -1.677227    4.309273    0.001973
     15          1           0       -0.298748    3.603492    0.885236
     16          1           0       -2.647926    2.203988   -0.000053
     17          1           0       -4.328458   -2.052690    0.000044
     18          1           0       -1.901538   -3.380569    0.000305
     19          1           0        0.703017   -2.406081   -0.000006
 ---------------------------------------------------------------------
                    Distance matrix (angstroms):
                    1          2          3          4          5
     1  N    0.000000
     2  C    1.329775   0.000000
     3  N    2.254550   1.385205   0.000000
     4  C    2.273909   2.206703   1.374573   0.000000
     5  C    1.362907   2.128476   2.195097   1.384816   0.000000
     6  C    3.556970   2.416007   1.389202   2.531757   3.571785
     7  C    4.020241   2.699047   2.332390   3.675267   4.444881
     8  N    3.678926   2.411691   2.774120   4.123460   4.493979
     9  C    2.507279   1.435039   2.412787   3.555138   3.546055
    10  N    2.928691   2.386672   3.633190   4.590023   4.222106
    11  C    4.378679   3.752959   4.875170   5.954476   5.668003
    12  Br   5.937645   4.616958   4.106655   5.350138   6.286336
    13  H    4.890766   4.137666   5.119598   6.272144   6.115254
    14  H    4.817167   4.455401   5.697667   6.651762   6.166636
    15  H    4.890181   4.136343   5.117765   6.270603   6.114354
    16  H    2.533705   2.493558   3.868730   4.559784   3.895736
    17  H    2.136390   3.160773   3.249282   2.211257   1.082146
    18  H    3.332646   3.237713   2.150823   1.079189   2.259549
    19  H    4.382879   3.380238   2.128400   2.838378   4.108484
                    6          7          8          9         10
     6  C    0.000000
     7  C    1.363891   0.000000
     8  N    2.420064   1.346659   0.000000
     9  C    2.769547   2.285042   1.327358   0.000000
    10  N    4.119855   3.535467   2.325470   1.350595   0.000000
    11  C    5.076427   4.164132   2.817855   2.463112   1.450439
    12  Br   2.821015   1.918032   2.785105   4.031751   5.104368
    13  H    5.143962   4.118207   2.835227   2.800313   2.109125
    14  H    6.052268   5.219693   3.878771   3.333946   2.073247
    15  H    5.141551   4.115472   2.832567   2.798640   2.108989
    16  H    4.640817   4.296692   3.210124   2.011860   1.010051
    17  H    4.604870   5.524188   5.554781   4.543153   5.062870
    18  H    2.890569   4.203721   4.899496   4.514626   5.623121
    19  H    1.079871   2.177732   3.412794   3.849331   5.199496
                   11         12         13         14         15
    11  C    0.000000
    12  Br   5.319884   0.000000
    13  H    1.095743   5.048442   0.000000
    14  H    1.091935   6.411226   1.782792   0.000000
    15  H    1.095719   5.045407   1.771340   1.782831   0.000000
    16  H    2.149800   5.990499   2.873756   2.318294   2.874193
    17  H    6.511558   7.353162   7.001659   6.892286   7.001037
    18  H    6.953912   5.640611   7.221801   7.693113   7.220052
    19  H    6.135614   2.995179   6.158979   7.124714   6.156473
                   16         17         18         19
    16  H    0.000000
    17  H    4.576406   0.000000
    18  H    5.634214   2.766442   0.000000
    19  H    5.699259   5.043870   2.780887   0.000000
 Stoichiometry    C7H7BrN4
 Framework group  C1[X(C7H7BrN4)]
 Deg. of freedom    51
 Full point group                 C1      NOp   1
 Largest Abelian subgroup         C1      NOp   1
 Largest concise Abelian subgroup C1      NOp   1
                         Standard orientation:                         
 ---------------------------------------------------------------------
 Center     Atomic      Atomic             Coordinates (Angstroms)
 Number     Number       Type             X           Y           Z
 ---------------------------------------------------------------------
      1          7           0        3.131410   -0.283160    0.000107
      2          6           0        1.808918   -0.144181    0.000014
      3          7           0        1.152951   -1.364222    0.000019
      4          6           0        2.134253   -2.326770   -0.000151
      5          6           0        3.331744   -1.631263   -0.000023
      6          6           0       -0.234541   -1.433121    0.000020
      7          6           0       -0.888558   -0.236267    0.000012
      8          7           0       -0.321898    0.985366    0.000003
      9          6           0        1.004166    1.043973   -0.000005
     10          7           0        1.638395    2.236391    0.000324
     11          6           0        0.937390    3.506180   -0.000211
     12         35           0       -2.806227   -0.273570    0.000008
     13          1           0        0.300821    3.605588    0.886102
     14          1           0        1.677228    4.309273   -0.001973
     15          1           0        0.298749    3.603492   -0.885236
     16          1           0        2.647926    2.203988    0.000053
     17          1           0        4.328458   -2.052690   -0.000044
     18          1           0        1.901538   -3.380569   -0.000305
     19          1           0       -0.703017   -2.406081    0.000006
 ---------------------------------------------------------------------
 Rotational constants (GHZ):      1.0697307      0.4571392      0.3209165
 General basis read from cards:  (5D, 7F)
 There are   209 symmetry adapted cartesian basis functions of A   symmetry.
 There are   196 symmetry adapted basis functions of A   symmetry.
   196 basis functions,   419 primitive gaussians,   209 cartesian basis functions
    56 alpha electrons       56 beta electrons
       nuclear repulsion energy       935.8841601442 Hartrees.
 NAtoms=   19 NActive=   19 NUniq=   19 SFac= 1.00D+00 NAtFMM=   60 NAOKFM=F Big=F
 Integral buffers will be    131072 words long.
 Raffenetti 1 integral format.
 Two-electron integral symmetry is turned on.
 One-electron integrals computed using PRISM.
 NBasis=   196 RedAO= T EigKep=  1.10D-03  NBF=   196
 NBsUse=   196 1.00D-06 EigRej= -1.00D+00 NBFU=   196
 ExpMin= 1.43D-01 ExpMax= 5.74D+05 ExpMxC= 5.74D+03 IAcc=2 IRadAn=         4 AccDes= 0.00D+00
 Harris functional with IExCor=  205 and IRadAn=       4 diagonalized for initial guess.
 HarFok:  IExCor=  205 AccDes= 0.00D+00 IRadAn=         4 IDoV= 1 UseB2=F ITyADJ=14
 ICtDFT=  3500011 ScaDFX=  1.000000  1.000000  1.000000  1.000000
 FoFCou: FMM=F IPFlag=           0 FMFlag=      100000 FMFlg1=           0
         NFxFlg=           0 DoJE=T BraDBF=F KetDBF=T FulRan=T
         wScrn=  0.000000 ICntrl=     500 IOpCl=  0 I1Cent=   200000004 NGrid=           0
         NMat0=    1 NMatS0=      1 NMatT0=    0 NMatD0=    1 NMtDS0=    0 NMtDT0=    0
 Petite list used in FoFCou.
 Keep R1 ints in memory in canonical form, NReq=191153271.
 Requested convergence on RMS density matrix=1.00D-08 within 128 cycles.
 Requested convergence on MAX density matrix=1.00D-06.
 Requested convergence on             energy=1.00D-06.
 No special actions if energy rises.
 SCF Done:  E(RHF) =  -3056.51568940     A.U. after   15 cycles
            NFock= 15  Conv=0.58D-08     -V/T= 1.9991

 **********************************************************************

            Population analysis using the SCF density.

 **********************************************************************

 Orbital symmetries:
 BldTbl:  Degeneracy threshold= 1.00D-02
       Occupied  (A) (A) (A) (A) (A) (A) (A) (A) (A) (A) (A) (A)
                 (A) (A) (A) (A) (A) (A) (A) (A) (A) (A) (A) (A)
                 (A) (A) (A) (A) (A) (A) (A) (A) (A) (A) (A) (A)
                 (A) (A) (A) (A) (A) (A) (A) (A) (A) (A) (A) (A)
                 (A) (A) (A) (A) (A) (A) (A) (A)
       Virtual   (A) (A) (A) (A) (A) (A) (A) (A) (A) (A) (A) (A)
                 (A) (A) (A) (A) (A) (A) (A) (A) (A) (A) (A) (A)
                 (A) (A) (A) (A) (A) (A) (A) (A) (A) (A) (A) (A)
                 (A) (A) (A) (A) (A) (A) (A) (A) (A) (A) (A) (A)
                 (A) (A) (A) (A) (A) (A) (A) (A) (A) (A) (A) (A)
                 (A) (A) (A) (A) (A) (A) (A) (A) (A) (A) (A) (A)
                 (A) (A) (A) (A) (A) (A) (A) (A) (A) (A) (A) (A)
                 (A) (A) (A) (A) (A) (A) (A) (A) (A) (A) (A) (A)
                 (A) (A) (A) (A) (A) (A) (A) (A) (A) (A) (A) (A)
                 (A) (A) (A) (A) (A) (A) (A) (A) (A) (A) (A) (A)
                 (A) (A) (A) (A) (A) (A) (A) (A) (A) (A) (A) (A)
                 (A) (A) (A) (A) (A) (A) (A) (A)
 The electronic state is 1-A.
 Alpha  occ. eigenvalues -- -489.84082 -64.38489 -58.55162 -58.54988 -58.54983
 Alpha  occ. eigenvalues --  -15.67008 -15.59396 -15.57046 -15.56952 -11.35135
 Alpha  occ. eigenvalues --  -11.33744 -11.31453 -11.28938 -11.27801 -11.26798
 Alpha  occ. eigenvalues --  -11.26376  -9.66268  -7.47847  -7.46943  -7.46938
 Alpha  occ. eigenvalues --   -3.22165  -3.21736  -3.21726  -3.20686  -3.20685
 Alpha  occ. eigenvalues --   -1.38347  -1.30013  -1.24148  -1.19683  -1.06576
 Alpha  occ. eigenvalues --   -1.04821  -0.98088  -0.95356  -0.86630  -0.85564
 Alpha  occ. eigenvalues --   -0.82408  -0.77303  -0.71186  -0.67833  -0.66549
 Alpha  occ. eigenvalues --   -0.65547  -0.62840  -0.61327  -0.60301  -0.59473
 Alpha  occ. eigenvalues --   -0.55848  -0.53460  -0.53373  -0.49105  -0.46013
 Alpha  occ. eigenvalues --   -0.43569  -0.43126  -0.41108  -0.38951  -0.33113
 Alpha  occ. eigenvalues --   -0.29306
 Alpha virt. eigenvalues --    0.10212   0.13740   0.17038   0.22073   0.23410
 Alpha virt. eigenvalues --    0.25650   0.27079   0.28046   0.29878   0.31727
 Alpha virt. eigenvalues --    0.31839   0.33464   0.35445   0.37137   0.38643
 Alpha virt. eigenvalues --    0.41582   0.44183   0.47546   0.51967   0.53910
 Alpha virt. eigenvalues --    0.56458   0.58230   0.63223   0.65013   0.65379
 Alpha virt. eigenvalues --    0.65827   0.66396   0.67149   0.68128   0.69053
 Alpha virt. eigenvalues --    0.69303   0.71556   0.72995   0.73242   0.75290
 Alpha virt. eigenvalues --    0.75878   0.77521   0.77968   0.80208   0.81501
 Alpha virt. eigenvalues --    0.82893   0.86771   0.87929   0.88743   0.91607
 Alpha virt. eigenvalues --    0.93199   0.95070   0.95318   0.96117   0.99373
 Alpha virt. eigenvalues --    1.04014   1.05214   1.05493   1.07030   1.08041
 Alpha virt. eigenvalues --    1.08609   1.08803   1.11826   1.12112   1.13767
 Alpha virt. eigenvalues --    1.13904   1.15170   1.17987   1.18810   1.21241
 Alpha virt. eigenvalues --    1.22064   1.24239   1.25660   1.27934   1.29774
 Alpha virt. eigenvalues --    1.38994   1.40117   1.41098   1.43822   1.44594
 Alpha virt. eigenvalues --    1.54612   1.55596   1.57253   1.60941   1.63083
 Alpha virt. eigenvalues --    1.63331   1.64500   1.67945   1.69021   1.71530
 Alpha virt. eigenvalues --    1.74992   1.78493   1.78661   1.82965   1.86905
 Alpha virt. eigenvalues --    1.91115   1.96295   2.01899   2.07520   2.11606
 Alpha virt. eigenvalues --    2.12418   2.15769   2.17770   2.24257   2.24681
 Alpha virt. eigenvalues --    2.25733   2.28053   2.32886   2.34638   2.38275
 Alpha virt. eigenvalues --    2.39842   2.42707   2.43570   2.45845   2.50298
 Alpha virt. eigenvalues --    2.50411   2.53983   2.55239   2.57003   2.57462
 Alpha virt. eigenvalues --    2.60264   2.62434   2.72620   2.73163   2.76146
 Alpha virt. eigenvalues --    2.77645   2.83979   2.85835   2.91798   2.95533
 Alpha virt. eigenvalues --    2.96279   2.97696   3.02140   3.04661   3.08735
 Alpha virt. eigenvalues --    3.10619   3.15979   3.19567   3.29517   3.35387
 Alpha virt. eigenvalues --    3.38021   3.46665   3.68542   3.83446   9.16897
          Condensed to atoms (all electrons):
               1          2          3          4          5          6
     1  N    6.848754   0.522421  -0.121145  -0.077379   0.467379   0.005419
     2  C    0.522421   4.568633   0.336133  -0.101825  -0.128503  -0.030061
     3  N   -0.121145   0.336133   7.101037   0.357425  -0.068865   0.227994
     4  C   -0.077379  -0.101825   0.357425   4.893537   0.626509  -0.032529
     5  C    0.467379  -0.128503  -0.068865   0.626509   4.760643   0.002443
     6  C    0.005419  -0.030061   0.227994  -0.032529   0.002443   4.964962
     7  C   -0.000110  -0.016847  -0.038230   0.001219  -0.000200   0.604444
     8  N    0.003298  -0.062941  -0.019416   0.000305  -0.000391  -0.072204
     9  C   -0.043099   0.447258  -0.032987   0.003205   0.002087  -0.019518
    10  N   -0.002911  -0.092013   0.003020  -0.000096   0.000106  -0.000006
    11  C   -0.000019   0.003266  -0.000061   0.000002   0.000003   0.000034
    12  Br   0.000005   0.000176   0.002676  -0.000069   0.000000  -0.084207
    13  H   -0.000005   0.000029   0.000002   0.000000   0.000000  -0.000003
    14  H   -0.000005   0.000006   0.000000   0.000000   0.000000   0.000000
    15  H   -0.000005   0.000032   0.000002   0.000000   0.000000  -0.000003
    16  H    0.009958  -0.004214   0.000333   0.000030  -0.000005  -0.000022
    17  H   -0.030709   0.005036   0.002135  -0.034875   0.392843  -0.000039
    18  H    0.002909   0.003655  -0.034669   0.379042  -0.016450   0.000766
    19  H   -0.000092   0.001319  -0.035171  -0.000483  -0.000067   0.383520
               7          8          9         10         11         12
     1  N   -0.000110   0.003298  -0.043099  -0.002911  -0.000019   0.000005
     2  C   -0.016847  -0.062941   0.447258  -0.092013   0.003266   0.000176
     3  N   -0.038230  -0.019416  -0.032987   0.003020  -0.000061   0.002676
     4  C    0.001219   0.000305   0.003205  -0.000096   0.000002  -0.000069
     5  C   -0.000200  -0.000391   0.002087   0.000106   0.000003   0.000000
     6  C    0.604444  -0.072204  -0.019518  -0.000006   0.000034  -0.084207
     7  C    4.563726   0.407388  -0.056629   0.003341  -0.000396   0.314995
     8  N    0.407388   6.996776   0.547218  -0.085284  -0.002506  -0.068172
     9  C   -0.056629   0.547218   4.240069   0.319824  -0.036882   0.002180
    10  N    0.003341  -0.085284   0.319824   7.283648   0.209067  -0.000034
    11  C   -0.000396  -0.002506  -0.036882   0.209067   4.914496  -0.000041
    12  Br   0.314995  -0.068172   0.002180  -0.000034  -0.000041  34.954958
    13  H   -0.000147   0.002144  -0.002060  -0.045360   0.401495   0.000008
    14  H    0.000011   0.000385   0.003865  -0.034624   0.394080   0.000000
    15  H   -0.000148   0.002151  -0.002057  -0.045338   0.401498   0.000008
    16  H   -0.000107   0.002029  -0.031160   0.331933  -0.019357   0.000003
    17  H    0.000002   0.000001  -0.000023  -0.000001   0.000000   0.000000
    18  H   -0.000031   0.000006  -0.000065   0.000000   0.000000   0.000001
    19  H   -0.019900   0.002365   0.000115   0.000009   0.000000   0.000259
              13         14         15         16         17         18
     1  N   -0.000005  -0.000005  -0.000005   0.009958  -0.030709   0.002909
     2  C    0.000029   0.000006   0.000032  -0.004214   0.005036   0.003655
     3  N    0.000002   0.000000   0.000002   0.000333   0.002135  -0.034669
     4  C    0.000000   0.000000   0.000000   0.000030  -0.034875   0.379042
     5  C    0.000000   0.000000   0.000000  -0.000005   0.392843  -0.016450
     6  C   -0.000003   0.000000  -0.000003  -0.000022  -0.000039   0.000766
     7  C   -0.000147   0.000011  -0.000148  -0.000107   0.000002  -0.000031
     8  N    0.002144   0.000385   0.002151   0.002029   0.000001   0.000006
     9  C   -0.002060   0.003865  -0.002057  -0.031160  -0.000023  -0.000065
    10  N   -0.045360  -0.034624  -0.045338   0.331933  -0.000001   0.000000
    11  C    0.401495   0.394080   0.401498  -0.019357   0.000000   0.000000
    12  Br   0.000008   0.000000   0.000008   0.000003   0.000000   0.000001
    13  H    0.510243  -0.026890  -0.036290   0.001635   0.000000   0.000000
    14  H   -0.026890   0.517189  -0.026844  -0.004557   0.000000   0.000000
    15  H   -0.036290  -0.026844   0.510060   0.001636   0.000000   0.000000
    16  H    0.001635  -0.004557   0.001636   0.284063  -0.000010   0.000000
    17  H    0.000000   0.000000   0.000000  -0.000010   0.444472   0.001095
    18  H    0.000000   0.000000   0.000000   0.000000   0.001095   0.423261
    19  H    0.000000   0.000000   0.000000   0.000000  -0.000001   0.000985
              19
     1  N   -0.000092
     2  C    0.001319
     3  N   -0.035171
     4  C   -0.000483
     5  C   -0.000067
     6  C    0.383520
     7  C   -0.019900
     8  N    0.002365
     9  C    0.000115
    10  N    0.000009
    11  C    0.000000
    12  Br   0.000259
    13  H    0.000000
    14  H    0.000000
    15  H    0.000000
    16  H    0.000000
    17  H   -0.000001
    18  H    0.000985
    19  H    0.413843
 Mulliken charges:
               1
     1  N   -0.584663
     2  C    0.548437
     3  N   -0.680213
     4  C   -0.014018
     5  C   -0.037533
     6  C    0.049008
     7  C    0.237620
     8  N   -0.653153
     9  C    0.658659
    10  N   -0.845282
    11  C   -0.264679
    12  Br  -0.122744
    13  H    0.195197
    14  H    0.177384
    15  H    0.195298
    16  H    0.427812
    17  H    0.220074
    18  H    0.239495
    19  H    0.253298
 Sum of Mulliken charges =   0.00000
 Mulliken charges with hydrogens summed into heavy atoms:
               1
     1  N   -0.584663
     2  C    0.548437
     3  N   -0.680213
     4  C    0.225477
     5  C    0.182541
     6  C    0.302307
     7  C    0.237620
     8  N   -0.653153
     9  C    0.658659
    10  N   -0.417469
    11  C    0.303200
    12  Br  -0.122744
 DipInt: DoE/N= T F RetVal/Mat= T F Init=T NMatP=  1 IDeriv=0 Min/MaxMlt=  0  4
 Entering OneElI...
 OneElI was handed   235815223 working-precision words.
 Multipole integrals L=0 to 4 MinM= 0 MaxM= 0.
 Requested accuracy = 0.1000D-12
 ShPair: Thresh= 1.00D-13 NBox=     0 BxSize= 0.00D+00 RnKept= 1.45D+01
         NSMCal=                 2485 NSMKep=                2191
 PrsmSu:  NPrtUS=   1 ThrOK=F IAlg=1 NPAlg=1 LenDen=           0.
 Prism:   IPart=     0 DynPar=F LinDyn=F Incr=          21.
 PRISM was handed   235607253 working-precision words and  2191 shell-pairs
 IPart=  0 NShTot=        2191 NBatch=         117 AvBLen=        18.7
 PrSmSu:  NxtVal=             22.
 Electronic moments (au):
       -112.00000000          0.74274270         -0.40230705         -0.00072067
      -1977.25802724      -1013.75131080        -69.07658278          0.89876527
         -0.00240247         -0.00240223        441.87407777      -2262.29235363
         -0.01213846      -2340.16901511       1610.13354196         -0.03514216
        -48.83754507        -34.63359656          0.14352936         -0.04281869
     -60160.36349436     -31746.18557880       -265.07622496       5069.45922376
         -0.04118362      -2446.03283504          0.56745825         -0.02607263
         -0.10207638     -10905.96990625      -1086.93927550       -941.27276694
         -0.11391250          0.48375357         15.78585467
 Electronic spatial extent (au):  <R**2>=           3060.0859
 DipInt: DoE/N= F T RetVal/Mat= T F Init=T NMatP=  1 IDeriv=0 Min/MaxMlt=  0  4
 Nuclear    moments (au):
        112.00000000          0.00000000          0.00000000          0.00000000
       1913.69321159        965.58007615          5.60237494          0.00000000
          0.00008196         -0.00005681       -565.47303569       2264.64344156
          0.01375519       2345.49020745      -1621.63894560          0.02346066
          3.17386432         38.16111163         -0.16386559          0.03545154
      54458.69550695      28714.44575323         15.69321302      -5110.70038945
         -0.01316799       2576.73062085         -0.64028870          0.02614925
          0.11226425       9536.87159817          1.79821379        259.93825741
          0.07022480         -0.56549587         21.61908771
 Total      moments (au):
          0.00000000          0.74274270         -0.40230705         -0.00072067
        -63.56481564        -48.17123465        -63.47420784          0.89876527
         -0.00232051         -0.00245903       -123.59895792          2.35108793
          0.00161673          5.32119234        -11.50540363         -0.01168150
        -45.66368075          3.52751507         -0.02033624         -0.00736715
      -5701.66798742      -3031.73982557       -249.38301194        -41.24116569
         -0.05435161        130.69778581         -0.07283045          0.00007663
          0.01018787      -1369.09830808      -1085.14106171       -681.33450953
         -0.04368770         -0.08174230         37.40494238
 Traceless Quadrup. (au):
         -5.16139626         10.23218473         -5.07078846          0.89876527
         -0.00232051         -0.00245903
 Charge=              0.0000 electrons
 Dipole moment (field-independent basis, Debye):
    X=              1.8879    Y=             -1.0226    Z=             -0.0018  Tot=              2.1470
 Quadrupole moment (field-independent basis, Debye-Ang):
   XX=            -85.4968   YY=            -64.7920   ZZ=            -85.3750
   XY=              1.2089   XZ=             -0.0031   YZ=             -0.0033
 Traceless Quadrupole moment (field-independent basis, Debye-Ang):
   XX=             -6.9423   YY=             13.7626   ZZ=             -6.8204
   XY=              1.2089   XZ=             -0.0031   YZ=             -0.0033
 Octapole moment (field-independent basis, Debye-Ang**2):
  XXX=            -87.9730  YYY=              1.6734  ZZZ=              0.0012  XYY=              3.7874
  XXY=             -8.1891  XXZ=             -0.0083  XZZ=            -32.5016  YZZ=              2.5107
  YYZ=             -0.0145  XYZ=             -0.0052
 Hexadecapole moment (field-independent basis, Debye-Ang**3):
 XXXX=          -2147.5214 YYYY=          -1141.8985 ZZZZ=            -93.9296 XXXY=            -15.5334
 XXXZ=             -0.0205 YYYX=             49.2271 YYYZ=             -0.0274 ZZZX=              0.0000
 ZZZY=              0.0038 XXYY=           -515.6680 XXZZ=           -408.7161 YYZZ=           -256.6232
 XXYZ=             -0.0165 YYXZ=             -0.0308 ZZXY=             14.0885
 N-N= 9.358841601442D+02 E-N=-9.160042603767D+03  KE= 3.059329113693D+03
 Entering OneElI...
 OneElI was handed   235841762 working-precision words.
 Calculate electrostatic properties
    NBasis =   196  MinDer = 0  MaxDer = 0
    NGrid  =    19  NMatD  =   1
 Requested accuracy = 0.1000D-12
 ShPair: Thresh= 1.00D-13 NBox=     0 BxSize= 0.00D+00 RnKept= 1.45D+01
         NSMCal=                 2485 NSMKep=                1984
 PrsmSu:  NPrtUS=   1 ThrOK=F IAlg=1 NPAlg=1 LenDen=           0.
 Prism:   IPart=     0 DynPar=F LinDyn=F Incr=         376.
 PRISM was handed   235652496 working-precision words and  1984 shell-pairs
 IPart=  0 NShTot=       37696 NBatch=        1986 AvBLen=        19.0
 PrSmSu:  NxtVal=            377.
 --------------------------------------------------------
       Center         ----      EFG at Nuclei      ----
                      3XX-RR        3YY-RR        3ZZ-RR
 --------------------------------------------------------
     1   Atom        0.165153      0.275523     -0.440676
     2   Atom        0.108247     -0.037225     -0.071022
     3   Atom       -0.173640     -0.122672      0.296312
     4   Atom       -0.004833      0.032097     -0.027264
     5   Atom        0.202106      0.026770     -0.228876
     6   Atom       -0.216266      0.199445      0.016821
     7   Atom       -0.195637      0.290421     -0.094784
     8   Atom       -0.158681      0.390512     -0.231831
     9   Atom        0.248569      0.177870     -0.426439
    10   Atom       -0.452726     -0.594221      1.046947
    11   Atom        0.063468     -0.225810      0.162342
    12   Atom       -6.937353      3.538252      3.399100
    13   Atom        0.005328      0.132639     -0.137968
    14   Atom       -0.061472     -0.100303      0.161775
    15   Atom        0.004368      0.132778     -0.137146
    16   Atom       -0.391105      0.152044      0.239061
    17   Atom       -0.243239      0.074419      0.168821
    18   Atom        0.119844     -0.299647      0.179803
    19   Atom        0.050596     -0.231030      0.180434
 --------------------------------------------------------
                        XY            XZ            YZ
 --------------------------------------------------------
     1   Atom        0.647255      0.000014      0.000070
     2   Atom       -0.163176     -0.000004      0.000042
     3   Atom        0.000713      0.000070     -0.000021
     4   Atom        0.224055      0.000060     -0.000021
     5   Atom       -0.004160      0.000004      0.000000
     6   Atom       -0.012253      0.000001     -0.000005
     7   Atom       -0.033744     -0.000002      0.000005
     8   Atom       -0.678032      0.000053      0.000128
     9   Atom       -0.033496      0.000005      0.000002
    10   Atom       -0.027414     -0.000110     -0.000041
    11   Atom        0.175663     -0.000008      0.000260
    12   Atom       -0.115066     -0.000048      0.000005
    13   Atom        0.031578      0.206328     -0.029595
    14   Atom       -0.214496      0.000497      0.000544
    15   Atom        0.031193     -0.206743      0.028896
    16   Atom        0.005034      0.000167     -0.000001
    17   Atom        0.167201      0.000007     -0.000008
    18   Atom       -0.096321     -0.000012     -0.000069
    19   Atom       -0.175100     -0.000002     -0.000006
 --------------------------------------------------------


 ---------------------------------------------------------------------------------
              Nuclear Quadrupole Coupling Constant in Principal Axis System
 ---------------------------------------------------------------------------------

       Atom             a.u.   MegaHertz   Gauss  10(-4) cm-1        Axes

              Baa    -0.4407     2.116     0.755     0.706  0.0023 -0.0022  1.0000
     1 N(14)  Bbb    -0.4293     2.062     0.736     0.688  0.7365 -0.6764 -0.0032
              Bcc     0.8699    -4.178    -1.491    -1.394  0.6764  0.7365  0.0000
 
              Baa    -0.1736     0.834     0.298     0.278  0.9999 -0.0140 -0.0001
     3 N(14)  Bbb    -0.1227     0.589     0.210     0.197  0.0140  0.9999  0.0000
              Bcc     0.2963    -1.423    -0.508    -0.475  0.0001 -0.0001  1.0000
 
              Baa    -0.6156     2.957     1.055     0.986  0.8293  0.5588 -0.0003
     8 N(14)  Bbb    -0.2318     1.113     0.397     0.371  0.0003  0.0001  1.0000
              Bcc     0.8474    -4.070    -1.452    -1.358 -0.5588  0.8293  0.0001
 
              Baa    -0.5993     2.878     1.027     0.960  0.1838  0.9830  0.0000
    10 N(14)  Bbb    -0.4476     2.150     0.767     0.717  0.9830 -0.1838  0.0001
              Bcc     1.0469    -5.028    -1.794    -1.677 -0.0001  0.0000  1.0000
 
              Baa    -6.9386   510.293   182.085   170.216  0.9999  0.0110  0.0000
    12 Br(79) Bbb     3.3991  -249.983   -89.200   -83.385  0.0000  0.0000  1.0000
              Bcc     3.5395  -260.310   -92.885   -86.830 -0.0110  0.9999  0.0000
 

 ---------------------------------------------------------------------------------

 No NMR shielding tensors so no spin-rotation constants.
 Leave Link  601 at Thu Jan 16 22:37:20 2014, MaxMem=   235929600 cpu:         0.3
 FitSet:  NAtFit=    19 NAtPot=    19 NAtFrz=     0 MDM=    23 TotChg=   0.00000
 Merz-Kollman atomic radii used.
 Atom Element Radius
    1     7    1.50
    2     6    1.50
    3     7    1.50
    4     6    1.50
    5     6    1.50
    6     6    1.50
    7     6    1.50
    8     7    1.50
    9     6    1.50
   10     7    1.50
   11     6    1.50
   12    35    2.30
   13     1    1.20
   14     1    1.20
   15     1    1.20
   16     1    1.20
   17     1    1.20
   18     1    1.20
   19     1    1.20
 Generate VDW surfaces: Layer= 5 Dens= 2 Start= 1.400 Inc= 0.179

 **********************************************************************

            Electrostatic Properties Using The SCF Density

 **********************************************************************

       Atomic Center    1 is at   3.131410 -0.283160  0.000107
       Atomic Center    2 is at   1.808918 -0.144181  0.000014
       Atomic Center    3 is at   1.152951 -1.364222  0.000019
       Atomic Center    4 is at   2.134253 -2.326770 -0.000151
       Atomic Center    5 is at   3.331744 -1.631263 -0.000023
       Atomic Center    6 is at  -0.234541 -1.433121  0.000020
       Atomic Center    7 is at  -0.888558 -0.236267  0.000012
       Atomic Center    8 is at  -0.321898  0.985366  0.000003
       Atomic Center    9 is at   1.004166  1.043973 -0.000005
       Atomic Center   10 is at   1.638395  2.236391  0.000324
       Atomic Center   11 is at   0.937390  3.506180 -0.000211
       Atomic Center   12 is at  -2.806227 -0.273570  0.000008
       Atomic Center   13 is at   0.300821  3.605588  0.886102
       Atomic Center   14 is at   1.677228  4.309273 -0.001973
       Atomic Center   15 is at   0.298749  3.603492 -0.885236
       Atomic Center   16 is at   2.647926  2.203988  0.000053
       Atomic Center   17 is at   4.328458 -2.052690 -0.000044
       Atomic Center   18 is at   1.901538 -3.380569 -0.000305
       Atomic Center   19 is at  -0.703017 -2.406081  0.000006
      ESP Fit Center   20 is at   3.131410 -0.283160  2.100107
      ESP Fit Center   21 is at   3.849652 -0.283160  1.973462
      ESP Fit Center   22 is at   3.490531  0.338856  1.973462
      ESP Fit Center   23 is at   2.772289  0.338856  1.973462
      ESP Fit Center   24 is at   2.772289 -0.905176  1.973462
      ESP Fit Center   25 is at   3.490531 -0.905176  1.973462
      ESP Fit Center   26 is at   4.481264 -0.283160  1.608800
      ESP Fit Center   27 is at   4.266980  0.446626  1.608800
      ESP Fit Center   28 is at   3.692160  0.944710  1.608800
      ESP Fit Center   29 is at   2.939306  1.052954  1.608800
      ESP Fit Center   30 is at   4.950063 -0.283160  1.050107
      ESP Fit Center   31 is at   4.792833  0.456553  1.050107
      ESP Fit Center   32 is at   4.348327  1.068363  1.050107
      ESP Fit Center   33 is at   5.199506 -0.283160  0.364768
      ESP Fit Center   34 is at   5.059852  0.463922  0.364768
      ESP Fit Center   35 is at   4.659752  1.110107  0.364768
      ESP Fit Center   36 is at   5.199506 -0.283160 -0.364554
      ESP Fit Center   37 is at   5.059852  0.463922 -0.364554
      ESP Fit Center   38 is at   4.659752  1.110107 -0.364554
      ESP Fit Center   39 is at   4.950063 -0.283160 -1.049893
      ESP Fit Center   40 is at   4.792833  0.456553 -1.049893
      ESP Fit Center   41 is at   4.348327  1.068363 -1.049893
      ESP Fit Center   42 is at   4.481264 -0.283160 -1.608586
      ESP Fit Center   43 is at   4.266980  0.446626 -1.608586
      ESP Fit Center   44 is at   3.692160  0.944710 -1.608586
      ESP Fit Center   45 is at   2.939306  1.052954 -1.608586
      ESP Fit Center   46 is at   3.849652 -0.283160 -1.973247
      ESP Fit Center   47 is at   3.490531  0.338856 -1.973247
      ESP Fit Center   48 is at   2.772289  0.338856 -1.973247
      ESP Fit Center   49 is at   2.772289 -0.905176 -1.973247
      ESP Fit Center   50 is at   3.490531 -0.905176 -1.973247
      ESP Fit Center   51 is at   3.131410 -0.283160 -2.099893
      ESP Fit Center   52 is at   1.808918 -0.144181  2.100014
      ESP Fit Center   53 is at   2.168039  0.477835  1.973369
      ESP Fit Center   54 is at   1.449797  0.477835  1.973369
      ESP Fit Center   55 is at   1.090676 -0.144181  1.973369
      ESP Fit Center   56 is at   2.168039 -0.766197  1.973369
      ESP Fit Center   57 is at   2.369668  1.083689  1.608707
      ESP Fit Center   58 is at   2.369668  1.083689 -1.608679
      ESP Fit Center   59 is at   2.168039  0.477835 -1.973340
      ESP Fit Center   60 is at   1.449797  0.477835 -1.973340
      ESP Fit Center   61 is at   1.090676 -0.144181 -1.973340
      ESP Fit Center   62 is at   2.168039 -0.766197 -1.973340
      ESP Fit Center   63 is at   1.808918 -0.144181 -2.099986
      ESP Fit Center   64 is at   1.152951 -1.364222  2.100019
      ESP Fit Center   65 is at   1.871193 -1.364222  1.973374
      ESP Fit Center   66 is at   0.793830 -0.742206  1.973374
      ESP Fit Center   67 is at   0.793830 -1.986238  1.973374
      ESP Fit Center   68 is at   1.871193 -1.364222 -1.973335
      ESP Fit Center   69 is at   0.793830 -0.742206 -1.973335
      ESP Fit Center   70 is at   0.793830 -1.986238 -1.973335
      ESP Fit Center   71 is at   1.152951 -1.364222 -2.099981
      ESP Fit Center   72 is at   2.134253 -2.326770  2.099849
      ESP Fit Center   73 is at   2.852495 -2.326770  1.973204
      ESP Fit Center   74 is at   2.493374 -1.704754  1.973204
      ESP Fit Center   75 is at   1.416011 -2.326770  1.973204
      ESP Fit Center   76 is at   1.775132 -2.948786  1.973204
      ESP Fit Center   77 is at   2.493374 -2.948786  1.973204
      ESP Fit Center   78 is at   0.839077 -2.707068  1.608542
      ESP Fit Center   79 is at   1.250286 -3.346922  1.608542
      ESP Fit Center   80 is at   2.695002 -3.554640  1.608542
      ESP Fit Center   81 is at   3.269822 -3.056556  1.608542
      ESP Fit Center   82 is at   3.351169 -3.678293  1.049849
      ESP Fit Center   83 is at   3.662594 -3.720038  0.364510
      ESP Fit Center   84 is at   3.662594 -3.720038 -0.364812
      ESP Fit Center   85 is at   3.351169 -3.678293 -1.050151
      ESP Fit Center   86 is at   0.839077 -2.707068 -1.608844
      ESP Fit Center   87 is at   1.250286 -3.346922 -1.608844
      ESP Fit Center   88 is at   2.695002 -3.554640 -1.608844
      ESP Fit Center   89 is at   3.269822 -3.056556 -1.608844
      ESP Fit Center   90 is at   2.852495 -2.326770 -1.973505
      ESP Fit Center   91 is at   2.493374 -1.704754 -1.973505
      ESP Fit Center   92 is at   1.416011 -2.326770 -1.973505
      ESP Fit Center   93 is at   1.775132 -2.948786 -1.973505
      ESP Fit Center   94 is at   2.493374 -2.948786 -1.973505
      ESP Fit Center   95 is at   2.134253 -2.326770 -2.100151
      ESP Fit Center   96 is at   3.331744 -1.631263  2.099977
      ESP Fit Center   97 is at   4.049986 -1.631263  1.973332
      ESP Fit Center   98 is at   3.690865 -1.009247  1.973332
      ESP Fit Center   99 is at   2.972623 -1.009247  1.973332
      ESP Fit Center  100 is at   2.613502 -1.631263  1.973332
      ESP Fit Center  101 is at   2.972623 -2.253279  1.973332
      ESP Fit Center  102 is at   3.690865 -2.253279  1.973332
      ESP Fit Center  103 is at   4.681598 -1.631263  1.608670
      ESP Fit Center  104 is at   4.467313 -0.901477  1.608670
      ESP Fit Center  105 is at   3.892494 -2.859134  1.608670
      ESP Fit Center  106 is at   4.993166 -0.891550  1.049977
      ESP Fit Center  107 is at   3.893739 -3.360905  1.049977
      ESP Fit Center  108 is at   4.993166 -0.891550 -1.050023
      ESP Fit Center  109 is at   3.893739 -3.360905 -1.050023
      ESP Fit Center  110 is at   4.681598 -1.631263 -1.608716
      ESP Fit Center  111 is at   4.467313 -0.901477 -1.608716
      ESP Fit Center  112 is at   3.892494 -2.859134 -1.608716
      ESP Fit Center  113 is at   4.049986 -1.631263 -1.973377
      ESP Fit Center  114 is at   3.690865 -1.009247 -1.973377
      ESP Fit Center  115 is at   2.972623 -1.009247 -1.973377
      ESP Fit Center  116 is at   2.613502 -1.631263 -1.973377
      ESP Fit Center  117 is at   2.972623 -2.253279 -1.973377
      ESP Fit Center  118 is at   3.690865 -2.253279 -1.973377
      ESP Fit Center  119 is at   3.331744 -1.631263 -2.100023
      ESP Fit Center  120 is at  -0.234541 -1.433121  2.100020
      ESP Fit Center  121 is at   0.124580 -0.811105  1.973375
      ESP Fit Center  122 is at  -0.593662 -2.055137  1.973375
      ESP Fit Center  123 is at   0.124580 -2.055137  1.973375
      ESP Fit Center  124 is at   0.326209 -2.660991  1.608713
      ESP Fit Center  125 is at   0.326209 -2.660991 -1.608673
      ESP Fit Center  126 is at   0.124580 -0.811105 -1.973334
      ESP Fit Center  127 is at  -0.593662 -2.055137 -1.973334
      ESP Fit Center  128 is at   0.124580 -2.055137 -1.973334
      ESP Fit Center  129 is at  -0.234541 -1.433121 -2.099980
      ESP Fit Center  130 is at  -0.170316 -0.236267  1.973367
      ESP Fit Center  131 is at  -0.170316 -0.236267 -1.973342
      ESP Fit Center  132 is at  -0.321898  0.985366  2.100003
      ESP Fit Center  133 is at   0.037223  1.607382  1.973358
      ESP Fit Center  134 is at  -0.681019  1.607382  1.973358
      ESP Fit Center  135 is at   0.037223  0.363350  1.973358
      ESP Fit Center  136 is at  -0.514002  2.321481  1.608696
      ESP Fit Center  137 is at  -1.231224  2.560366  1.050003
      ESP Fit Center  138 is at  -1.231224  2.560366 -1.049997
      ESP Fit Center  139 is at  -0.514002  2.321481 -1.608690
      ESP Fit Center  140 is at   0.037223  1.607382 -1.973351
      ESP Fit Center  141 is at  -0.681019  1.607382 -1.973351
      ESP Fit Center  142 is at   0.037223  0.363350 -1.973351
      ESP Fit Center  143 is at  -0.321898  0.985366 -2.099997
      ESP Fit Center  144 is at   1.004166  1.043973  2.099995
      ESP Fit Center  145 is at   1.722409  1.043973  1.973350
      ESP Fit Center  146 is at   0.645045  1.665989  1.973350
      ESP Fit Center  147 is at   0.645045  0.421957  1.973350
      ESP Fit Center  148 is at   1.363287  0.421957  1.973350
      ESP Fit Center  149 is at   1.722409  1.043973 -1.973359
      ESP Fit Center  150 is at   0.645045  1.665989 -1.973359
      ESP Fit Center  151 is at   0.645045  0.421957 -1.973359
      ESP Fit Center  152 is at   1.363287  0.421957 -1.973359
      ESP Fit Center  153 is at   1.004166  1.043973 -2.100005
      ESP Fit Center  154 is at   1.638395  2.236391  2.100324
      ESP Fit Center  155 is at   2.356638  2.236391  1.973679
      ESP Fit Center  156 is at   1.997517  2.858407  1.973679
      ESP Fit Center  157 is at   0.920153  2.236391  1.973679
      ESP Fit Center  158 is at   1.997517  1.614375  1.973679
      ESP Fit Center  159 is at   2.773965  2.966177  1.609017
      ESP Fit Center  160 is at   2.773965  1.506605  1.609017
      ESP Fit Center  161 is at   2.855312  3.587914  1.050324
      ESP Fit Center  162 is at   2.855312  3.587914 -1.049676
      ESP Fit Center  163 is at   2.773965  2.966177 -1.608369
      ESP Fit Center  164 is at   2.773965  1.506605 -1.608369
      ESP Fit Center  165 is at   2.356638  2.236391 -1.973030
      ESP Fit Center  166 is at   1.997517  2.858407 -1.973030
      ESP Fit Center  167 is at   0.920153  2.236391 -1.973030
      ESP Fit Center  168 is at   1.997517  1.614375 -1.973030
      ESP Fit Center  169 is at   1.638395  2.236391 -2.099676
      ESP Fit Center  170 is at   1.655632  3.506180  1.973144
      ESP Fit Center  171 is at   2.287244  3.506180  1.608482
      ESP Fit Center  172 is at   0.747288  5.314871  1.049789
      ESP Fit Center  173 is at   0.371428  5.495328  0.364450
      ESP Fit Center  174 is at  -0.308917  5.156557  0.364450
      ESP Fit Center  175 is at   0.371428  5.495328 -0.364872
      ESP Fit Center  176 is at  -0.308917  5.156557 -0.364872
      ESP Fit Center  177 is at   0.747288  5.314871 -1.050211
      ESP Fit Center  178 is at   2.287244  3.506180 -1.608904
      ESP Fit Center  179 is at   1.655632  3.506180 -1.973565
      ESP Fit Center  180 is at  -2.806227 -0.273570  3.220008
      ESP Fit Center  181 is at  -2.089710 -0.273570  3.139276
      ESP Fit Center  182 is at  -2.447968  0.346953  3.139276
      ESP Fit Center  183 is at  -3.164486  0.346953  3.139276
      ESP Fit Center  184 is at  -3.522744 -0.273570  3.139276
      ESP Fit Center  185 is at  -3.164486 -0.894092  3.139276
      ESP Fit Center  186 is at  -2.447968 -0.894092  3.139276
      ESP Fit Center  187 is at  -1.409121 -0.273570  2.901128
      ESP Fit Center  188 is at  -1.596298  0.424983  2.901128
      ESP Fit Center  189 is at  -2.107674  0.936359  2.901128
      ESP Fit Center  190 is at  -2.806227  1.123536  2.901128
      ESP Fit Center  191 is at  -3.504780  0.936359  2.901128
      ESP Fit Center  192 is at  -4.016156  0.424983  2.901128
      ESP Fit Center  193 is at  -4.203333 -0.273570  2.901128
      ESP Fit Center  194 is at  -4.016156 -0.972122  2.901128
      ESP Fit Center  195 is at  -3.504780 -1.483498  2.901128
      ESP Fit Center  196 is at  -2.806227 -1.670675  2.901128
      ESP Fit Center  197 is at  -2.107674 -1.483498  2.901128
      ESP Fit Center  198 is at  -1.596298 -0.972122  2.901128
      ESP Fit Center  199 is at  -0.798590 -0.273570  2.517505
      ESP Fit Center  200 is at  -0.934161  0.451673  2.517505
      ESP Fit Center  201 is at  -1.322565  1.078967  2.517505
      ESP Fit Center  202 is at  -1.911346  1.523594  2.517505
      ESP Fit Center  203 is at  -2.620986  1.725503  2.517505
      ESP Fit Center  204 is at  -3.355643  1.657427  2.517505
      ESP Fit Center  205 is at  -4.016099  1.328560  2.517505
      ESP Fit Center  206 is at  -4.513154  0.783315  2.517505
      ESP Fit Center  207 is at  -4.779680  0.095333  2.517505
      ESP Fit Center  208 is at  -4.779680 -0.642472  2.517505
      ESP Fit Center  209 is at  -4.513154 -1.330454  2.517505
      ESP Fit Center  210 is at  -4.016099 -1.875699  2.517505
      ESP Fit Center  211 is at  -3.355643 -2.204566  2.517505
      ESP Fit Center  212 is at  -2.620986 -2.272642  2.517505
      ESP Fit Center  213 is at  -1.911346 -2.070733  2.517505
      ESP Fit Center  214 is at  -1.322565 -1.626106  2.517505
      ESP Fit Center  215 is at  -0.934161 -0.998812  2.517505
      ESP Fit Center  216 is at  -1.236593  1.694689  2.007645
      ESP Fit Center  217 is at  -1.886482  2.069903  2.007645
      ESP Fit Center  218 is at  -2.618094  2.236888  2.007645
      ESP Fit Center  219 is at  -3.366423  2.180809  2.007645
      ESP Fit Center  220 is at  -4.064976  1.906647  2.007645
      ESP Fit Center  221 is at  -4.651683  1.438764  2.007645
      ESP Fit Center  222 is at  -5.074414  0.818732  2.007645
      ESP Fit Center  223 is at  -5.295606  0.101644  2.007645
      ESP Fit Center  224 is at  -5.295606 -0.648783  2.007645
      ESP Fit Center  225 is at  -5.074414 -1.365871  2.007645
      ESP Fit Center  226 is at  -4.651683 -1.985903  2.007645
      ESP Fit Center  227 is at  -4.064976 -2.453786  2.007645
      ESP Fit Center  228 is at  -3.366423 -2.727948  2.007645
      ESP Fit Center  229 is at  -2.618094 -2.784027  2.007645
      ESP Fit Center  230 is at  -1.886482 -2.617042  2.007645
      ESP Fit Center  231 is at  -1.236593 -2.241828  2.007645
      ESP Fit Center  232 is at  -1.909732  2.485559  1.397114
      ESP Fit Center  233 is at  -2.624064  2.621826  1.397114
      ESP Fit Center  234 is at  -3.349843  2.576163  1.397114
      ESP Fit Center  235 is at  -4.041464  2.351442  1.397114
      ESP Fit Center  236 is at  -4.655470  1.961782  1.397114
      ESP Fit Center  237 is at  -5.153282  1.431666  1.397114
      ESP Fit Center  238 is at  -5.503620  0.794404  1.397114
      ESP Fit Center  239 is at  -5.684470  0.090037  1.397114
      ESP Fit Center  240 is at  -5.684470 -0.637176  1.397114
      ESP Fit Center  241 is at  -5.503620 -1.341543  1.397114
      ESP Fit Center  242 is at  -5.153282 -1.978805  1.397114
      ESP Fit Center  243 is at  -4.655470 -2.508921  1.397114
      ESP Fit Center  244 is at  -4.041464 -2.898581  1.397114
      ESP Fit Center  245 is at  -3.349843 -3.123302  1.397114
      ESP Fit Center  246 is at  -2.624064 -3.168965  1.397114
      ESP Fit Center  247 is at  -1.909732 -3.032698  1.397114
      ESP Fit Center  248 is at  -1.562826  2.608957  0.716525
      ESP Fit Center  249 is at  -2.261099  2.818006  0.716525
      ESP Fit Center  250 is at  -2.988759  2.860387  0.716525
      ESP Fit Center  251 is at  -3.706579  2.733816  0.716525
      ESP Fit Center  252 is at  -4.375861  2.445116  0.716525
      ESP Fit Center  253 is at  -4.960523  2.009851  0.716525
      ESP Fit Center  254 is at  -5.429047  1.451486  0.716525
      ESP Fit Center  255 is at  -5.756174  0.800123  0.716525
      ESP Fit Center  256 is at  -5.924268  0.090877  0.716525
      ESP Fit Center  257 is at  -5.924268 -0.638016  0.716525
      ESP Fit Center  258 is at  -5.756174 -1.347262  0.716525
      ESP Fit Center  259 is at  -5.429047 -1.998625  0.716525
      ESP Fit Center  260 is at  -4.960523 -2.556990  0.716525
      ESP Fit Center  261 is at  -4.375861 -2.992255  0.716525
      ESP Fit Center  262 is at  -3.706579 -3.280955  0.716525
      ESP Fit Center  263 is at  -2.988759 -3.407526  0.716525
      ESP Fit Center  264 is at  -2.261099 -3.365145  0.716525
      ESP Fit Center  265 is at  -2.089710  2.865698  0.000008
      ESP Fit Center  266 is at  -2.806227  2.946430  0.000008
      ESP Fit Center  267 is at  -3.522744  2.865698  0.000008
      ESP Fit Center  268 is at  -4.203333  2.627550  0.000008
      ESP Fit Center  269 is at  -4.813864  2.243928  0.000008
      ESP Fit Center  270 is at  -5.323724  1.734068  0.000008
      ESP Fit Center  271 is at  -5.707347  1.123536  0.000008
      ESP Fit Center  272 is at  -5.945495  0.442948  0.000008
      ESP Fit Center  273 is at  -6.026227 -0.273570  0.000008
      ESP Fit Center  274 is at  -5.945495 -0.990087  0.000008
      ESP Fit Center  275 is at  -5.707347 -1.670675  0.000008
      ESP Fit Center  276 is at  -5.323724 -2.281207  0.000008
      ESP Fit Center  277 is at  -4.813864 -2.791067  0.000008
      ESP Fit Center  278 is at  -4.203333 -3.174689  0.000008
      ESP Fit Center  279 is at  -3.522744 -3.412837  0.000008
      ESP Fit Center  280 is at  -2.806227 -3.493570  0.000008
      ESP Fit Center  281 is at  -2.089710 -3.412837  0.000008
      ESP Fit Center  282 is at  -1.562826  2.608957 -0.716509
      ESP Fit Center  283 is at  -2.261099  2.818006 -0.716509
      ESP Fit Center  284 is at  -2.988759  2.860387 -0.716509
      ESP Fit Center  285 is at  -3.706579  2.733816 -0.716509
      ESP Fit Center  286 is at  -4.375861  2.445116 -0.716509
      ESP Fit Center  287 is at  -4.960523  2.009851 -0.716509
      ESP Fit Center  288 is at  -5.429047  1.451486 -0.716509
      ESP Fit Center  289 is at  -5.756174  0.800123 -0.716509
      ESP Fit Center  290 is at  -5.924268  0.090877 -0.716509
      ESP Fit Center  291 is at  -5.924268 -0.638016 -0.716509
      ESP Fit Center  292 is at  -5.756174 -1.347262 -0.716509
      ESP Fit Center  293 is at  -5.429047 -1.998625 -0.716509
      ESP Fit Center  294 is at  -4.960523 -2.556990 -0.716509
      ESP Fit Center  295 is at  -4.375861 -2.992255 -0.716509
      ESP Fit Center  296 is at  -3.706579 -3.280955 -0.716509
      ESP Fit Center  297 is at  -2.988759 -3.407526 -0.716509
      ESP Fit Center  298 is at  -2.261099 -3.365145 -0.716509
      ESP Fit Center  299 is at  -1.909732  2.485559 -1.397098
      ESP Fit Center  300 is at  -2.624064  2.621826 -1.397098
      ESP Fit Center  301 is at  -3.349843  2.576163 -1.397098
      ESP Fit Center  302 is at  -4.041464  2.351442 -1.397098
      ESP Fit Center  303 is at  -4.655470  1.961782 -1.397098
      ESP Fit Center  304 is at  -5.153282  1.431666 -1.397098
      ESP Fit Center  305 is at  -5.503620  0.794404 -1.397098
      ESP Fit Center  306 is at  -5.684470  0.090037 -1.397098
      ESP Fit Center  307 is at  -5.684470 -0.637176 -1.397098
      ESP Fit Center  308 is at  -5.503620 -1.341543 -1.397098
      ESP Fit Center  309 is at  -5.153282 -1.978805 -1.397098
      ESP Fit Center  310 is at  -4.655470 -2.508921 -1.397098
      ESP Fit Center  311 is at  -4.041464 -2.898581 -1.397098
      ESP Fit Center  312 is at  -3.349843 -3.123302 -1.397098
      ESP Fit Center  313 is at  -2.624064 -3.168965 -1.397098
      ESP Fit Center  314 is at  -1.909732 -3.032698 -1.397098
      ESP Fit Center  315 is at  -1.236593  1.694689 -2.007629
      ESP Fit Center  316 is at  -1.886482  2.069903 -2.007629
      ESP Fit Center  317 is at  -2.618094  2.236888 -2.007629
      ESP Fit Center  318 is at  -3.366423  2.180809 -2.007629
      ESP Fit Center  319 is at  -4.064976  1.906647 -2.007629
      ESP Fit Center  320 is at  -4.651683  1.438764 -2.007629
      ESP Fit Center  321 is at  -5.074414  0.818732 -2.007629
      ESP Fit Center  322 is at  -5.295606  0.101644 -2.007629
      ESP Fit Center  323 is at  -5.295606 -0.648783 -2.007629
      ESP Fit Center  324 is at  -5.074414 -1.365871 -2.007629
      ESP Fit Center  325 is at  -4.651683 -1.985903 -2.007629
      ESP Fit Center  326 is at  -4.064976 -2.453786 -2.007629
      ESP Fit Center  327 is at  -3.366423 -2.727948 -2.007629
      ESP Fit Center  328 is at  -2.618094 -2.784027 -2.007629
      ESP Fit Center  329 is at  -1.886482 -2.617042 -2.007629
      ESP Fit Center  330 is at  -1.236593 -2.241828 -2.007629
      ESP Fit Center  331 is at  -0.798590 -0.273570 -2.517489
      ESP Fit Center  332 is at  -0.934161  0.451673 -2.517489
      ESP Fit Center  333 is at  -1.322565  1.078967 -2.517489
      ESP Fit Center  334 is at  -1.911346  1.523594 -2.517489
      ESP Fit Center  335 is at  -2.620986  1.725503 -2.517489
      ESP Fit Center  336 is at  -3.355643  1.657427 -2.517489
      ESP Fit Center  337 is at  -4.016099  1.328560 -2.517489
      ESP Fit Center  338 is at  -4.513154  0.783315 -2.517489
      ESP Fit Center  339 is at  -4.779680  0.095333 -2.517489
      ESP Fit Center  340 is at  -4.779680 -0.642472 -2.517489
      ESP Fit Center  341 is at  -4.513154 -1.330454 -2.517489
      ESP Fit Center  342 is at  -4.016099 -1.875699 -2.517489
      ESP Fit Center  343 is at  -3.355643 -2.204566 -2.517489
      ESP Fit Center  344 is at  -2.620986 -2.272642 -2.517489
      ESP Fit Center  345 is at  -1.911346 -2.070733 -2.517489
      ESP Fit Center  346 is at  -1.322565 -1.626106 -2.517489
      ESP Fit Center  347 is at  -0.934161 -0.998812 -2.517489
      ESP Fit Center  348 is at  -1.409121 -0.273570 -2.901112
      ESP Fit Center  349 is at  -1.596298  0.424983 -2.901112
      ESP Fit Center  350 is at  -2.107674  0.936359 -2.901112
      ESP Fit Center  351 is at  -2.806227  1.123536 -2.901112
      ESP Fit Center  352 is at  -3.504780  0.936359 -2.901112
      ESP Fit Center  353 is at  -4.016156  0.424983 -2.901112
      ESP Fit Center  354 is at  -4.203333 -0.273570 -2.901112
      ESP Fit Center  355 is at  -4.016156 -0.972122 -2.901112
      ESP Fit Center  356 is at  -3.504780 -1.483498 -2.901112
      ESP Fit Center  357 is at  -2.806227 -1.670675 -2.901112
      ESP Fit Center  358 is at  -2.107674 -1.483498 -2.901112
      ESP Fit Center  359 is at  -1.596298 -0.972122 -2.901112
      ESP Fit Center  360 is at  -2.089710 -0.273570 -3.139260
      ESP Fit Center  361 is at  -2.447968  0.346953 -3.139260
      ESP Fit Center  362 is at  -3.164486  0.346953 -3.139260
      ESP Fit Center  363 is at  -3.522744 -0.273570 -3.139260
      ESP Fit Center  364 is at  -3.164486 -0.894092 -3.139260
      ESP Fit Center  365 is at  -2.447968 -0.894092 -3.139260
      ESP Fit Center  366 is at  -2.806227 -0.273570 -3.219992
      ESP Fit Center  367 is at   0.300821  3.605588  2.566102
      ESP Fit Center  368 is at   1.029745  3.605588  2.399730
      ESP Fit Center  369 is at   0.665283  4.236855  2.399730
      ESP Fit Center  370 is at  -0.063642  4.236855  2.399730
      ESP Fit Center  371 is at  -0.428104  3.605588  2.399730
      ESP Fit Center  372 is at  -0.063642  2.974321  2.399730
      ESP Fit Center  373 is at   0.665283  2.974321  2.399730
      ESP Fit Center  374 is at   1.363446  4.377630  1.933565
      ESP Fit Center  375 is at   0.706707  4.854779  1.933565
      ESP Fit Center  376 is at  -0.105066  4.854779  1.933565
      ESP Fit Center  377 is at  -0.761805  4.377630  1.933565
      ESP Fit Center  378 is at  -1.012656  3.605588  1.933565
      ESP Fit Center  379 is at  -0.761805  2.833546  1.933565
      ESP Fit Center  380 is at  -0.105066  2.356397  1.933565
      ESP Fit Center  381 is at   0.706707  2.356397  1.933565
      ESP Fit Center  382 is at   0.498245  5.231525  1.259937
      ESP Fit Center  383 is at  -0.279979  5.137031  1.259937
      ESP Fit Center  384 is at  -0.925149  4.691703  1.259937
      ESP Fit Center  385 is at  -1.289465  3.997558  1.259937
      ESP Fit Center  386 is at  -1.289465  3.213618  1.259937
      ESP Fit Center  387 is at  -0.925149  4.691703  0.512267
      ESP Fit Center  388 is at  -1.289465  3.997558  0.512267
      ESP Fit Center  389 is at  -1.289465  3.213618  0.512267
      ESP Fit Center  390 is at   2.406152  4.309273  1.511655
      ESP Fit Center  391 is at   2.041690  4.940540  1.511655
      ESP Fit Center  392 is at   1.312765  4.940540  1.511655
      ESP Fit Center  393 is at   2.990705  4.309273  1.045490
      ESP Fit Center  394 is at   2.739853  5.081315  1.045490
      ESP Fit Center  395 is at   2.083114  5.558464  1.045490
      ESP Fit Center  396 is at   1.271341  5.558464  1.045490
      ESP Fit Center  397 is at   3.315107  4.309273  0.371862
      ESP Fit Center  398 is at   3.127497  5.070433  0.371862
      ESP Fit Center  399 is at   2.607649  5.657221  0.371862
      ESP Fit Center  400 is at   1.874652  5.935210  0.371862
      ESP Fit Center  401 is at   1.096428  5.840716  0.371862
      ESP Fit Center  402 is at   3.315107  4.309273 -0.375808
      ESP Fit Center  403 is at   3.127497  5.070433 -0.375808
      ESP Fit Center  404 is at   2.607649  5.657221 -0.375808
      ESP Fit Center  405 is at   1.874652  5.935210 -0.375808
      ESP Fit Center  406 is at   1.096428  5.840716 -0.375808
      ESP Fit Center  407 is at   2.990705  4.309273 -1.049436
      ESP Fit Center  408 is at   2.739853  5.081315 -1.049436
      ESP Fit Center  409 is at   2.083114  5.558464 -1.049436
      ESP Fit Center  410 is at   1.271341  5.558464 -1.049436
      ESP Fit Center  411 is at   2.406152  4.309273 -1.515601
      ESP Fit Center  412 is at   2.041690  4.940540 -1.515601
      ESP Fit Center  413 is at   1.312765  4.940540 -1.515601
      ESP Fit Center  414 is at  -0.927221  4.689607 -0.511401
      ESP Fit Center  415 is at  -1.291537  3.995462 -0.511401
      ESP Fit Center  416 is at  -1.291537  3.211522 -0.511401
      ESP Fit Center  417 is at   0.496173  5.229429 -1.259071
      ESP Fit Center  418 is at  -0.282051  5.134935 -1.259071
      ESP Fit Center  419 is at  -0.927221  4.689607 -1.259071
      ESP Fit Center  420 is at  -1.291537  3.995462 -1.259071
      ESP Fit Center  421 is at  -1.291537  3.211522 -1.259071
      ESP Fit Center  422 is at   1.361374  4.375534 -1.932699
      ESP Fit Center  423 is at   0.704635  4.852683 -1.932699
      ESP Fit Center  424 is at  -0.107138  4.852683 -1.932699
      ESP Fit Center  425 is at  -0.763877  4.375534 -1.932699
      ESP Fit Center  426 is at  -1.014728  3.603492 -1.932699
      ESP Fit Center  427 is at  -0.763877  2.831450 -1.932699
      ESP Fit Center  428 is at  -0.107138  2.354301 -1.932699
      ESP Fit Center  429 is at   0.704635  2.354301 -1.932699
      ESP Fit Center  430 is at   1.027673  3.603492 -2.398864
      ESP Fit Center  431 is at   0.663211  4.234759 -2.398864
      ESP Fit Center  432 is at  -0.065714  4.234759 -2.398864
      ESP Fit Center  433 is at  -0.430176  3.603492 -2.398864
      ESP Fit Center  434 is at  -0.065714  2.972225 -2.398864
      ESP Fit Center  435 is at   0.663211  2.972225 -2.398864
      ESP Fit Center  436 is at   0.298749  3.603492 -2.565236
      ESP Fit Center  437 is at   3.376851  2.203988  1.513681
      ESP Fit Center  438 is at   3.012389  2.835255  1.513681
      ESP Fit Center  439 is at   3.012389  1.572721  1.513681
      ESP Fit Center  440 is at   3.961403  2.203988  1.047516
      ESP Fit Center  441 is at   3.710552  2.976030  1.047516
      ESP Fit Center  442 is at   3.053813  3.453179  1.047516
      ESP Fit Center  443 is at   4.285805  2.203988  0.373888
      ESP Fit Center  444 is at   4.098196  2.965148  0.373888
      ESP Fit Center  445 is at   3.578348  3.551936  0.373888
      ESP Fit Center  446 is at   4.285805  2.203988 -0.373782
      ESP Fit Center  447 is at   4.098196  2.965148 -0.373782
      ESP Fit Center  448 is at   3.578348  3.551936 -0.373782
      ESP Fit Center  449 is at   3.961403  2.203988 -1.047410
      ESP Fit Center  450 is at   3.710552  2.976030 -1.047410
      ESP Fit Center  451 is at   3.053813  3.453179 -1.047410
      ESP Fit Center  452 is at   3.376851  2.203988 -1.513575
      ESP Fit Center  453 is at   3.012389  2.835255 -1.513575
      ESP Fit Center  454 is at   3.012389  1.572721 -1.513575
      ESP Fit Center  455 is at   5.057383 -2.052690  1.513584
      ESP Fit Center  456 is at   4.692920 -2.683958  1.513584
      ESP Fit Center  457 is at   5.641935 -2.052690  1.047419
      ESP Fit Center  458 is at   5.391083 -1.280648  1.047419
      ESP Fit Center  459 is at   4.734345 -3.301881  1.047419
      ESP Fit Center  460 is at   5.391083 -2.824733  1.047419
      ESP Fit Center  461 is at   5.966337 -2.052690  0.373791
      ESP Fit Center  462 is at   5.778728 -1.291530  0.373791
      ESP Fit Center  463 is at   5.258879 -0.704742  0.373791
      ESP Fit Center  464 is at   4.525882 -3.678627  0.373791
      ESP Fit Center  465 is at   5.258879 -3.400638  0.373791
      ESP Fit Center  466 is at   5.778728 -2.813851  0.373791
      ESP Fit Center  467 is at   5.966337 -2.052690 -0.373879
      ESP Fit Center  468 is at   5.778728 -1.291530 -0.373879
      ESP Fit Center  469 is at   5.258879 -0.704742 -0.373879
      ESP Fit Center  470 is at   4.525882 -3.678627 -0.373879
      ESP Fit Center  471 is at   5.258879 -3.400638 -0.373879
      ESP Fit Center  472 is at   5.778728 -2.813851 -0.373879
      ESP Fit Center  473 is at   5.641935 -2.052690 -1.047507
      ESP Fit Center  474 is at   5.391083 -1.280648 -1.047507
      ESP Fit Center  475 is at   4.734345 -3.301881 -1.047507
      ESP Fit Center  476 is at   5.391083 -2.824733 -1.047507
      ESP Fit Center  477 is at   5.057383 -2.052690 -1.513672
      ESP Fit Center  478 is at   4.692920 -2.683958 -1.513672
      ESP Fit Center  479 is at   1.537075 -4.011836  1.513323
      ESP Fit Center  480 is at   2.266000 -4.011836  1.513323
      ESP Fit Center  481 is at   0.588061 -3.380569  1.047158
      ESP Fit Center  482 is at   0.838913 -4.152611  1.047158
      ESP Fit Center  483 is at   1.495651 -4.629760  1.047158
      ESP Fit Center  484 is at   2.307424 -4.629760  1.047158
      ESP Fit Center  485 is at   2.964163 -4.152611  1.047158
      ESP Fit Center  486 is at   0.311253 -3.772539  0.373530
      ESP Fit Center  487 is at   0.675568 -4.466684  0.373530
      ESP Fit Center  488 is at   1.320738 -4.912012  0.373530
      ESP Fit Center  489 is at   2.098962 -5.006506  0.373530
      ESP Fit Center  490 is at   2.831959 -4.728517  0.373530
      ESP Fit Center  491 is at   3.351807 -4.141729  0.373530
      ESP Fit Center  492 is at   0.311253 -3.772539 -0.374140
      ESP Fit Center  493 is at   0.675568 -4.466684 -0.374140
      ESP Fit Center  494 is at   1.320738 -4.912012 -0.374140
      ESP Fit Center  495 is at   2.098962 -5.006506 -0.374140
      ESP Fit Center  496 is at   2.831959 -4.728517 -0.374140
      ESP Fit Center  497 is at   3.351807 -4.141729 -0.374140
      ESP Fit Center  498 is at   0.588061 -3.380569 -1.047768
      ESP Fit Center  499 is at   0.838913 -4.152611 -1.047768
      ESP Fit Center  500 is at   1.495651 -4.629760 -1.047768
      ESP Fit Center  501 is at   2.307424 -4.629760 -1.047768
      ESP Fit Center  502 is at   2.964163 -4.152611 -1.047768
      ESP Fit Center  503 is at   1.537075 -4.011836 -1.513933
      ESP Fit Center  504 is at   2.266000 -4.011836 -1.513933
      ESP Fit Center  505 is at  -1.067480 -3.037348  1.513634
      ESP Fit Center  506 is at  -0.338555 -3.037348  1.513634
      ESP Fit Center  507 is at  -1.765642 -3.178123  1.047469
      ESP Fit Center  508 is at  -1.108904 -3.655272  1.047469
      ESP Fit Center  509 is at  -0.297130 -3.655272  1.047469
      ESP Fit Center  510 is at   0.359608 -3.178123  1.047469
      ESP Fit Center  511 is at  -1.928987 -3.492195  0.373841
      ESP Fit Center  512 is at  -1.283817 -3.937524  0.373841
      ESP Fit Center  513 is at  -0.505593 -4.032018  0.373841
      ESP Fit Center  514 is at   0.227404 -3.754029  0.373841
      ESP Fit Center  515 is at  -1.928987 -3.492195 -0.373829
      ESP Fit Center  516 is at  -1.283817 -3.937524 -0.373829
      ESP Fit Center  517 is at  -0.505593 -4.032018 -0.373829
      ESP Fit Center  518 is at   0.227404 -3.754029 -0.373829
      ESP Fit Center  519 is at  -1.765642 -3.178123 -1.047457
      ESP Fit Center  520 is at  -1.108904 -3.655272 -1.047457
      ESP Fit Center  521 is at  -0.297130 -3.655272 -1.047457
      ESP Fit Center  522 is at   0.359608 -3.178123 -1.047457
      ESP Fit Center  523 is at  -1.067480 -3.037348 -1.513622
      ESP Fit Center  524 is at  -0.338555 -3.037348 -1.513622
      ESP Fit Center  525 is at   3.131410 -0.283160  2.368435
      ESP Fit Center  526 is at   3.863264 -0.283160  2.252521
      ESP Fit Center  527 is at   3.497337  0.350644  2.252521
      ESP Fit Center  528 is at   2.765483  0.350644  2.252521
      ESP Fit Center  529 is at   2.765483 -0.916964  2.252521
      ESP Fit Center  530 is at   3.497337 -0.916964  2.252521
      ESP Fit Center  531 is at   4.523478 -0.283160  1.916125
      ESP Fit Center  532 is at   4.302493  0.469449  1.916125
      ESP Fit Center  533 is at   3.709696  0.983110  1.916125
      ESP Fit Center  534 is at   2.933298  1.094739  1.916125
      ESP Fit Center  535 is at   5.047428 -0.283160  1.392175
      ESP Fit Center  536 is at   4.901580  0.450068  1.392175
      ESP Fit Center  537 is at   4.486239  1.071669  1.392175
      ESP Fit Center  538 is at   3.864638  1.487009  1.392175
      ESP Fit Center  539 is at   5.383824 -0.283160  0.731961
      ESP Fit Center  540 is at   5.261782  0.448197  0.731961
      ESP Fit Center  541 is at   4.908881  1.100301  0.731961
      ESP Fit Center  542 is at   4.363364  1.602485  0.731961
      ESP Fit Center  543 is at   5.499738 -0.283160  0.000107
      ESP Fit Center  544 is at   5.383824  0.448693  0.000107
      ESP Fit Center  545 is at   5.047428  1.108908  0.000107
      ESP Fit Center  546 is at   4.523478  1.632858  0.000107
      ESP Fit Center  547 is at   5.383824 -0.283160 -0.731747
      ESP Fit Center  548 is at   5.261782  0.448197 -0.731747
      ESP Fit Center  549 is at   4.908881  1.100301 -0.731747
      ESP Fit Center  550 is at   4.363364  1.602485 -0.731747
      ESP Fit Center  551 is at   5.047428 -0.283160 -1.391961
      ESP Fit Center  552 is at   4.901580  0.450068 -1.391961
      ESP Fit Center  553 is at   4.486239  1.071669 -1.391961
      ESP Fit Center  554 is at   3.864638  1.487009 -1.391961
      ESP Fit Center  555 is at   4.523478 -0.283160 -1.915911
      ESP Fit Center  556 is at   4.302493  0.469449 -1.915911
      ESP Fit Center  557 is at   3.709696  0.983110 -1.915911
      ESP Fit Center  558 is at   2.933298  1.094739 -1.915911
      ESP Fit Center  559 is at   3.863264 -0.283160 -2.252307
      ESP Fit Center  560 is at   3.497337  0.350644 -2.252307
      ESP Fit Center  561 is at   2.765483  0.350644 -2.252307
      ESP Fit Center  562 is at   2.765483 -0.916964 -2.252307
      ESP Fit Center  563 is at   3.497337 -0.916964 -2.252307
      ESP Fit Center  564 is at   3.131410 -0.283160 -2.368221
      ESP Fit Center  565 is at   1.808918 -0.144181  2.368342
      ESP Fit Center  566 is at   2.174845  0.489623  2.252428
      ESP Fit Center  567 is at   1.077064 -0.144181  2.252428
      ESP Fit Center  568 is at   2.174845 -0.777985  2.252428
      ESP Fit Center  569 is at   2.174845  0.489623 -2.252400
      ESP Fit Center  570 is at   1.077064 -0.144181 -2.252400
      ESP Fit Center  571 is at   2.174845 -0.777985 -2.252400
      ESP Fit Center  572 is at   1.808918 -0.144181 -2.368314
      ESP Fit Center  573 is at   1.152951 -1.364222  2.368347
      ESP Fit Center  574 is at   1.884805 -1.364222  2.252433
      ESP Fit Center  575 is at   0.787024 -0.730418  2.252433
      ESP Fit Center  576 is at   0.787024 -1.998026  2.252433
      ESP Fit Center  577 is at   1.884805 -1.364222 -2.252395
      ESP Fit Center  578 is at   0.787024 -0.730418 -2.252395
      ESP Fit Center  579 is at   0.787024 -1.998026 -2.252395
      ESP Fit Center  580 is at   1.152951 -1.364222 -2.368309
      ESP Fit Center  581 is at   2.134253 -2.326770  2.368177
      ESP Fit Center  582 is at   2.866106 -2.326770  2.252263
      ESP Fit Center  583 is at   2.500180 -1.692966  2.252263
      ESP Fit Center  584 is at   1.402399 -2.326770  2.252263
      ESP Fit Center  585 is at   1.768326 -2.960574  2.252263
      ESP Fit Center  586 is at   2.500180 -2.960574  2.252263
      ESP Fit Center  587 is at   0.798573 -2.718961  1.915867
      ESP Fit Center  588 is at   1.222642 -3.378825  1.915867
      ESP Fit Center  589 is at   1.936141 -3.704669  1.915867
      ESP Fit Center  590 is at   2.712539 -3.593040  1.915867
      ESP Fit Center  591 is at   3.305335 -3.079379  1.915867
      ESP Fit Center  592 is at   3.489082 -3.681599  1.391917
      ESP Fit Center  593 is at   3.489082 -3.681599 -1.392219
      ESP Fit Center  594 is at   0.798573 -2.718961 -1.916169
      ESP Fit Center  595 is at   1.222642 -3.378825 -1.916169
      ESP Fit Center  596 is at   1.936141 -3.704669 -1.916169
      ESP Fit Center  597 is at   2.712539 -3.593040 -1.916169
      ESP Fit Center  598 is at   3.305335 -3.079379 -1.916169
      ESP Fit Center  599 is at   2.866106 -2.326770 -2.252565
      ESP Fit Center  600 is at   2.500180 -1.692966 -2.252565
      ESP Fit Center  601 is at   1.402399 -2.326770 -2.252565
      ESP Fit Center  602 is at   1.768326 -2.960574 -2.252565
      ESP Fit Center  603 is at   2.500180 -2.960574 -2.252565
      ESP Fit Center  604 is at   2.134253 -2.326770 -2.368479
      ESP Fit Center  605 is at   3.331744 -1.631263  2.368305
      ESP Fit Center  606 is at   4.063598 -1.631263  2.252391
      ESP Fit Center  607 is at   3.697671 -0.997459  2.252391
      ESP Fit Center  608 is at   2.965817 -0.997459  2.252391
      ESP Fit Center  609 is at   2.599890 -1.631263  2.252391
      ESP Fit Center  610 is at   2.965817 -2.265067  2.252391
      ESP Fit Center  611 is at   3.697671 -2.265067  2.252391
      ESP Fit Center  612 is at   4.723812 -1.631263  1.915995
      ESP Fit Center  613 is at   4.502826 -0.878654  1.915995
      ESP Fit Center  614 is at   3.910030 -2.897533  1.915995
      ESP Fit Center  615 is at   4.502826 -2.383872  1.915995
      ESP Fit Center  616 is at   5.101913 -0.898035  1.392045
      ESP Fit Center  617 is at   4.064972 -3.401433  1.392045
      ESP Fit Center  618 is at   3.884679 -3.814754  0.731831
      ESP Fit Center  619 is at   3.884679 -3.814754 -0.731877
      ESP Fit Center  620 is at   5.101913 -0.898035 -1.392091
      ESP Fit Center  621 is at   4.064972 -3.401433 -1.392091
      ESP Fit Center  622 is at   4.723812 -1.631263 -1.916041
      ESP Fit Center  623 is at   4.502826 -0.878654 -1.916041
      ESP Fit Center  624 is at   3.910030 -2.897533 -1.916041
      ESP Fit Center  625 is at   4.502826 -2.383872 -1.916041
      ESP Fit Center  626 is at   4.063598 -1.631263 -2.252437
      ESP Fit Center  627 is at   3.697671 -0.997459 -2.252437
      ESP Fit Center  628 is at   2.965817 -0.997459 -2.252437
      ESP Fit Center  629 is at   2.599890 -1.631263 -2.252437
      ESP Fit Center  630 is at   2.965817 -2.265067 -2.252437
      ESP Fit Center  631 is at   3.697671 -2.265067 -2.252437
      ESP Fit Center  632 is at   3.331744 -1.631263 -2.368351
      ESP Fit Center  633 is at  -0.234541 -1.433121  2.368348
      ESP Fit Center  634 is at   0.131386 -0.799317  2.252434
      ESP Fit Center  635 is at   0.131386 -2.066925  2.252434
      ESP Fit Center  636 is at  -0.432653 -2.811020  1.916038
      ESP Fit Center  637 is at   0.343745 -2.699391  1.916038
      ESP Fit Center  638 is at  -0.432653 -2.811020 -1.915998
      ESP Fit Center  639 is at   0.343745 -2.699391 -1.915998
      ESP Fit Center  640 is at   0.131386 -0.799317 -2.252394
      ESP Fit Center  641 is at   0.131386 -2.066925 -2.252394
      ESP Fit Center  642 is at  -0.234541 -1.433121 -2.368308
      ESP Fit Center  643 is at  -0.321898  0.985366  2.368331
      ESP Fit Center  644 is at   0.044029  1.619170  2.252417
      ESP Fit Center  645 is at   0.044029  0.351562  2.252417
      ESP Fit Center  646 is at   0.044029  1.619170 -2.252411
      ESP Fit Center  647 is at   0.044029  0.351562 -2.252411
      ESP Fit Center  648 is at  -0.321898  0.985366 -2.368325
      ESP Fit Center  649 is at   1.004166  1.043973  2.368323
      ESP Fit Center  650 is at   1.736020  1.043973  2.252409
      ESP Fit Center  651 is at   0.638239  1.677777  2.252409
      ESP Fit Center  652 is at   0.638239  0.410169  2.252409
      ESP Fit Center  653 is at   1.736020  1.043973 -2.252419
      ESP Fit Center  654 is at   0.638239  1.677777 -2.252419
      ESP Fit Center  655 is at   0.638239  0.410169 -2.252419
      ESP Fit Center  656 is at   1.004166  1.043973 -2.368333
      ESP Fit Center  657 is at   1.638395  2.236391  2.368652
      ESP Fit Center  658 is at   2.370249  2.236391  2.252738
      ESP Fit Center  659 is at   2.004322  2.870195  2.252738
      ESP Fit Center  660 is at   0.906542  2.236391  2.252738
      ESP Fit Center  661 is at   2.004322  1.602587  2.252738
      ESP Fit Center  662 is at   3.030464  2.236391  1.916342
      ESP Fit Center  663 is at   2.809478  2.989000  1.916342
      ESP Fit Center  664 is at   2.809478  1.483782  1.916342
      ESP Fit Center  665 is at   2.993225  3.591220  1.392392
      ESP Fit Center  666 is at   2.993225  3.591220 -1.391744
      ESP Fit Center  667 is at   3.030464  2.236391 -1.915694
      ESP Fit Center  668 is at   2.809478  2.989000 -1.915694
      ESP Fit Center  669 is at   2.809478  1.483782 -1.915694
      ESP Fit Center  670 is at   2.370249  2.236391 -2.252090
      ESP Fit Center  671 is at   2.004322  2.870195 -2.252090
      ESP Fit Center  672 is at   0.906542  2.236391 -2.252090
      ESP Fit Center  673 is at   2.004322  1.602587 -2.252090
      ESP Fit Center  674 is at   1.638395  2.236391 -2.368004
      ESP Fit Center  675 is at   1.669243  3.506180  2.252203
      ESP Fit Center  676 is at   2.329458  3.506180  1.915807
      ESP Fit Center  677 is at   2.108472  4.258789  1.915807
      ESP Fit Center  678 is at   1.515676  4.772450  1.915807
      ESP Fit Center  679 is at   0.937390  5.422198  1.391857
      ESP Fit Center  680 is at   0.032605  5.568881  0.731643
      ESP Fit Center  681 is at   0.205536  5.758594 -0.000211
      ESP Fit Center  682 is at  -0.454679  5.422198 -0.000211
      ESP Fit Center  683 is at  -0.978628  4.898248 -0.000211
      ESP Fit Center  684 is at  -1.315024  4.238034 -0.000211
      ESP Fit Center  685 is at  -1.430939  3.506180 -0.000211
      ESP Fit Center  686 is at   0.032605  5.568881 -0.732065
      ESP Fit Center  687 is at   0.937390  5.422198 -1.392279
      ESP Fit Center  688 is at   2.329458  3.506180 -1.916229
      ESP Fit Center  689 is at   2.108472  4.258789 -1.916229
      ESP Fit Center  690 is at   1.515676  4.772450 -1.916229
      ESP Fit Center  691 is at   1.669243  3.506180 -2.252625
      ESP Fit Center  692 is at  -2.806227 -0.273570  3.631445
      ESP Fit Center  693 is at  -2.097769 -0.273570  3.561668
      ESP Fit Center  694 is at  -2.451998  0.339973  3.561668
      ESP Fit Center  695 is at  -3.160456  0.339973  3.561668
      ESP Fit Center  696 is at  -3.514685 -0.273570  3.561668
      ESP Fit Center  697 is at  -3.160456 -0.887112  3.561668
      ESP Fit Center  698 is at  -2.451998 -0.887112  3.561668
      ESP Fit Center  699 is at  -1.416536 -0.273570  3.355018
      ESP Fit Center  700 is at  -1.602720  0.421276  3.355018
      ESP Fit Center  701 is at  -2.111382  0.929938  3.355018
      ESP Fit Center  702 is at  -2.806227  1.116121  3.355018
      ESP Fit Center  703 is at  -3.501072  0.929938  3.355018
      ESP Fit Center  704 is at  -4.009734  0.421276  3.355018
      ESP Fit Center  705 is at  -4.195918 -0.273570  3.355018
      ESP Fit Center  706 is at  -4.009734 -0.968415  3.355018
      ESP Fit Center  707 is at  -3.501072 -1.477077  3.355018
      ESP Fit Center  708 is at  -2.806227 -1.663260  3.355018
      ESP Fit Center  709 is at  -2.111382 -1.477077  3.355018
      ESP Fit Center  710 is at  -1.602720 -0.968415  3.355018
      ESP Fit Center  711 is at  -0.788709 -0.273570  3.019437
      ESP Fit Center  712 is at  -0.924947  0.455242  3.019437
      ESP Fit Center  713 is at  -1.315263  1.085624  3.019437
      ESP Fit Center  714 is at  -1.906942  1.532439  3.019437
      ESP Fit Center  715 is at  -2.620074  1.735342  3.019437
[...]
 2623 Fit       0.011458
 2624 Fit      -0.004459
 2625 Fit       0.007508
 2626 Fit       0.006894
 2627 Fit      -0.001871
 2628 Fit      -0.006214
 2629 Fit       0.003511
 2630 Fit       0.002828
 2631 Fit       0.001176
 2632 Fit      -0.003779
 2633 Fit      -0.007501
 2634 Fit      -0.000272
 2635 Fit      -0.000125
 2636 Fit      -0.001200
 2637 Fit      -0.005076
 2638 Fit      -0.007839
 2639 Fit      -0.007446
 2640 Fit      -0.005396
 2641 Fit      -0.003744
 2642 Fit      -0.003200
 2643 Fit      -0.005650
 2644 Fit       0.002743
 2645 Fit       0.014292
 2646 Fit       0.014299
 2647 Fit       0.002751
 2648 Fit      -0.004362
 2649 Fit      -0.003976
 2650 Fit      -0.005420
 2651 Fit      -0.003663
 2652 Fit      -0.003950
 2653 Fit      -0.005392
 2654 Fit      -0.003642
 2655 Fit      -0.004338
 2656 Fit      -0.002830
 2657 Fit      -0.002235
 2658 Fit      -0.000694
 2659 Fit      -0.003753
 2660 Fit      -0.003732
 2661 Fit      -0.001491
 2662 Fit       0.001135
 2663 Fit       0.002200
 2664 Fit      -0.004559
 2665 Fit      -0.000450
 2666 Fit       0.003472
 2667 Fit       0.005307
 2668 Fit       0.008872
 2669 Fit       0.008902
 2670 Fit      -0.000422
 2671 Fit       0.003503
 2672 Fit       0.005339
 2673 Fit      -0.001461
 2674 Fit       0.001166
 2675 Fit       0.002229
 2676 Fit      -0.004531
 2677 Fit      -0.002204
 2678 Fit      -0.000664
 2679 Fit      -0.003724
 2680 Fit      -0.003701
 2681 Fit      -0.002800
 2682 Fit       0.001282
 2683 Fit       0.002457
 2684 Fit       0.004122
 2685 Fit       0.004495
 2686 Fit       0.006369
 2687 Fit       0.006629
 2688 Fit       0.006231
 2689 Fit       0.005538
 2690 Fit       0.009639
 2691 Fit       0.006652
 2692 Fit       0.005527
 2693 Fit       0.006242
 2694 Fit       0.004843
 2695 Fit       0.007591
 2696 Fit       0.005976
 2697 Fit       0.004307
 2698 Fit       0.002200
 2699 Fit       0.006574
 2700 Fit       0.004906
 2701 Fit       0.002938
 2702 Fit       0.000255
 2703 Fit      -0.003667
 2704 Fit       0.007597
 2705 Fit       0.005979
 2706 Fit       0.004309
 2707 Fit       0.002203
 2708 Fit       0.006248
 2709 Fit       0.004846
 2710 Fit       0.009664
 2711 Fit       0.006664
 2712 Fit       0.005531
 2713 Fit       0.006394
 2714 Fit       0.006652
 2715 Fit       0.006249
 2716 Fit       0.005547
 2717 Fit       0.002483
 2718 Fit       0.004142
 2719 Fit       0.004508
 2720 Fit       0.001303
 2721 Fit      -0.006309
 2722 Fit      -0.006079
 2723 Fit      -0.006763
 2724 Fit      -0.006879
 2725 Fit      -0.006416
 2726 Fit      -0.005804
 2727 Fit      -0.005562
 2728 Fit      -0.005750
 2729 Fit      -0.006561
 2730 Fit      -0.007160
 2731 Fit      -0.007412
 2732 Fit      -0.007300
 2733 Fit      -0.006908
 2734 Fit      -0.006383
 2735 Fit      -0.005826
 2736 Fit      -0.005252
 2737 Fit      -0.004748
 2738 Fit      -0.004590
 2739 Fit      -0.004984
 2740 Fit      -0.005350
 2741 Fit      -0.006224
 2742 Fit      -0.006968
 2743 Fit      -0.007481
 2744 Fit      -0.007761
 2745 Fit      -0.007801
 2746 Fit      -0.007597
 2747 Fit      -0.007204
 2748 Fit      -0.006714
 2749 Fit      -0.006213
 2750 Fit      -0.005729
 2751 Fit      -0.005232
 2752 Fit      -0.004665
 2753 Fit      -0.004037
 2754 Fit      -0.003498
 2755 Fit      -0.003320
 2756 Fit      -0.003684
 2757 Fit      -0.004455
 2758 Fit      -0.004874
 2759 Fit      -0.005776
 2760 Fit      -0.006623
 2761 Fit      -0.007250
 2762 Fit      -0.007657
 2763 Fit      -0.007945
 2764 Fit      -0.008095
 2765 Fit      -0.008045
 2766 Fit      -0.007792
 2767 Fit      -0.007385
 2768 Fit      -0.006894
 2769 Fit      -0.006390
 2770 Fit      -0.005923
 2771 Fit      -0.005502
 2772 Fit      -0.005094
 2773 Fit      -0.004637
 2774 Fit      -0.004063
 2775 Fit      -0.003346
 2776 Fit      -0.002553
 2777 Fit      -0.001881
 2778 Fit      -0.001624
 2779 Fit      -0.001997
 2780 Fit      -0.002894
 2781 Fit      -0.003933
 2782 Fit      -0.004247
 2783 Fit      -0.005113
 2784 Fit      -0.006128
 2785 Fit      -0.006898
 2786 Fit      -0.007244
 2787 Fit      -0.007519
 2788 Fit      -0.007894
 2789 Fit      -0.008193
 2790 Fit      -0.008274
 2791 Fit      -0.008121
 2792 Fit      -0.007776
 2793 Fit      -0.007305
 2794 Fit      -0.006773
 2795 Fit      -0.006243
 2796 Fit      -0.005761
 2797 Fit      -0.005348
 2798 Fit      -0.004989
 2799 Fit      -0.004642
 2800 Fit      -0.004235
 2801 Fit      -0.003692
 2802 Fit      -0.002950
 2803 Fit      -0.001996
 2804 Fit      -0.000907
 2805 Fit       0.000102
 2806 Fit       0.000678
 2807 Fit       0.000457
 2808 Fit      -0.000637
 2809 Fit      -0.002144
 2810 Fit      -0.003391
 2811 Fit      -0.006339
 2812 Fit      -0.006617
 2813 Fit      -0.007509
 2814 Fit      -0.008136
 2815 Fit      -0.008370
 2816 Fit      -0.008285
 2817 Fit      -0.007969
 2818 Fit      -0.007498
 2819 Fit      -0.006941
 2820 Fit      -0.006362
 2821 Fit      -0.005814
 2822 Fit      -0.005334
 2823 Fit      -0.004939
 2824 Fit      -0.004615
 2825 Fit      -0.004322
 2826 Fit      -0.003996
 2827 Fit      -0.003554
 2828 Fit      -0.002911
 2829 Fit      -0.001993
 2830 Fit      -0.000766
 2831 Fit       0.000730
 2832 Fit       0.002315
 2833 Fit       0.003609
 2834 Fit       0.004042
 2835 Fit       0.003101
 2836 Fit       0.000857
 2837 Fit      -0.006780
 2838 Fit      -0.007950
 2839 Fit      -0.008390
 2840 Fit      -0.008395
 2841 Fit      -0.008126
 2842 Fit      -0.007678
 2843 Fit      -0.007122
 2844 Fit      -0.006519
 2845 Fit      -0.005922
 2846 Fit      -0.005375
 2847 Fit      -0.004910
 2848 Fit      -0.004536
 2849 Fit      -0.004243
 2850 Fit      -0.003996
 2851 Fit      -0.003741
 2852 Fit      -0.003402
 2853 Fit      -0.002895
 2854 Fit      -0.002128
 2855 Fit      -0.001018
 2856 Fit       0.000502
 2857 Fit       0.002447
 2858 Fit       0.004724
 2859 Fit       0.007034
 2860 Fit       0.008751
 2861 Fit      -0.006623
 2862 Fit      -0.007987
 2863 Fit      -0.008442
 2864 Fit      -0.008428
 2865 Fit      -0.008138
 2866 Fit      -0.007670
 2867 Fit      -0.007094
 2868 Fit      -0.006468
 2869 Fit      -0.005843
 2870 Fit      -0.005262
 2871 Fit      -0.004758
 2872 Fit      -0.004349
 2873 Fit      -0.004036
 2874 Fit      -0.003797
 2875 Fit      -0.003592
 2876 Fit      -0.003363
 2877 Fit      -0.003033
 2878 Fit      -0.002515
 2879 Fit      -0.001713
 2880 Fit      -0.000525
 2881 Fit       0.001155
 2882 Fit       0.003419
 2883 Fit       0.006322
 2884 Fit       0.009792
 2885 Fit       0.013460
 2886 Fit      -0.007681
 2887 Fit      -0.008393
 2888 Fit      -0.008503
 2889 Fit      -0.008273
 2890 Fit      -0.007829
 2891 Fit      -0.007252
 2892 Fit      -0.006603
 2893 Fit      -0.005938
 2894 Fit      -0.005304
 2895 Fit      -0.004741
 2896 Fit      -0.004275
 2897 Fit      -0.003915
 2898 Fit      -0.003651
 2899 Fit      -0.003452
 2900 Fit      -0.003267
 2901 Fit      -0.003025
 2902 Fit      -0.002643
 2903 Fit      -0.002018
 2904 Fit      -0.001038
 2905 Fit       0.000425
 2906 Fit       0.002522
 2907 Fit       0.005426
 2908 Fit       0.009320
 2909 Fit       0.014328
 2910 Fit      -0.007388
 2911 Fit      -0.008300
 2912 Fit      -0.008536
 2913 Fit      -0.008385
 2914 Fit      -0.007992
 2915 Fit      -0.007444
 2916 Fit      -0.006804
 2917 Fit      -0.006130
 2918 Fit      -0.005469
 2919 Fit      -0.004865
 2920 Fit      -0.004350
 2921 Fit      -0.003941
 2922 Fit      -0.003636
 2923 Fit      -0.003418
 2924 Fit      -0.003245
 2925 Fit      -0.003060
 2926 Fit      -0.002786
 2927 Fit      -0.002332
 2928 Fit      -0.001591
 2929 Fit      -0.000441
 2930 Fit       0.001266
 2931 Fit       0.003712
 2932 Fit       0.007138
 2933 Fit       0.011844
 2934 Fit      -0.007385
 2935 Fit      -0.008299
 2936 Fit      -0.008535
 2937 Fit      -0.008384
 2938 Fit      -0.007991
 2939 Fit      -0.007443
 2940 Fit      -0.006804
 2941 Fit      -0.006129
 2942 Fit      -0.005469
 2943 Fit      -0.004865
 2944 Fit      -0.004350
 2945 Fit      -0.003940
 2946 Fit      -0.003636
 2947 Fit      -0.003418
 2948 Fit      -0.003245
 2949 Fit      -0.003059
 2950 Fit      -0.002785
 2951 Fit      -0.002331
 2952 Fit      -0.001591
 2953 Fit      -0.000441
 2954 Fit       0.001266
 2955 Fit       0.003713
 2956 Fit       0.007138
 2957 Fit       0.011845
 2958 Fit      -0.007673
 2959 Fit      -0.008389
 2960 Fit      -0.008500
 2961 Fit      -0.008270
 2962 Fit      -0.007827
 2963 Fit      -0.007251
 2964 Fit      -0.006602
 2965 Fit      -0.005937
 2966 Fit      -0.005304
 2967 Fit      -0.004741
 2968 Fit      -0.004275
 2969 Fit      -0.003915
 2970 Fit      -0.003651
 2971 Fit      -0.003452
 2972 Fit      -0.003266
 2973 Fit      -0.003025
 2974 Fit      -0.002642
 2975 Fit      -0.002017
 2976 Fit      -0.001038
 2977 Fit       0.000426
 2978 Fit       0.002523
 2979 Fit       0.005427
 2980 Fit       0.009321
 2981 Fit       0.014331
 2982 Fit      -0.006607
 2983 Fit      -0.007978
 2984 Fit      -0.008436
 2985 Fit      -0.008424
 2986 Fit      -0.008135
 2987 Fit      -0.007668
 2988 Fit      -0.007093
 2989 Fit      -0.006467
 2990 Fit      -0.005842
 2991 Fit      -0.005261
 2992 Fit      -0.004757
 2993 Fit      -0.004349
 2994 Fit      -0.004035
 2995 Fit      -0.003796
 2996 Fit      -0.003591
 2997 Fit      -0.003362
 2998 Fit      -0.003032
 2999 Fit      -0.002514
 3000 Fit      -0.001712
 3001 Fit      -0.000524
 3002 Fit       0.001156
 3003 Fit       0.003421
 3004 Fit       0.006324
 3005 Fit       0.009795
 3006 Fit       0.013465
 3007 Fit      -0.006763
 3008 Fit      -0.007939
 3009 Fit      -0.008383
 3010 Fit      -0.008390
 3011 Fit      -0.008122
 3012 Fit      -0.007675
 3013 Fit      -0.007120
 3014 Fit      -0.006517
 3015 Fit      -0.005920
 3016 Fit      -0.005374
 3017 Fit      -0.004908
 3018 Fit      -0.004534
 3019 Fit      -0.004241
 3020 Fit      -0.003995
 3021 Fit      -0.003739
 3022 Fit      -0.003401
 3023 Fit      -0.002893
 3024 Fit      -0.002127
 3025 Fit      -0.001016
 3026 Fit       0.000504
 3027 Fit       0.002449
 3028 Fit       0.004727
 3029 Fit       0.007038
 3030 Fit       0.008756
 3031 Fit      -0.006312
 3032 Fit      -0.006597
 3033 Fit      -0.007494
 3034 Fit      -0.008125
 3035 Fit      -0.008363
 3036 Fit      -0.008279
 3037 Fit      -0.007964
 3038 Fit      -0.007495
 3039 Fit      -0.006939
 3040 Fit      -0.006360
 3041 Fit      -0.005812
 3042 Fit      -0.005332
 3043 Fit      -0.004937
 3044 Fit      -0.004613
 3045 Fit      -0.004321
 3046 Fit      -0.003994
 3047 Fit      -0.003552
 3048 Fit      -0.002909
 3049 Fit      -0.001991
 3050 Fit      -0.000763
 3051 Fit       0.000733
 3052 Fit       0.002319
 3053 Fit       0.003613
 3054 Fit       0.004048
 3055 Fit       0.003108
 3056 Fit       0.000865
 3057 Fit      -0.004234
 3058 Fit      -0.005097
 3059 Fit      -0.006110
 3060 Fit      -0.006879
 3061 Fit      -0.007225
 3062 Fit      -0.007503
 3063 Fit      -0.007881
 3064 Fit      -0.008184
 3065 Fit      -0.008267
 3066 Fit      -0.008115
 3067 Fit      -0.007772
 3068 Fit      -0.007301
 3069 Fit      -0.006770
 3070 Fit      -0.006241
 3071 Fit      -0.005759
 3072 Fit      -0.005346
 3073 Fit      -0.004987
 3074 Fit      -0.004640
 3075 Fit      -0.004233
 3076 Fit      -0.003690
 3077 Fit      -0.002948
 3078 Fit      -0.001993
 3079 Fit      -0.000904
 3080 Fit       0.000106
 3081 Fit       0.000683
 3082 Fit       0.000462
 3083 Fit      -0.000630
 3084 Fit      -0.002136
 3085 Fit      -0.003380
 3086 Fit      -0.004864
 3087 Fit      -0.005763
 3088 Fit      -0.006610
 3089 Fit      -0.007237
 3090 Fit      -0.007645
 3091 Fit      -0.007935
 3092 Fit      -0.008086
 3093 Fit      -0.008039
 3094 Fit      -0.007787
 3095 Fit      -0.007381
 3096 Fit      -0.006891
 3097 Fit      -0.006387
 3098 Fit      -0.005920
 3099 Fit      -0.005499
 3100 Fit      -0.005092
 3101 Fit      -0.004635
 3102 Fit      -0.004061
 3103 Fit      -0.003343
 3104 Fit      -0.002549
 3105 Fit      -0.001877
 3106 Fit      -0.001619
 3107 Fit      -0.001991
 3108 Fit      -0.002887
 3109 Fit      -0.003924
 3110 Fit      -0.005341
 3111 Fit      -0.006214
 3112 Fit      -0.006957
 3113 Fit      -0.007472
 3114 Fit      -0.007753
 3115 Fit      -0.007794
 3116 Fit      -0.007592
 3117 Fit      -0.007200
 3118 Fit      -0.006711
 3119 Fit      -0.006210
 3120 Fit      -0.005727
 3121 Fit      -0.005229
 3122 Fit      -0.004662
 3123 Fit      -0.004034
 3124 Fit      -0.003494
 3125 Fit      -0.003315
 3126 Fit      -0.003678
 3127 Fit      -0.004448
 3128 Fit      -0.005743
 3129 Fit      -0.006553
 3130 Fit      -0.007152
 3131 Fit      -0.007406
 3132 Fit      -0.007295
 3133 Fit      -0.006903
 3134 Fit      -0.006380
 3135 Fit      -0.005822
 3136 Fit      -0.005248
 3137 Fit      -0.004744
 3138 Fit      -0.004585
 3139 Fit      -0.004977
 3140 Fit      -0.006072
 3141 Fit      -0.006757
 3142 Fit      -0.006874
 3143 Fit      -0.006412
 3144 Fit      -0.005799
 3145 Fit      -0.005556
 3146 Fit      -0.006304
 3147 Fit      -0.000285
 3148 Fit       0.000763
 3149 Fit       0.001854
 3150 Fit       0.000773
 3151 Fit      -0.001784
 3152 Fit      -0.003169
 3153 Fit      -0.001623
 3154 Fit       0.003439
 3155 Fit       0.003615
 3156 Fit       0.002715
 3157 Fit       0.000804
 3158 Fit      -0.002165
 3159 Fit      -0.005635
 3160 Fit      -0.006217
 3161 Fit       0.004271
 3162 Fit       0.002762
 3163 Fit       0.000564
 3164 Fit      -0.002568
 3165 Fit       0.003838
 3166 Fit       0.001773
 3167 Fit      -0.001007
 3168 Fit      -0.004850
 3169 Fit       0.002906
 3170 Fit      -0.000023
 3171 Fit      -0.004035
 3172 Fit      -0.004714
 3173 Fit       0.008449
 3174 Fit       0.007809
 3175 Fit       0.011449
 3176 Fit       0.010344
 3177 Fit       0.009522
 3178 Fit       0.008750
 3179 Fit       0.007948
 3180 Fit       0.014052
 3181 Fit       0.011991
 3182 Fit       0.010853
 3183 Fit       0.010027
 3184 Fit       0.009258
 3185 Fit       0.008476
 3186 Fit       0.007737
 3187 Fit       0.015659
 3188 Fit       0.012866
 3189 Fit       0.011482
 3190 Fit       0.010567
 3191 Fit       0.009764
 3192 Fit       0.008958
 3193 Fit       0.008165
 3194 Fit       0.015655
 3195 Fit       0.012866
 3196 Fit       0.011482
 3197 Fit       0.010568
 3198 Fit       0.009766
 3199 Fit       0.008959
 3200 Fit       0.008165
 3201 Fit       0.014043
 3202 Fit       0.011990
 3203 Fit       0.010855
 3204 Fit       0.010030
 3205 Fit       0.009261
 3206 Fit       0.008479
 3207 Fit       0.007738
 3208 Fit       0.011444
 3209 Fit       0.010346
 3210 Fit       0.009527
 3211 Fit       0.008755
 3212 Fit       0.007951
 3213 Fit       0.008454
 3214 Fit       0.007814
 3215 Fit      -0.004730
 3216 Fit       0.002904
 3217 Fit      -0.000029
 3218 Fit      -0.004044
 3219 Fit       0.003840
 3220 Fit       0.001772
 3221 Fit      -0.001011
 3222 Fit      -0.004855
 3223 Fit       0.004277
 3224 Fit       0.002764
 3225 Fit       0.000564
 3226 Fit      -0.002570
 3227 Fit       0.003451
 3228 Fit       0.003623
 3229 Fit       0.002719
 3230 Fit       0.000806
 3231 Fit      -0.002165
 3232 Fit      -0.005635
 3233 Fit      -0.006209
 3234 Fit       0.000773
 3235 Fit       0.001861
 3236 Fit       0.000777
 3237 Fit      -0.001781
 3238 Fit      -0.003164
 3239 Fit      -0.001612
 3240 Fit      -0.000278
 3241 Fit       0.000057
 3242 Fit      -0.000032
 3243 Fit       0.006700
 3244 Fit       0.010545
 3245 Fit      -0.000415
 3246 Fit       0.007054
 3247 Fit       0.011660
 3248 Fit       0.014862
 3249 Fit      -0.000717
 3250 Fit       0.007468
 3251 Fit       0.012495
 3252 Fit       0.016192
 3253 Fit      -0.000714
 3254 Fit       0.007471
 3255 Fit       0.012499
 3256 Fit       0.016199
 3257 Fit      -0.000406
 3258 Fit       0.007064
 3259 Fit       0.011672
 3260 Fit       0.014880
 3261 Fit      -0.000016
 3262 Fit       0.006718
 3263 Fit       0.010567
 3264 Fit       0.000080
 3265 Fit       0.001946
 3266 Fit       0.004549
 3267 Fit       0.003762
 3268 Fit      -0.000104
 3269 Fit       0.008725
 3270 Fit       0.007742
 3271 Fit       0.006214
 3272 Fit       0.004992
 3273 Fit       0.001645
 3274 Fit      -0.003464
 3275 Fit       0.011262
 3276 Fit       0.010042
 3277 Fit       0.008838
 3278 Fit       0.007262
 3279 Fit       0.005615
 3280 Fit       0.002284
 3281 Fit      -0.002825
 3282 Fit       0.014374
 3283 Fit       0.012155
 3284 Fit       0.010778
 3285 Fit       0.009500
 3286 Fit       0.007889
 3287 Fit       0.005615
 3288 Fit       0.002284
 3289 Fit      -0.002824
 3290 Fit       0.014376
 3291 Fit       0.012155
 3292 Fit       0.010779
 3293 Fit       0.009500
 3294 Fit       0.007890
 3295 Fit       0.004994
 3296 Fit       0.001648
 3297 Fit      -0.003461
 3298 Fit       0.011265
 3299 Fit       0.010044
 3300 Fit       0.008840
 3301 Fit       0.007264
 3302 Fit       0.003765
 3303 Fit      -0.000100
 3304 Fit       0.008729
 3305 Fit       0.007746
 3306 Fit       0.006217
 3307 Fit       0.001950
 3308 Fit       0.004553
 3309 Fit       0.013349
 3310 Fit       0.012623
 3311 Fit       0.016877
 3312 Fit       0.015833
 3313 Fit       0.014853
 3314 Fit       0.013709
 3315 Fit       0.020798
 3316 Fit       0.018642
 3317 Fit       0.017422
 3318 Fit       0.016502
 3319 Fit       0.015638
 3320 Fit       0.014830
 3321 Fit       0.021401
 3322 Fit       0.019201
 3323 Fit       0.017996
 3324 Fit       0.017105
 3325 Fit       0.016332
 3326 Fit       0.015781
 3327 Fit       0.021401
 3328 Fit       0.019202
 3329 Fit       0.017997
 3330 Fit       0.017105
 3331 Fit       0.016332
 3332 Fit       0.015782
 3333 Fit       0.020798
 3334 Fit       0.018643
 3335 Fit       0.017423
 3336 Fit       0.016504
 3337 Fit       0.015639
 3338 Fit       0.014832
 3339 Fit       0.016879
 3340 Fit       0.015835
 3341 Fit       0.014856
 3342 Fit       0.013712
 3343 Fit       0.013352
 3344 Fit       0.012627
 3345 Fit       0.017737
 3346 Fit       0.017475
 3347 Fit       0.020141
 3348 Fit       0.020142
 3349 Fit       0.017477
 3350 Fit       0.017743
 -----------------------------------------------------------------
 Leave Link  602 at Thu Jan 16 22:37:21 2014, MaxMem=   235929600 cpu:         1.2

 Test job not archived.
 1\1\GINC-G54\SP\RHF\Gen\C7H7Br1N4\KOLAR\16-Jan-2014\0\\# hf/gen pop=mk
  iop(6/33=2,6/41=5,6/42=2)\\na resp\\0,1\N,0,-3.13141,-0.28316,-0.0001
 07\C,0,-1.808918,-0.144181,-0.000014\N,0,-1.152951,-1.364222,-0.000019
 \C,0,-2.134253,-2.32677,0.000151\C,0,-3.331744,-1.631263,0.000023\C,0,
 0.234541,-1.433121,-0.00002\C,0,0.888558,-0.236267,-0.000012\N,0,0.321
 898,0.985366,-0.000003\C,0,-1.004166,1.043973,0.000005\N,0,-1.638395,2
 .236391,-0.000324\C,0,-0.937389,3.50618,0.000211\Br,0,2.806227,-0.2735
 7,-0.000008\H,0,-0.30082,3.605588,-0.886102\H,0,-1.677227,4.309273,0.0
 01973\H,0,-0.298748,3.603492,0.885236\H,0,-2.647926,2.203988,-0.000053
 \H,0,-4.328458,-2.05269,0.000044\H,0,-1.901538,-3.380569,0.000305\H,0,
 0.703017,-2.406081,-0.000006\\Version=AM64L-G09RevD.01\State=1-A\HF=-3
 056.5156894\RMSD=5.773e-09\Dipole=-0.7427427,-0.402307,0.0007207\Quadr
 upole=-5.1613965,10.2321849,-5.0707885,-0.8987634,-0.0023205,0.002459\
 PG=C01 [X(C7H7Br1N4)]\\@


 "WOULD YOU TELL ME PLEASE, WHICH WAY I OUGHT TO WALK FROM HERE?"
 "THAT DEPENDS A GREAT DEAL ON WHERE YOU WANT TO GO," SAID THE CAT.
 "I DON'T MUCH CARE WHERE -- ", SAID ALICE.
 "THEN IT DOESN'T MATTER WHICH WAY YOU WALK," SAID THE CAT.

                                      -- LEWIS CARROLL
 Job cpu time:       0 days  0 hours  0 minutes 34.9 seconds.
 File lengths (MBytes):  RWF=     16 Int=      0 D2E=      0 Chk=      2 Scr=      1
 Normal termination of Gaussian 09 at Thu Jan 16 22:37:22 2014.
34.03user 0.92system 0:35.84elapsed 97%CPU (0avgtext+0avgdata 6160320maxresident)k
8inputs+37312outputs (0major+539476minor)pagefaults 0swaps
