Linux g30 2.6.38.6-client #1 SMP Tue Jun 12 11:27:21 CEST 2012 x86_64 GNU/Linux
Thu Jan 16 21:46:46 CET 2014

 Entering Gaussian System, Link 0=/usr/local/programs/common/gaussian/gaussian09_d01/arch/amd64-pgi_10.4.0-acml/g09/g09
 Initial command:
 /usr/local/programs/common/gaussian/gaussian09_d01/arch/amd64-pgi_10.4.0-acml/g09/l1.exe "/scratch/kolar/g09_17287/Gau-2980.inp" -scrdir="/scratch/kolar/g09_17287/"
 Entering Link 1 = /usr/local/programs/common/gaussian/gaussian09_d01/arch/amd64-pgi_10.4.0-acml/g09/l1.exe PID=      2982.
  
 Copyright (c) 1988,1990,1992,1993,1995,1998,2003,2009,2013,
            Gaussian, Inc.  All Rights Reserved.
  
 This is part of the Gaussian(R) 09 program.  It is based on
 the Gaussian(R) 03 system (copyright 2003, Gaussian, Inc.),
 the Gaussian(R) 98 system (copyright 1998, Gaussian, Inc.),
 the Gaussian(R) 94 system (copyright 1995, Gaussian, Inc.),
 the Gaussian 92(TM) system (copyright 1992, Gaussian, Inc.),
 the Gaussian 90(TM) system (copyright 1990, Gaussian, Inc.),
 the Gaussian 88(TM) system (copyright 1988, Gaussian, Inc.),
 the Gaussian 86(TM) system (copyright 1986, Carnegie Mellon
 University), and the Gaussian 82(TM) system (copyright 1983,
 Carnegie Mellon University). Gaussian is a federally registered
 trademark of Gaussian, Inc.
  
 This software contains proprietary and confidential information,
 including trade secrets, belonging to Gaussian, Inc.
  
 This software is provided under written license and may be
 used, copied, transmitted, or stored only in accord with that
 written license.
  
 The following legend is applicable only to US Government
 contracts under FAR:
  
                    RESTRICTED RIGHTS LEGEND
  
 Use, reproduction and disclosure by the US Government is
 subject to restrictions as set forth in subparagraphs (a)
 and (c) of the Commercial Computer Software - Restricted
 Rights clause in FAR 52.227-19.
  
 Gaussian, Inc.
 340 Quinnipiac St., Bldg. 40, Wallingford CT 06492
  
  
 ---------------------------------------------------------------
 Warning -- This program may not be used in any manner that
 competes with the business of Gaussian, Inc. or will provide
 assistance to any competitor of Gaussian, Inc.  The licensee
 of this program is prohibited from giving any competitor of
 Gaussian, Inc. access to this program.  By using this program,
 the user acknowledges that Gaussian, Inc. is engaged in the
 business of creating and licensing software in the field of
 computational chemistry and represents and warrants to the
 licensee that it is not a competitor of Gaussian, Inc. and that
 it will not use this program in any manner prohibited above.
 ---------------------------------------------------------------
  

 Cite this work as:
 Gaussian 09, Revision D.01,
 M. J. Frisch, G. W. Trucks, H. B. Schlegel, G. E. Scuseria, 
 M. A. Robb, J. R. Cheeseman, G. Scalmani, V. Barone, B. Mennucci, 
 G. A. Petersson, H. Nakatsuji, M. Caricato, X. Li, H. P. Hratchian, 
 A. F. Izmaylov, J. Bloino, G. Zheng, J. L. Sonnenberg, M. Hada, 
 M. Ehara, K. Toyota, R. Fukuda, J. Hasegawa, M. Ishida, T. Nakajima, 
 Y. Honda, O. Kitao, H. Nakai, T. Vreven, J. A. Montgomery, Jr., 
 J. E. Peralta, F. Ogliaro, M. Bearpark, J. J. Heyd, E. Brothers, 
 K. N. Kudin, V. N. Staroverov, T. Keith, R. Kobayashi, J. Normand, 
 K. Raghavachari, A. Rendell, J. C. Burant, S. S. Iyengar, J. Tomasi, 
 M. Cossi, N. Rega, J. M. Millam, M. Klene, J. E. Knox, J. B. Cross, 
 V. Bakken, C. Adamo, J. Jaramillo, R. Gomperts, R. E. Stratmann, 
 O. Yazyev, A. J. Austin, R. Cammi, C. Pomelli, J. W. Ochterski, 
 R. L. Martin, K. Morokuma, V. G. Zakrzewski, G. A. Voth, 
 P. Salvador, J. J. Dannenberg, S. Dapprich, A. D. Daniels, 
 O. Farkas, J. B. Foresman, J. V. Ortiz, J. Cioslowski, 
 and D. J. Fox, Gaussian, Inc., Wallingford CT, 2013.
 
 ******************************************
 Gaussian 09:  AM64L-G09RevD.01 24-Apr-2013
                16-Jan-2014 
 ******************************************
 %mem=1800mb
 -----------------------------------------
 # hf/gen pop=mk iop(6/33=2,6/41=5,6/42=2)
 -----------------------------------------
 1/38=1/1;
 2/12=2,17=6,18=5,40=1/2;
 3/5=7,11=9,16=1,25=1,30=1/1,2,3;
 4//1;
 5/5=2,38=5/2;
 6/7=2,8=2,9=2,10=2,15=8,20=1,28=1,33=2,41=5,42=2/1,2;
 99/5=1,9=1/99;
 -------
 na resp
 -------
 Symbolic Z-matrix:
 Charge =  0 Multiplicity = 1
 6                    -1.05237   0.07615   1.31257 
 6                    -2.43993  -0.06186   1.26035 
 6                    -3.07006  -0.10006   0.01874 
 6                    -2.33256  -0.00667  -1.16094 
 6                    -0.94725   0.1296   -1.08704 
 6                    -0.28264   0.17391   0.14737 
 6                     1.22748   0.35341   0.22614 
 1                     1.51525   0.22325   1.27853 
 6                     1.9815   -0.7147   -0.62505 
 6                     3.31488  -1.21966  -0.05535 
 8                     4.25166  -0.29385   0.19382 
 8                     3.51673  -2.39689   0.14447 
 6                     1.57768   1.80535  -0.17711 
 7                     3.00339   2.11521   0.05089 
 17                   -4.81815  -0.27284  -0.06359 
 1                    -0.56225   0.10026   2.28303 
 1                    -3.02366  -0.1427    2.17117 
 1                    -2.83544  -0.04323  -2.12155 
 1                    -0.38036   0.19244  -2.01254 
 1                     1.35805  -1.60335  -0.73466 
 1                     2.16529  -0.31964  -1.6346 
 1                     1.37678   1.93231  -1.24692 
 1                     0.91324   2.49902   0.35708 
 1                     3.15827   2.36263   1.02788 
 1                     3.90003   0.62297  -0.00653 
 1                     3.29219   2.92091  -0.5003 
 
                          Input orientation:                          
 ---------------------------------------------------------------------
 Center     Atomic      Atomic             Coordinates (Angstroms)
 Number     Number       Type             X           Y           Z
 ---------------------------------------------------------------------
      1          6           0       -1.052373    0.076149    1.312570
      2          6           0       -2.439931   -0.061861    1.260347
      3          6           0       -3.070063   -0.100063    0.018735
      4          6           0       -2.332557   -0.006667   -1.160937
      5          6           0       -0.947252    0.129604   -1.087036
      6          6           0       -0.282636    0.173909    0.147372
      7          6           0        1.227475    0.353409    0.226141
      8          1           0        1.515245    0.223248    1.278531
      9          6           0        1.981500   -0.714695   -0.625052
     10          6           0        3.314878   -1.219658   -0.055354
     11          8           0        4.251658   -0.293848    0.193817
     12          8           0        3.516731   -2.396886    0.144466
     13          6           0        1.577682    1.805351   -0.177112
     14          7           0        3.003387    2.115213    0.050887
     15         17           0       -4.818150   -0.272844   -0.063594
     16          1           0       -0.562252    0.100255    2.283035
     17          1           0       -3.023662   -0.142700    2.171171
     18          1           0       -2.835435   -0.043231   -2.121554
     19          1           0       -0.380357    0.192435   -2.012539
     20          1           0        1.358046   -1.603347   -0.734664
     21          1           0        2.165289   -0.319644   -1.634595
     22          1           0        1.376784    1.932305   -1.246923
     23          1           0        0.913239    2.499019    0.357077
     24          1           0        3.158270    2.362630    1.027885
     25          1           0        3.900028    0.622967   -0.006532
     26          1           0        3.292194    2.920910   -0.500304
 ---------------------------------------------------------------------
                    Distance matrix (angstroms):
                    1          2          3          4          5
     1  C    0.000000
     2  C    1.395382   0.000000
     3  C    2.403359   1.392884   0.000000
     4  C    2.786389   2.424292   1.394369   0.000000
     5  C    2.402502   2.788361   2.404538   1.393952   0.000000
     6  C    1.399907   2.438898   2.803811   2.438536   1.402655
     7  C    2.540651   3.833001   4.326371   3.837638   2.550286
     8  H    2.572053   3.965480   4.766200   4.561737   3.415929
     9  C    3.685675   4.850770   5.129378   4.404494   3.082833
    10  C    4.756387   6.015762   6.482781   5.881087   4.588096
    11  O    5.433346   6.780020   7.326377   6.728278   5.371086
    12  O    5.325137   6.494563   6.976895   6.452239   5.275120
    13  C    3.482310   4.657680   5.026976   4.420553   3.164077
    14  N    4.711562   5.985997   6.464927   5.868832   4.565639
    15  Cl   4.024512   2.730066   1.758533   2.730052   4.024084
    16  H    1.087475   2.144260   3.384715   3.873804   3.392118
    17  H    2.161266   1.084840   2.153358   3.405741   3.873182
    18  H    3.871275   3.405000   2.153861   1.084900   2.159939
    19  H    3.394330   3.875344   3.383216   2.139148   1.087140
    20  H    3.580781   4.558605   4.736626   4.043717   2.905458
    21  H    4.381299   5.445658   5.494600   4.533533   3.192108
    22  H    3.987120   4.983013   5.050431   4.186432   2.945579
    23  H    3.262958   4.314829   4.768270   4.372416   3.340811
    24  H    4.799850   6.105084   6.773136   6.368178   5.129776
    25  H    5.154155   6.501465   7.007537   6.369789   4.990693
    26  H    5.500404   6.697318   7.062152   6.375341   5.109652
                    6          7          8          9         10
     6  C    0.000000
     7  C    1.522780   0.000000
     8  H    2.124696   1.098762   0.000000
     9  C    2.551973   1.560106   2.172731   0.000000
    10  C    3.863319   2.628884   2.664565   1.535396   0.000000
    11  O    4.558594   3.092842   2.988637   2.449750   1.340435
    12  O    4.587394   3.579314   3.486711   2.403926   1.211007
    13  C    2.495531   1.547060   2.150778   2.591206   3.490466
    14  N    3.817842   2.507694   2.702075   3.083752   3.351071
    15  Cl   4.562344   6.084876   6.493019   6.837083   8.187959
    16  H    2.155149   2.738252   2.310876   3.948644   4.716182
    17  H    3.421875   4.701216   4.640302   5.761743   6.803995
    18  H    3.422274   4.709165   5.528110   5.088541   6.593900
    19  H    2.162200   2.760928   3.798078   2.885546   4.413541
    20  H    2.574580   2.183824   2.722887   1.091060   2.106625
    21  H    3.067790   2.189711   3.033742   1.099555   2.150717
    22  H    2.791002   2.164515   3.052534   2.785501   3.887276
    23  H    2.623019   2.172448   2.527968   3.526148   4.445956
    24  H    4.172006   2.899609   2.709116   3.686044   3.745760
    25  H    4.209515   2.696171   2.738312   2.419226   1.933921
    26  H    4.554658   3.373848   3.687707   3.866666   4.164469
                   11         12         13         14         15
    11  O    0.000000
    12  O    2.228300   0.000000
    13  C    3.419704   4.639194   0.000000
    14  N    2.717018   4.542171   1.476697   0.000000
    15  Cl   9.073484   8.603783   6.725953   8.178775   0.000000
    16  H    5.262497   5.239016   3.679537   4.664367   4.874273
    17  H    7.540760   7.208719   5.521024   6.776363   2.869024
    18  H    7.459936   7.143147   5.164660   6.593195   2.866894
    19  H    5.153643   5.152140   3.131167   4.405057   4.869176
    20  H    3.309057   2.462213   3.460972   4.141488   6.353422
    21  H    2.774291   3.050637   2.642942   3.077627   7.158118
    22  H    3.911060   5.025657   1.095889   2.088924   6.681329
    23  H    4.355663   5.549167   1.099099   2.147039   6.380361
    24  H    2.991328   4.854062   2.064179   1.019671   8.471147
    25  H    1.002164   3.047824   2.611593   1.741855   8.764266
    26  H    3.425937   5.361446   2.070864   1.018022   8.727454
                   16         17         18         19         20
    16  H    0.000000
    17  H    2.475900   0.000000
    18  H    4.958664   4.298001   0.000000
    19  H    4.300411   4.960122   2.468771   0.000000
    20  H    3.961857   5.456806   4.684305   2.807106   0.000000
    21  H    4.792037   6.437420   5.031975   2.624001   1.763352
    22  H    4.424576   5.945834   4.733974   2.588602   3.572617
    23  H    3.411811   5.076298   5.163255   3.550887   4.268391
    24  H    4.531669   6.767574   7.185515   5.145465   4.698549
    25  H    5.042548   7.298364   7.091093   4.746695   3.456635
    26  H    5.528094   7.510827   6.997315   4.818616   4.925927
                   21         22         23         24         25
    21  H    0.000000
    22  H    2.417293   0.000000
    23  H    3.671409   1.763194   0.000000
    24  H    3.907609   2.921237   2.347073   0.000000
    25  H    2.558989   3.101563   3.545799   2.155609   0.000000
    26  H    3.613547   2.281135   2.563693   1.632475   2.427718
                   26
    26  H    0.000000
 Stoichiometry    C10H12ClNO2
 Framework group  C1[X(C10H12ClNO2)]
 Deg. of freedom    72
 Full point group                 C1      NOp   1
 Largest Abelian subgroup         C1      NOp   1
 Largest concise Abelian subgroup C1      NOp   1
                         Standard orientation:                         
 ---------------------------------------------------------------------
 Center     Atomic      Atomic             Coordinates (Angstroms)
 Number     Number       Type             X           Y           Z
 ---------------------------------------------------------------------
      1          6           0       -1.052373    0.076149    1.312570
      2          6           0       -2.439931   -0.061861    1.260347
      3          6           0       -3.070063   -0.100063    0.018735
      4          6           0       -2.332557   -0.006667   -1.160937
      5          6           0       -0.947252    0.129604   -1.087036
      6          6           0       -0.282636    0.173909    0.147372
      7          6           0        1.227475    0.353409    0.226141
      8          1           0        1.515245    0.223248    1.278531
      9          6           0        1.981500   -0.714695   -0.625052
     10          6           0        3.314878   -1.219658   -0.055354
     11          8           0        4.251658   -0.293848    0.193817
     12          8           0        3.516731   -2.396886    0.144466
     13          6           0        1.577682    1.805351   -0.177112
     14          7           0        3.003387    2.115213    0.050887
     15         17           0       -4.818150   -0.272844   -0.063594
     16          1           0       -0.562252    0.100255    2.283035
     17          1           0       -3.023662   -0.142700    2.171171
     18          1           0       -2.835435   -0.043231   -2.121554
     19          1           0       -0.380357    0.192435   -2.012539
     20          1           0        1.358046   -1.603347   -0.734664
     21          1           0        2.165289   -0.319644   -1.634595
     22          1           0        1.376784    1.932305   -1.246923
     23          1           0        0.913239    2.499019    0.357077
     24          1           0        3.158270    2.362630    1.027885
     25          1           0        3.900028    0.622967   -0.006532
     26          1           0        3.292194    2.920910   -0.500304
 ---------------------------------------------------------------------
 Rotational constants (GHZ):      1.4257976      0.2411866      0.2253664
 General basis read from cards:  (5D, 7F)
 There are   238 symmetry adapted cartesian basis functions of A   symmetry.
 There are   224 symmetry adapted basis functions of A   symmetry.
   224 basis functions,   464 primitive gaussians,   238 cartesian basis functions
    56 alpha electrons       56 beta electrons
       nuclear repulsion energy       941.8312427063 Hartrees.
 NAtoms=   26 NActive=   26 NUniq=   26 SFac= 1.00D+00 NAtFMM=   60 NAOKFM=F Big=F
 Integral buffers will be    131072 words long.
 Raffenetti 1 integral format.
 Two-electron integral symmetry is turned on.
 One-electron integrals computed using PRISM.
 NBasis=   224 RedAO= T EigKep=  4.52D-04  NBF=   224
 NBsUse=   224 1.00D-06 EigRej= -1.00D+00 NBFU=   224
 ExpMin= 1.43D-01 ExpMax= 2.52D+04 ExpMxC= 3.78D+03 IAcc=1 IRadAn=         1 AccDes= 0.00D+00
 Harris functional with IExCor=  205 and IRadAn=       1 diagonalized for initial guess.
 HarFok:  IExCor=  205 AccDes= 0.00D+00 IRadAn=         1 IDoV= 1 UseB2=F ITyADJ=14
 ICtDFT=  3500011 ScaDFX=  1.000000  1.000000  1.000000  1.000000
 FoFCou: FMM=F IPFlag=           0 FMFlag=      100000 FMFlg1=           0
         NFxFlg=           0 DoJE=T BraDBF=F KetDBF=T FulRan=T
         wScrn=  0.000000 ICntrl=     500 IOpCl=  0 I1Cent=   200000004 NGrid=           0
         NMat0=    1 NMatS0=      1 NMatT0=    0 NMatD0=    1 NMtDS0=    0 NMtDT0=    0
 Petite list used in FoFCou.
 Requested convergence on RMS density matrix=1.00D-08 within 128 cycles.
 Requested convergence on MAX density matrix=1.00D-06.
 Requested convergence on             energy=1.00D-06.
 No special actions if energy rises.
 Integral accuracy reduced to 1.0D-05 until final iterations.
 Initial convergence to 1.0D-05 achieved.  Increase integral accuracy.
 SCF Done:  E(RHF) =  -1049.32953143     A.U. after   16 cycles
            NFock= 16  Conv=0.39D-08     -V/T= 2.0006

 **********************************************************************

            Population analysis using the SCF density.

 **********************************************************************

 Orbital symmetries:
 BldTbl:  Degeneracy threshold= 1.00D-02
       Occupied  (A) (A) (A) (A) (A) (A) (A) (A) (A) (A) (A) (A)
                 (A) (A) (A) (A) (A) (A) (A) (A) (A) (A) (A) (A)
                 (A) (A) (A) (A) (A) (A) (A) (A) (A) (A) (A) (A)
                 (A) (A) (A) (A) (A) (A) (A) (A) (A) (A) (A) (A)
                 (A) (A) (A) (A) (A) (A) (A) (A)
       Virtual   (A) (A) (A) (A) (A) (A) (A) (A) (A) (A) (A) (A)
                 (A) (A) (A) (A) (A) (A) (A) (A) (A) (A) (A) (A)
                 (A) (A) (A) (A) (A) (A) (A) (A) (A) (A) (A) (A)
                 (A) (A) (A) (A) (A) (A) (A) (A) (A) (A) (A) (A)
                 (A) (A) (A) (A) (A) (A) (A) (A) (A) (A) (A) (A)
                 (A) (A) (A) (A) (A) (A) (A) (A) (A) (A) (A) (A)
                 (A) (A) (A) (A) (A) (A) (A) (A) (A) (A) (A) (A)
                 (A) (A) (A) (A) (A) (A) (A) (A) (A) (A) (A) (A)
                 (A) (A) (A) (A) (A) (A) (A) (A) (A) (A) (A) (A)
                 (A) (A) (A) (A) (A) (A) (A) (A) (A) (A) (A) (A)
                 (A) (A) (A) (A) (A) (A) (A) (A) (A) (A) (A) (A)
                 (A) (A) (A) (A) (A) (A) (A) (A) (A) (A) (A) (A)
                 (A) (A) (A) (A) (A) (A) (A) (A) (A) (A) (A) (A)
                 (A) (A) (A) (A) (A) (A) (A) (A) (A) (A) (A) (A)
 The electronic state is 1-A.
 Alpha  occ. eigenvalues -- -104.82628 -20.57290 -20.52437 -15.59648 -11.36705
 Alpha  occ. eigenvalues --  -11.31309 -11.28941 -11.27028 -11.26651 -11.26237
 Alpha  occ. eigenvalues --  -11.26160 -11.25946 -11.25851 -11.24854 -10.56470
 Alpha  occ. eigenvalues --   -8.03327  -8.02996  -8.02992  -1.42477  -1.32893
 Alpha  occ. eigenvalues --   -1.22829  -1.19671  -1.13847  -1.08238  -1.04009
 Alpha  occ. eigenvalues --   -0.99938  -0.95697  -0.86796  -0.85371  -0.80797
 Alpha  occ. eigenvalues --   -0.78962  -0.72915  -0.69709  -0.69231  -0.66884
 Alpha  occ. eigenvalues --   -0.66118  -0.64686  -0.63987  -0.62327  -0.61094
 Alpha  occ. eigenvalues --   -0.60033  -0.57634  -0.55686  -0.54906  -0.53627
 Alpha  occ. eigenvalues --   -0.53413  -0.52974  -0.50696  -0.49417  -0.46938
 Alpha  occ. eigenvalues --   -0.45882  -0.44352  -0.44122  -0.41428  -0.35917
 Alpha  occ. eigenvalues --   -0.33818
 Alpha virt. eigenvalues --    0.11389   0.11681   0.18051   0.18664   0.19846
 Alpha virt. eigenvalues --    0.22514   0.24344   0.25897   0.27291   0.28218
 Alpha virt. eigenvalues --    0.28753   0.29424   0.31077   0.31669   0.32781
 Alpha virt. eigenvalues --    0.34084   0.36116   0.39044   0.39927   0.40779
 Alpha virt. eigenvalues --    0.42640   0.44901   0.45628   0.46350   0.48217
 Alpha virt. eigenvalues --    0.49924   0.55094   0.58234   0.60132   0.61169
 Alpha virt. eigenvalues --    0.62561   0.63271   0.68236   0.69384   0.71503
 Alpha virt. eigenvalues --    0.72677   0.74066   0.75508   0.77488   0.79694
 Alpha virt. eigenvalues --    0.79942   0.80181   0.81013   0.82256   0.82746
 Alpha virt. eigenvalues --    0.83698   0.84994   0.86902   0.87045   0.90586
 Alpha virt. eigenvalues --    0.91564   0.91921   0.94941   0.96652   0.98466
 Alpha virt. eigenvalues --    0.99444   1.01503   1.02982   1.04148   1.06887
 Alpha virt. eigenvalues --    1.07723   1.08040   1.08665   1.09750   1.10638
 Alpha virt. eigenvalues --    1.12197   1.13372   1.14770   1.15457   1.15772
 Alpha virt. eigenvalues --    1.16916   1.17060   1.18325   1.19046   1.20099
 Alpha virt. eigenvalues --    1.20395   1.21420   1.23139   1.25104   1.25953
 Alpha virt. eigenvalues --    1.27453   1.28732   1.29308   1.33020   1.36131
 Alpha virt. eigenvalues --    1.37475   1.38224   1.40559   1.41109   1.42144
 Alpha virt. eigenvalues --    1.43273   1.45346   1.48168   1.56044   1.58407
 Alpha virt. eigenvalues --    1.61472   1.64825   1.67851   1.68407   1.69459
 Alpha virt. eigenvalues --    1.69604   1.72632   1.73596   1.76768   1.79695
 Alpha virt. eigenvalues --    1.82507   1.86472   1.88837   1.93381   1.96078
 Alpha virt. eigenvalues --    2.00718   2.03296   2.05105   2.06888   2.07272
 Alpha virt. eigenvalues --    2.07503   2.09550   2.12834   2.13674   2.14269
 Alpha virt. eigenvalues --    2.15754   2.19179   2.19857   2.23676   2.25177
 Alpha virt. eigenvalues --    2.25908   2.27954   2.31539   2.34299   2.36180
 Alpha virt. eigenvalues --    2.36884   2.38647   2.40864   2.41680   2.43452
 Alpha virt. eigenvalues --    2.44911   2.46190   2.49741   2.53917   2.58405
 Alpha virt. eigenvalues --    2.60123   2.61230   2.64074   2.68362   2.71421
 Alpha virt. eigenvalues --    2.74945   2.76925   2.78469   2.85012   2.86834
 Alpha virt. eigenvalues --    2.92767   2.93450   2.94736   2.97100   2.99026
 Alpha virt. eigenvalues --    3.00762   3.03352   3.07575   3.09777   3.11960
 Alpha virt. eigenvalues --    3.13363   3.13776   3.22242   3.27573   3.38108
 Alpha virt. eigenvalues --    3.41494   3.47759   3.74427
          Condensed to atoms (all electrons):
               1          2          3          4          5          6
     1  C    4.915820   0.526645  -0.040417  -0.035884  -0.036755   0.569396
     2  C    0.526645   4.946724   0.529285  -0.043756  -0.036026  -0.039806
     3  C   -0.040417   0.529285   5.036034   0.525553  -0.040320  -0.031765
     4  C   -0.035884  -0.043756   0.525553   4.937558   0.534245  -0.034955
     5  C   -0.036755  -0.036026  -0.040320   0.534245   4.942839   0.542353
     6  C    0.569396  -0.039806  -0.031765  -0.034955   0.542353   4.836773
     7  C   -0.036185   0.003830  -0.000045   0.002947  -0.048632   0.336055
     8  H   -0.001271   0.000327  -0.000009  -0.000044   0.003091  -0.051791
     9  C    0.001260  -0.000108   0.000033  -0.000263  -0.007790  -0.043960
    10  C   -0.000042   0.000000   0.000000   0.000002   0.000156   0.001637
    11  O   -0.000003   0.000000   0.000000   0.000000  -0.000003   0.000268
    12  O   -0.000001   0.000000   0.000000   0.000000   0.000001  -0.000166
    13  C   -0.002590  -0.000171   0.000018   0.000082  -0.003531  -0.061396
    14  N   -0.000006   0.000001   0.000000   0.000000   0.000050   0.003339
    15  Cl   0.002320  -0.064627   0.217608  -0.064356   0.002396   0.000272
    16  H    0.381313  -0.029129   0.002427   0.000120   0.002753  -0.031461
    17  H   -0.024549   0.380799  -0.028939   0.001989   0.000199   0.001811
    18  H    0.000218   0.001994  -0.028623   0.381506  -0.025432   0.001644
    19  H    0.002465   0.000162   0.002420  -0.027543   0.382745  -0.034304
    20  H    0.000750  -0.000062  -0.000006  -0.000198   0.000301  -0.000592
    21  H   -0.000094   0.000003  -0.000001   0.000023   0.000723  -0.002117
    22  H    0.000177   0.000004  -0.000006   0.000037   0.002248  -0.003231
    23  H    0.001237  -0.000036  -0.000012  -0.000095   0.000538   0.002683
    24  H    0.000005   0.000000   0.000000   0.000000   0.000002  -0.000211
    25  H    0.000000   0.000000   0.000000   0.000000  -0.000002   0.000029
    26  H   -0.000001   0.000000   0.000000   0.000000  -0.000002  -0.000077
               7          8          9         10         11         12
     1  C   -0.036185  -0.001271   0.001260  -0.000042  -0.000003  -0.000001
     2  C    0.003830   0.000327  -0.000108   0.000000   0.000000   0.000000
     3  C   -0.000045  -0.000009   0.000033   0.000000   0.000000   0.000000
     4  C    0.002947  -0.000044  -0.000263   0.000002   0.000000   0.000000
     5  C   -0.048632   0.003091  -0.007790   0.000156  -0.000003   0.000001
     6  C    0.336055  -0.051791  -0.043960   0.001637   0.000268  -0.000166
     7  C    5.204180   0.413767   0.269404  -0.027899   0.009187   0.000953
     8  H    0.413767   0.512231  -0.044459  -0.002335   0.001443   0.000356
     9  C    0.269404  -0.044459   5.405867   0.350979  -0.095453  -0.080887
    10  C   -0.027899  -0.002335   0.350979   4.040337   0.272284   0.614709
    11  O    0.009187   0.001443  -0.095453   0.272284   8.523182  -0.071979
    12  O    0.000953   0.000356  -0.080887   0.614709  -0.071979   8.107927
    13  C    0.334043  -0.040527  -0.053938   0.001028  -0.000319   0.000013
    14  N   -0.061923  -0.001253   0.002438   0.001192  -0.043664  -0.000037
    15  Cl   0.000005   0.000000   0.000000   0.000000   0.000000   0.000000
    16  H   -0.003463   0.002750   0.000144  -0.000015   0.000001  -0.000001
    17  H   -0.000094  -0.000008   0.000001   0.000000   0.000000   0.000000
    18  H   -0.000090   0.000002  -0.000001   0.000000   0.000000   0.000000
    19  H   -0.001680  -0.000015   0.000608   0.000003   0.000002   0.000001
    20  H   -0.038744   0.000968   0.385005  -0.031882   0.003175   0.005499
    21  H   -0.039678   0.003638   0.372264  -0.028326   0.001539   0.001120
    22  H   -0.038344   0.003907  -0.004398   0.000197  -0.000001   0.000000
    23  H   -0.053067  -0.001519   0.004289  -0.000110  -0.000068   0.000000
    24  H   -0.000457   0.001876  -0.000098   0.000089   0.001479   0.000000
    25  H   -0.003422  -0.000071   0.003238  -0.017130   0.204952   0.001608
    26  H    0.004737  -0.000066  -0.000257  -0.000037   0.000728   0.000000
              13         14         15         16         17         18
     1  C   -0.002590  -0.000006   0.002320   0.381313  -0.024549   0.000218
     2  C   -0.000171   0.000001  -0.064627  -0.029129   0.380799   0.001994
     3  C    0.000018   0.000000   0.217608   0.002427  -0.028939  -0.028623
     4  C    0.000082   0.000000  -0.064356   0.000120   0.001989   0.381506
     5  C   -0.003531   0.000050   0.002396   0.002753   0.000199  -0.025432
     6  C   -0.061396   0.003339   0.000272  -0.031461   0.001811   0.001644
     7  C    0.334043  -0.061923   0.000005  -0.003463  -0.000094  -0.000090
     8  H   -0.040527  -0.001253   0.000000   0.002750  -0.000008   0.000002
     9  C   -0.053938   0.002438   0.000000   0.000144   0.000001  -0.000001
    10  C    0.001028   0.001192   0.000000  -0.000015   0.000000   0.000000
    11  O   -0.000319  -0.043664   0.000000   0.000001   0.000000   0.000000
    12  O    0.000013  -0.000037   0.000000  -0.000001   0.000000   0.000000
    13  C    4.983550   0.209098   0.000000   0.000186   0.000002   0.000000
    14  N    0.209098   7.223782   0.000000  -0.000014   0.000000   0.000000
    15  Cl   0.000000   0.000000  16.905453  -0.000088   0.000362   0.000417
    16  H    0.000186  -0.000014  -0.000088   0.459510  -0.001522   0.000008
    17  H    0.000002   0.000000   0.000362  -0.001522   0.432144  -0.000095
    18  H    0.000000   0.000000   0.000417   0.000008  -0.000095   0.432991
    19  H   -0.000116  -0.000024  -0.000092  -0.000109   0.000009  -0.001521
    20  H    0.003053   0.000003   0.000000   0.000046   0.000000   0.000002
    21  H   -0.004600   0.000745   0.000000  -0.000005   0.000000   0.000000
    22  H    0.400222  -0.038740   0.000000  -0.000007   0.000000   0.000002
    23  H    0.409265  -0.041397   0.000000   0.000113   0.000001   0.000000
    24  H   -0.029929   0.318156   0.000000  -0.000001   0.000000   0.000000
    25  H   -0.003690   0.052594   0.000000   0.000000   0.000000   0.000000
    26  H   -0.029936   0.326732   0.000000   0.000000   0.000000   0.000000
              19         20         21         22         23         24
     1  C    0.002465   0.000750  -0.000094   0.000177   0.001237   0.000005
     2  C    0.000162  -0.000062   0.000003   0.000004  -0.000036   0.000000
     3  C    0.002420  -0.000006  -0.000001  -0.000006  -0.000012   0.000000
     4  C   -0.027543  -0.000198   0.000023   0.000037  -0.000095   0.000000
     5  C    0.382745   0.000301   0.000723   0.002248   0.000538   0.000002
     6  C   -0.034304  -0.000592  -0.002117  -0.003231   0.002683  -0.000211
     7  C   -0.001680  -0.038744  -0.039678  -0.038344  -0.053067  -0.000457
     8  H   -0.000015   0.000968   0.003638   0.003907  -0.001519   0.001876
     9  C    0.000608   0.385005   0.372264  -0.004398   0.004289  -0.000098
    10  C    0.000003  -0.031882  -0.028326   0.000197  -0.000110   0.000089
    11  O    0.000002   0.003175   0.001539  -0.000001  -0.000068   0.001479
    12  O    0.000001   0.005499   0.001120   0.000000   0.000000   0.000000
    13  C   -0.000116   0.003053  -0.004600   0.400222   0.409265  -0.029929
    14  N   -0.000024   0.000003   0.000745  -0.038740  -0.041397   0.318156
    15  Cl  -0.000092   0.000000   0.000000   0.000000   0.000000   0.000000
    16  H   -0.000109   0.000046  -0.000005  -0.000007   0.000113  -0.000001
    17  H    0.000009   0.000000   0.000000   0.000000   0.000001   0.000000
    18  H   -0.001521   0.000002   0.000000   0.000002   0.000000   0.000000
    19  H    0.463170   0.000351  -0.000128   0.000330   0.000034   0.000000
    20  H    0.000351   0.454582  -0.018816  -0.000043  -0.000051  -0.000003
    21  H   -0.000128  -0.018816   0.520848   0.002946   0.000132   0.000013
    22  H    0.000330  -0.000043   0.002946   0.526078  -0.028394   0.004088
    23  H    0.000034  -0.000051   0.000132  -0.028394   0.527383  -0.004385
    24  H    0.000000  -0.000003   0.000013   0.004088  -0.004385   0.360629
    25  H   -0.000001   0.000053   0.000352  -0.000240   0.000498  -0.003151
    26  H    0.000003   0.000004  -0.000062  -0.005305  -0.000281  -0.022130
              25         26
     1  C    0.000000  -0.000001
     2  C    0.000000   0.000000
     3  C    0.000000   0.000000
     4  C    0.000000   0.000000
     5  C   -0.000002  -0.000002
     6  C    0.000029  -0.000077
     7  C   -0.003422   0.004737
     8  H   -0.000071  -0.000066
     9  C    0.003238  -0.000257
    10  C   -0.017130  -0.000037
    11  O    0.204952   0.000728
    12  O    0.001608   0.000000
    13  C   -0.003690  -0.029936
    14  N    0.052594   0.326732
    15  Cl   0.000000   0.000000
    16  H    0.000000   0.000000
    17  H    0.000000   0.000000
    18  H    0.000000   0.000000
    19  H   -0.000001   0.000003
    20  H    0.000053   0.000004
    21  H    0.000352  -0.000062
    22  H   -0.000240  -0.005305
    23  H    0.000498  -0.000281
    24  H   -0.003151  -0.022130
    25  H    0.200738  -0.000412
    26  H   -0.000412   0.348602
 Mulliken charges:
               1
     1  C   -0.223808
     2  C   -0.176053
     3  C   -0.143234
     4  C   -0.176966
     5  C   -0.216148
     6  C    0.039573
     7  C   -0.225385
     8  H    0.199013
     9  C   -0.463918
    10  C    0.825164
    11  O   -0.806751
    12  O   -0.579115
    13  C   -0.109819
    14  N   -0.951072
    15  Cl   0.000330
    16  H    0.216445
    17  H    0.237890
    18  H    0.236979
    19  H    0.213231
    20  H    0.236605
    21  H    0.189481
    22  H    0.178473
    23  H    0.183242
    24  H    0.374028
    25  H    0.564057
    26  H    0.377760
 Sum of Mulliken charges =   0.00000
 Mulliken charges with hydrogens summed into heavy atoms:
               1
     1  C   -0.007363
     2  C    0.061837
     3  C   -0.143234
     4  C    0.060012
     5  C   -0.002917
     6  C    0.039573
     7  C   -0.026372
     9  C   -0.037832
    10  C    0.825164
    11  O   -0.242694
    12  O   -0.579115
    13  C    0.251896
    14  N   -0.199285
    15  Cl   0.000330
 DipInt: DoE/N= T F RetVal/Mat= T F Init=T NMatP=  1 IDeriv=0 Min/MaxMlt=  0  4
 Entering OneElI...
 OneElI was handed   235782004 working-precision words.
 Multipole integrals L=0 to 4 MinM= 0 MaxM= 0.
 Requested accuracy = 0.1000D-12
 ShPair: Thresh= 1.00D-13 NBox=     0 BxSize= 0.00D+00 RnKept= 1.71D+01
         NSMCal=                 3321 NSMKep=                2866
 PrsmSu:  NPrtUS=   1 ThrOK=F IAlg=1 NPAlg=1 LenDen=           0.
 Prism:   IPart=     0 DynPar=F LinDyn=F Incr=          28.
 PRISM was handed   235522713 working-precision words and  2866 shell-pairs
 IPart=  0 NShTot=        2866 NBatch=          95 AvBLen=        30.2
 PrSmSu:  NxtVal=             29.
 Electronic moments (au):
       -112.00000000         -0.62330109          2.64259344         -0.25561735
      -3722.84254531       -567.08090433       -291.46073587         17.41826826
         -2.57402114          1.31511165       4674.91716469       -163.85095350
        -49.75958266      -2566.82497511       1891.77468325        -98.70116094
        470.47495865        -29.52229056         -0.84095510         18.38701957
    -218582.60686434     -10129.85274308      -2879.99543470       2157.62885252
      -2870.60628770        853.78542941        212.97600615        406.46201491
          2.06788505     -18204.86096459      -5360.35098434       -724.22580513
        226.94542792       -209.45557972        -92.34140497
 Electronic spatial extent (au):  <R**2>=           4581.3842
 DipInt: DoE/N= F T RetVal/Mat= T F Init=T NMatP=  1 IDeriv=0 Min/MaxMlt=  0  4
 Nuclear    moments (au):
        112.00000000          0.00000000          0.00000000          0.00000000
       3633.39446027        497.10681149        231.76853122          0.00000000
          0.00016546          0.00000140      -4743.80460821        236.88594340
         53.85716130       2573.25250107      -1773.04223467         83.60037304
       -464.69549018         33.72230525         -2.60919015         -8.28936511
     204087.80256703       8246.69038875       1950.48176370      -1340.88386672
       2728.23855986       -368.18800375       -204.67444147       -392.92934660
         -0.75454250      15627.29728441       3229.83650443        253.15361433
       -165.15891817        192.90575810        124.97118315
 Total      moments (au):
          0.00000000         -0.62330109          2.64259344         -0.25561735
        -89.44808504        -69.97409284        -59.69220465         17.41826826
         -2.57385568          1.31511305        -68.88744352         73.03498990
          4.09757863          6.42752596        118.73244858        -15.10078789
          5.77946847          4.20001470         -3.45014525         10.09765446
     -14494.80429731      -1883.16235433       -929.51367100        816.74498579
       -142.36772784        485.59742565          8.30156467         13.53266831
          1.31334255      -2577.56368018      -2130.51447991       -471.07219079
         61.78650976        -16.54982163         32.62977818
 Traceless Quadrup. (au):
        -16.40995753          3.06403467         13.34592286         17.41826826
         -2.57385568          1.31511305
 Charge=              0.0000 electrons
 Dipole moment (field-independent basis, Debye):
    X=             -1.5843    Y=              6.7168    Z=             -0.6497  Tot=              6.9316
 Quadrupole moment (field-independent basis, Debye-Ang):
   XX=           -120.3107   YY=            -94.1175   ZZ=            -80.2881
   XY=             23.4282   XZ=             -3.4619   YZ=              1.7689
 Traceless Quadrupole moment (field-independent basis, Debye-Ang):
   XX=            -22.0720   YY=              4.1212   ZZ=             17.9507
   XY=             23.4282   XZ=             -3.4619   YZ=              1.7689
 Octapole moment (field-independent basis, Debye-Ang**2):
  XXX=            -49.0314  YYY=             51.9835  ZZZ=              2.9165  XYY=              4.5749
  XXY=             84.5092  XXZ=            -10.7482  XZZ=              4.1136  YZZ=              2.9894
  YYZ=             -2.4557  XYZ=              7.1871
 Hexadecapole moment (field-independent basis, Debye-Ang**3):
 XXXX=          -5459.4380 YYYY=           -709.2892 ZZZZ=           -350.0994 XXXY=            307.6253
 XXXZ=            -53.6225 YYYX=            182.8993 YYYZ=              3.1268 ZZZX=              5.0971
 ZZZY=              0.4947 XXYY=           -970.8340 XXZZ=           -802.4539 YYZZ=           -177.4284
 XXYZ=             23.2718 YYXZ=             -6.2335 ZZXY=             12.2899
 N-N= 9.418312427063D+02 E-N=-4.358103786633D+03  KE= 1.048718009744D+03
 Entering OneElI...
 OneElI was handed   235816039 working-precision words.
 Calculate electrostatic properties
    NBasis =   224  MinDer = 0  MaxDer = 0
    NGrid  =    26  NMatD  =   1
 Requested accuracy = 0.1000D-12
 PrtBox:  NBox=     1 Levels=  1 BoxLen=   32.45 SMaxX=       17.14
          Shift=            9.104984            4.529458            4.009156
 Box      1 Number                   0 centers from      1 to     81:
 ShPair: Thresh= 1.00D-13 NBox=     1 BxSize= 3.24D+01 RnKept= 1.71D+01
         NSMCal=                 3321 NSMKep=                2629
 PrsmSu:  NPrtUS=   1 ThrOK=F IAlg=1 NPAlg=1 LenDen=           0.
 Prism:   IPart=     0 DynPar=F LinDyn=F Incr=         512.
 PRISM was handed   235579109 working-precision words and  2629 shell-pairs
 IPart=  0 NShTot=       68354 NBatch=        2706 AvBLen=        25.3
 PrSmSu:  NxtVal=            513.
 --------------------------------------------------------
       Center         ----      EFG at Nuclei      ----
                      3XX-RR        3YY-RR        3ZZ-RR
 --------------------------------------------------------
     1   Atom        0.169685     -0.309618      0.139933
     2   Atom        0.180996     -0.307035      0.126040
     3   Atom       -0.284554     -0.100822      0.385376
     4   Atom        0.178099     -0.305963      0.127864
     5   Atom        0.157061     -0.303846      0.146785
     6   Atom        0.117465     -0.317075      0.199611
     7   Atom       -0.022874     -0.014512      0.037386
     8   Atom        0.108347      0.138390     -0.246737
     9   Atom       -0.021734      0.047095     -0.025361
    10   Atom        0.123983      0.292892     -0.416876
    11   Atom        0.189686     -1.162653      0.972967
    12   Atom        1.415917     -0.720978     -0.694939
    13   Atom       -0.195597      0.076846      0.118751
    14   Atom       -0.069288      0.416054     -0.346767
    15   Atom       -3.596081      1.718661      1.877420
    16   Atom        0.048371      0.165806     -0.214178
    17   Atom        0.013751      0.163621     -0.177372
    18   Atom        0.047240      0.165647     -0.212887
    19   Atom        0.017270      0.165164     -0.182434
    20   Atom       -0.005017     -0.141286      0.146303
    21   Atom        0.128975      0.087610     -0.216584
    22   Atom        0.124638      0.140916     -0.265554
    23   Atom       -0.014571     -0.028908      0.043480
    24   Atom        0.171961      0.165304     -0.337264
    25   Atom        0.069229     -0.207748      0.138519
    26   Atom        0.145762     -0.158072      0.012310
 --------------------------------------------------------
                        XY            XZ            YZ
 --------------------------------------------------------
     1   Atom        0.048340     -0.021207     -0.014248
     2   Atom        0.050204     -0.009511     -0.009955
     3   Atom       -0.018652     -0.029295     -0.012091
     4   Atom        0.046893      0.016285     -0.005773
     5   Atom        0.043974      0.028411     -0.000578
     6   Atom        0.046102     -0.006635     -0.008980
     7   Atom        0.014981      0.004879     -0.019318
     8   Atom        0.013241     -0.103850      0.046167
     9   Atom        0.060860     -0.000341     -0.030618
    10   Atom       -0.130360      0.253663     -0.131750
    11   Atom       -0.651106     -0.225875     -0.015001
    12   Atom        0.474925      0.825431      0.153848
    13   Atom       -0.070489     -0.068838      0.006431
    14   Atom       -0.637248     -0.204505      0.256164
    15   Atom       -0.527287     -0.258429     -0.027426
    16   Atom       -0.007720     -0.179870     -0.008793
    17   Atom       -0.020152      0.202548      0.028384
    18   Atom       -0.009228     -0.183485     -0.012651
    19   Atom       -0.017050      0.199097      0.022926
    20   Atom       -0.203223     -0.024514     -0.038056
    21   Atom       -0.020257      0.065177      0.145557
    22   Atom        0.000504     -0.078430      0.048084
    23   Atom        0.155390      0.123639     -0.134302
    24   Atom       -0.045053     -0.076214     -0.126925
    25   Atom        0.118437     -0.043548      0.078199
    26   Atom       -0.145135      0.068111      0.252930
 --------------------------------------------------------


 ---------------------------------------------------------------------------------
              Nuclear Quadrupole Coupling Constant in Principal Axis System
 ---------------------------------------------------------------------------------

       Atom             a.u.   MegaHertz   Gauss  10(-4) cm-1        Axes

              Baa    -0.5144     2.471     0.882     0.824  0.8297  0.4999  0.2483
    14 N(14)  Bbb    -0.4241     2.037     0.727     0.679 -0.0743 -0.3420  0.9368
              Bcc     0.9385    -4.507    -1.608    -1.503 -0.5532  0.7957  0.2466
 
              Baa    -3.6601   -70.218   -25.056   -23.422  0.9941  0.0977  0.0469
    15 Cl(35) Bbb     1.7704    33.966    12.120    11.330 -0.0986  0.9950  0.0169
              Bcc     1.8897    36.253    12.936    12.093 -0.0450 -0.0215  0.9988
 

 ---------------------------------------------------------------------------------

 No NMR shielding tensors so no spin-rotation constants.
 Leave Link  601 at Thu Jan 16 21:49:33 2014, MaxMem=   235929600 cpu:         0.3
 FitSet:  NAtFit=    26 NAtPot=    26 NAtFrz=     0 MDM=    30 TotChg=   0.00000
 Merz-Kollman atomic radii used.
 Atom Element Radius
    1     6    1.50
    2     6    1.50
    3     6    1.50
    4     6    1.50
    5     6    1.50
    6     6    1.50
    7     6    1.50
    8     1    1.20
    9     6    1.50
   10     6    1.50
   11     8    1.40
   12     8    1.40
   13     6    1.50
   14     7    1.50
   15    17    1.70
   16     1    1.20
   17     1    1.20
   18     1    1.20
   19     1    1.20
   20     1    1.20
   21     1    1.20
   22     1    1.20
   23     1    1.20
   24     1    1.20
   25     1    1.20
   26     1    1.20
 Generate VDW surfaces: Layer= 5 Dens= 2 Start= 1.400 Inc= 0.179

 **********************************************************************

            Electrostatic Properties Using The SCF Density

 **********************************************************************

       Atomic Center    1 is at  -1.052373  0.076149  1.312570
       Atomic Center    2 is at  -2.439931 -0.061861  1.260347
       Atomic Center    3 is at  -3.070063 -0.100063  0.018735
       Atomic Center    4 is at  -2.332557 -0.006667 -1.160937
       Atomic Center    5 is at  -0.947252  0.129604 -1.087036
       Atomic Center    6 is at  -0.282636  0.173909  0.147372
       Atomic Center    7 is at   1.227475  0.353409  0.226141
       Atomic Center    8 is at   1.515245  0.223248  1.278531
       Atomic Center    9 is at   1.981500 -0.714695 -0.625052
       Atomic Center   10 is at   3.314878 -1.219658 -0.055354
       Atomic Center   11 is at   4.251658 -0.293848  0.193817
       Atomic Center   12 is at   3.516731 -2.396886  0.144466
       Atomic Center   13 is at   1.577682  1.805351 -0.177112
       Atomic Center   14 is at   3.003387  2.115213  0.050887
       Atomic Center   15 is at  -4.818150 -0.272844 -0.063594
       Atomic Center   16 is at  -0.562252  0.100255  2.283035
       Atomic Center   17 is at  -3.023662 -0.142700  2.171171
       Atomic Center   18 is at  -2.835435 -0.043231 -2.121554
       Atomic Center   19 is at  -0.380357  0.192435 -2.012539
       Atomic Center   20 is at   1.358046 -1.603347 -0.734664
       Atomic Center   21 is at   2.165289 -0.319644 -1.634595
       Atomic Center   22 is at   1.376784  1.932305 -1.246923
       Atomic Center   23 is at   0.913239  2.499019  0.357077
       Atomic Center   24 is at   3.158270  2.362630  1.027885
       Atomic Center   25 is at   3.900028  0.622967 -0.006532
       Atomic Center   26 is at   3.292194  2.920910 -0.500304
      ESP Fit Center   27 is at  -0.490378  1.805791  2.362570
      ESP Fit Center   28 is at  -1.242474  1.884840  2.362570
      ESP Fit Center   29 is at  -1.242474 -1.732541  2.362570
      ESP Fit Center   30 is at  -0.490378 -1.653493  2.362570
      ESP Fit Center   31 is at  -0.130543  1.927433  1.677231
      ESP Fit Center   32 is at  -0.861553  2.135423  1.677231
      ESP Fit Center   33 is at  -1.618334  2.065297  1.677231
      ESP Fit Center   34 is at  -0.861553 -1.983125  1.677231
      ESP Fit Center   35 is at  -0.130543 -1.775135  1.677231
      ESP Fit Center   36 is at   0.475969 -1.317118  1.677231
      ESP Fit Center   37 is at  -0.861553  2.135423  0.947909
      ESP Fit Center   38 is at  -1.618334  2.065297  0.947909
      ESP Fit Center   39 is at  -0.861553 -1.983125  0.947909
      ESP Fit Center   40 is at  -0.130543 -1.775135  0.947909
      ESP Fit Center   41 is at  -1.242474 -1.732541  0.262570
      ESP Fit Center   42 is at  -1.879181 -1.289731  2.869040
      ESP Fit Center   43 is at  -2.630032  1.746830  2.310347
      ESP Fit Center   44 is at  -3.349258  1.513139  2.310347
      ESP Fit Center   45 is at  -2.630032 -1.870551  2.310347
      ESP Fit Center   46 is at  -1.877936 -1.791503  2.310347
      ESP Fit Center   47 is at  -2.249111  1.997413  1.625008
      ESP Fit Center   48 is at  -3.005892  1.927287  1.625008
      ESP Fit Center   49 is at  -3.686237  1.588516  1.625008
      ESP Fit Center   50 is at  -3.686237 -1.712237  1.625008
      ESP Fit Center   51 is at  -3.005892 -2.051009  1.625008
      ESP Fit Center   52 is at  -2.249111 -2.121135  1.625008
      ESP Fit Center   53 is at  -2.249111  1.997413  0.895686
      ESP Fit Center   54 is at  -3.005892  1.927287  0.895686
      ESP Fit Center   55 is at  -3.005892 -2.051009  0.895686
      ESP Fit Center   56 is at  -2.249111 -2.121135  0.895686
      ESP Fit Center   57 is at  -1.877936  1.667781  0.210347
      ESP Fit Center   58 is at  -2.879243  1.959211  0.383396
      ESP Fit Center   59 is at  -3.636024  1.889085  0.383396
      ESP Fit Center   60 is at  -2.879243 -2.159337  0.383396
      ESP Fit Center   61 is at  -2.148233 -1.951347  0.383396
      ESP Fit Center   62 is at  -2.879243  1.959211 -0.345926
      ESP Fit Center   63 is at  -3.636024  1.889085 -0.345926
      ESP Fit Center   64 is at  -2.879243 -2.159337 -0.345926
      ESP Fit Center   65 is at  -2.148233 -1.951347 -0.345926
      ESP Fit Center   66 is at  -3.260164 -1.908753 -1.031265
      ESP Fit Center   67 is at  -2.141737  2.052607 -0.796276
      ESP Fit Center   68 is at  -2.898518  1.982481 -0.796276
      ESP Fit Center   69 is at  -2.141737 -2.065941 -0.796276
      ESP Fit Center   70 is at  -2.141737  2.052607 -1.525598
      ESP Fit Center   71 is at  -2.898518  1.982481 -1.525598
      ESP Fit Center   72 is at  -3.578863  1.643710 -1.525598
      ESP Fit Center   73 is at  -2.898518 -1.995815 -1.525598
      ESP Fit Center   74 is at  -2.141737 -2.065941 -1.525598
      ESP Fit Center   75 is at  -1.770562  1.722975 -2.210937
      ESP Fit Center   76 is at  -2.522658  1.802024 -2.210937
      ESP Fit Center   77 is at  -2.522658 -1.815357 -2.210937
      ESP Fit Center   78 is at  -1.770562 -1.736309 -2.210937
      ESP Fit Center   79 is at  -1.771807  1.221204 -2.769630
      ESP Fit Center   80 is at  -1.771807 -1.234537 -2.769630
      ESP Fit Center   81 is at  -1.856579  1.704604 -0.037036
      ESP Fit Center   82 is at  -0.756432  2.188878 -0.722375
      ESP Fit Center   83 is at  -1.513213  2.118752 -0.722375
      ESP Fit Center   84 is at  -0.756432 -1.929670 -0.722375
      ESP Fit Center   85 is at  -0.756432  2.188878 -1.451697
      ESP Fit Center   86 is at  -1.513213  2.118752 -1.451697
      ESP Fit Center   87 is at  -0.756432 -1.929670 -1.451697
      ESP Fit Center   88 is at  -1.137353  1.938295 -2.137036
      ESP Fit Center   89 is at  -1.137353 -1.679086 -2.137036
      ESP Fit Center   90 is at  -0.385257 -1.600038 -2.137036
      ESP Fit Center   91 is at  -1.139356 -1.206510 -2.695729
      ESP Fit Center   92 is at   0.279359 -1.555733  1.197372
      ESP Fit Center   93 is at  -0.848597  2.163057  0.512033
      ESP Fit Center   94 is at  -0.091816 -1.885365  0.512033
      ESP Fit Center   95 is at  -0.848597  2.163057 -0.217289
      ESP Fit Center   96 is at  -0.848597 -1.815239 -0.217289
      ESP Fit Center   97 is at   1.037374 -1.455281  1.276141
      ESP Fit Center   98 is at   1.515245  0.223248  2.958531
      ESP Fit Center   99 is at   2.244170  0.223248  2.792159
      ESP Fit Center  100 is at   1.879707  0.854515  2.792159
      ESP Fit Center  101 is at   1.150783  0.854515  2.792159
      ESP Fit Center  102 is at   1.150783 -0.408019  2.792159
      ESP Fit Center  103 is at   1.879707 -0.408019  2.792159
      ESP Fit Center  104 is at   2.828722  0.223248  2.325994
      ESP Fit Center  105 is at   2.577870  0.995290  2.325994
      ESP Fit Center  106 is at   1.921132  1.472439  2.325994
      ESP Fit Center  107 is at   1.109358  1.472439  2.325994
      ESP Fit Center  108 is at   1.109358 -1.025943  2.325994
      ESP Fit Center  109 is at   1.921132 -1.025943  2.325994
      ESP Fit Center  110 is at   2.577870 -0.548794  2.325994
      ESP Fit Center  111 is at   0.934445 -1.308195  1.652366
      ESP Fit Center  112 is at   1.712670 -1.402689  1.652366
      ESP Fit Center  113 is at   1.097534 -1.734846  0.983641
      ESP Fit Center  114 is at   2.543495 -2.444337 -1.675052
      ESP Fit Center  115 is at   0.686325 -1.094993 -2.233745
      ESP Fit Center  116 is at   2.542250 -1.942565 -2.233745
      ESP Fit Center  117 is at   3.314878 -1.219658  2.044646
      ESP Fit Center  118 is at   4.033120 -1.219658  1.918000
      ESP Fit Center  119 is at   2.955757 -0.597642  1.918000
      ESP Fit Center  120 is at   2.596636 -1.219658  1.918000
      ESP Fit Center  121 is at   2.019703 -1.599956  1.553339
      ESP Fit Center  122 is at   4.976300 -1.959371 -1.105354
      ESP Fit Center  123 is at   4.664732 -1.219658 -1.664047
      ESP Fit Center  124 is at   4.450447 -1.949444 -1.664047
      ESP Fit Center  125 is at   4.033120 -1.219658 -2.028709
      ESP Fit Center  126 is at   3.673999 -1.841674 -2.028709
      ESP Fit Center  127 is at   4.251658 -0.293848  2.153817
      ESP Fit Center  128 is at   5.001718 -0.293848  2.004621
      ESP Fit Center  129 is at   4.626688  0.355723  2.004621
      ESP Fit Center  130 is at   3.876628  0.355723  2.004621
      ESP Fit Center  131 is at   3.501598 -0.293848  2.004621
      ESP Fit Center  132 is at   3.876628 -0.943419  2.004621
      ESP Fit Center  133 is at   4.626688 -0.943419  2.004621
      ESP Fit Center  134 is at   5.637587 -0.293848  1.579746
      ESP Fit Center  135 is at   5.451908  0.399117  1.579746
      ESP Fit Center  136 is at   4.944623  0.906402  1.579746
      ESP Fit Center  137 is at   4.251658  1.092081  1.579746
      ESP Fit Center  138 is at   4.944623 -1.494098  1.579746
      ESP Fit Center  139 is at   5.451908 -0.986813  1.579746
      ESP Fit Center  140 is at   6.062462 -0.293848  0.943876
      ESP Fit Center  141 is at   5.905910  0.442672  0.943876
      ESP Fit Center  142 is at   5.463322  1.051842  0.943876
      ESP Fit Center  143 is at   5.463322 -1.639538  0.943876
      ESP Fit Center  144 is at   5.905910 -1.030368  0.943876
      ESP Fit Center  145 is at   6.211658 -0.293848  0.193817
      ESP Fit Center  146 is at   6.079304  0.414186  0.193817
      ESP Fit Center  147 is at   5.700115  1.026595  0.193817
      ESP Fit Center  148 is at   5.700115 -1.614291  0.193817
      ESP Fit Center  149 is at   6.079304 -1.001882  0.193817
      ESP Fit Center  150 is at   6.062462 -0.293848 -0.556243
      ESP Fit Center  151 is at   5.905910  0.442672 -0.556243
      ESP Fit Center  152 is at   5.463322  1.051842 -0.556243
      ESP Fit Center  153 is at   5.463322 -1.639538 -0.556243
      ESP Fit Center  154 is at   5.905910 -1.030368 -0.556243
      ESP Fit Center  155 is at   5.637587 -0.293848 -1.192112
      ESP Fit Center  156 is at   5.451908  0.399117 -1.192112
      ESP Fit Center  157 is at   5.451908 -0.986813 -1.192112
      ESP Fit Center  158 is at   5.001718 -0.293848 -1.616987
      ESP Fit Center  159 is at   4.626688  0.355723 -1.616987
      ESP Fit Center  160 is at   4.251658 -0.293848 -1.766183
      ESP Fit Center  161 is at   3.516731 -2.396886  2.104466
      ESP Fit Center  162 is at   4.266790 -2.396886  1.955270
      ESP Fit Center  163 is at   3.891761 -1.747315  1.955270
      ESP Fit Center  164 is at   2.766671 -2.396886  1.955270
      ESP Fit Center  165 is at   3.141701 -3.046457  1.955270
      ESP Fit Center  166 is at   3.891761 -3.046457  1.955270
      ESP Fit Center  167 is at   4.902660 -2.396886  1.530395
      ESP Fit Center  168 is at   4.716981 -1.703921  1.530395
      ESP Fit Center  169 is at   2.130802 -2.396886  1.530395
      ESP Fit Center  170 is at   2.316481 -3.089851  1.530395
      ESP Fit Center  171 is at   2.823766 -3.597136  1.530395
      ESP Fit Center  172 is at   3.516731 -3.782815  1.530395
      ESP Fit Center  173 is at   4.209696 -3.597136  1.530395
      ESP Fit Center  174 is at   4.716981 -3.089851  1.530395
      ESP Fit Center  175 is at   5.327535 -2.396886  0.894525
      ESP Fit Center  176 is at   1.745497 -2.773373  0.894525
      ESP Fit Center  177 is at   2.051760 -3.461250  0.894525
      ESP Fit Center  178 is at   2.611329 -3.965088  0.894525
      ESP Fit Center  179 is at   3.327450 -4.197770  0.894525
      ESP Fit Center  180 is at   4.076300 -4.119063  0.894525
      ESP Fit Center  181 is at   4.728395 -3.742575  0.894525
      ESP Fit Center  182 is at   5.170983 -3.133406  0.894525
      ESP Fit Center  183 is at   5.476731 -2.396886  0.144466
      ESP Fit Center  184 is at   1.850305 -3.428693  0.144466
      ESP Fit Center  185 is at   2.335567 -3.961000  0.144466
      ESP Fit Center  186 is at   2.980352 -4.282064  0.144466
      ESP Fit Center  187 is at   3.697577 -4.348525  0.144466
      ESP Fit Center  188 is at   4.390378 -4.151406  0.144466
      ESP Fit Center  189 is at   4.965188 -3.717329  0.144466
      ESP Fit Center  190 is at   5.344377 -3.104920  0.144466
      ESP Fit Center  191 is at   5.327535 -2.396886 -0.605594
      ESP Fit Center  192 is at   2.051760 -3.461250 -0.605594
      ESP Fit Center  193 is at   2.611329 -3.965088 -0.605594
      ESP Fit Center  194 is at   3.327450 -4.197770 -0.605594
      ESP Fit Center  195 is at   4.076300 -4.119063 -0.605594
      ESP Fit Center  196 is at   4.728395 -3.742575 -0.605594
      ESP Fit Center  197 is at   5.170983 -3.133406 -0.605594
      ESP Fit Center  198 is at   4.902660 -2.396886 -1.241463
      ESP Fit Center  199 is at   2.316481 -3.089851 -1.241463
      ESP Fit Center  200 is at   2.823766 -3.597136 -1.241463
      ESP Fit Center  201 is at   3.516731 -3.782815 -1.241463
      ESP Fit Center  202 is at   4.209696 -3.597136 -1.241463
      ESP Fit Center  203 is at   4.716981 -3.089851 -1.241463
      ESP Fit Center  204 is at   4.266790 -2.396886 -1.666338
      ESP Fit Center  205 is at   3.141701 -3.046457 -1.666338
      ESP Fit Center  206 is at   3.891761 -3.046457 -1.666338
      ESP Fit Center  207 is at   3.516731 -2.396886 -1.815534
      ESP Fit Center  208 is at   1.577682  1.805351  1.922888
      ESP Fit Center  209 is at   1.768502  3.864625 -0.541773
      ESP Fit Center  210 is at   1.387581  3.614042 -1.227112
      ESP Fit Center  211 is at   4.822040  2.115213  1.100887
      ESP Fit Center  212 is at   2.094060  3.690213  1.100887
      ESP Fit Center  213 is at   5.071483  2.115213  0.415548
      ESP Fit Center  214 is at   4.931829  2.862296  0.415548
      ESP Fit Center  215 is at   2.437426  4.104361  0.415548
      ESP Fit Center  216 is at   5.071483  2.115213 -0.313774
      ESP Fit Center  217 is at   4.822040  2.115213 -0.999113
      ESP Fit Center  218 is at   4.353241  2.115213 -1.557806
      ESP Fit Center  219 is at   4.138956  1.385427 -1.557806
      ESP Fit Center  220 is at   3.721629  2.115213 -1.922468
      ESP Fit Center  221 is at   3.362508  1.493197 -1.922468
      ESP Fit Center  222 is at   3.003387  2.115213 -2.049113
      ESP Fit Center  223 is at  -4.818150 -0.272844  2.316406
      ESP Fit Center  224 is at  -5.185880  0.364084  2.199920
      ESP Fit Center  225 is at  -5.553610 -0.272844  2.199920
      ESP Fit Center  226 is at  -5.185880 -0.909771  2.199920
      ESP Fit Center  227 is at  -4.818150  1.126085  1.861866
      ESP Fit Center  228 is at  -5.517614  0.938664  1.861866
      ESP Fit Center  229 is at  -6.029658  0.426621  1.861866
      ESP Fit Center  230 is at  -6.217079 -0.272844  1.861866
      ESP Fit Center  231 is at  -6.029658 -0.972308  1.861866
      ESP Fit Center  232 is at  -5.517614 -1.484352  1.861866
      ESP Fit Center  233 is at  -4.818150 -1.671773  1.861866
      ESP Fit Center  234 is at  -4.118686 -1.484352  1.861866
      ESP Fit Center  235 is at  -4.081308  1.506050  1.335335
      ESP Fit Center  236 is at  -4.818150  1.652617  1.335335
      ESP Fit Center  237 is at  -5.554992  1.506050  1.335335
      ESP Fit Center  238 is at  -6.179656  1.088662  1.335335
      ESP Fit Center  239 is at  -6.597043  0.463998  1.335335
      ESP Fit Center  240 is at  -6.743610 -0.272844  1.335335
      ESP Fit Center  241 is at  -6.597043 -1.009686  1.335335
      ESP Fit Center  242 is at  -6.179656 -1.634350  1.335335
      ESP Fit Center  243 is at  -5.554992 -2.051737  1.335335
      ESP Fit Center  244 is at  -4.818150 -2.198304  1.335335
      ESP Fit Center  245 is at  -4.081308 -2.051737  1.335335
      ESP Fit Center  246 is at  -4.262490  1.921408  0.671866
      ESP Fit Center  247 is at  -5.005070  1.982940  0.671866
      ESP Fit Center  248 is at  -5.727393  1.800022  0.671866
      ESP Fit Center  249 is at  -6.351187  1.392478  0.671866
      ESP Fit Center  250 is at  -6.808852  0.804470  0.671866
      ESP Fit Center  251 is at  -7.050793  0.099718  0.671866
      ESP Fit Center  252 is at  -7.050793 -0.645406  0.671866
      ESP Fit Center  253 is at  -6.808852 -1.350158  0.671866
      ESP Fit Center  254 is at  -6.351187 -1.938166  0.671866
      ESP Fit Center  255 is at  -5.727393 -2.345710  0.671866
      ESP Fit Center  256 is at  -5.005070 -2.528627  0.671866
      ESP Fit Center  257 is at  -4.262490 -2.467095  0.671866
      ESP Fit Center  258 is at  -3.580125 -2.167782  0.671866
      ESP Fit Center  259 is at  -3.948638  1.942636 -0.063594
      ESP Fit Center  260 is at  -4.640292  2.100501 -0.063594
      ESP Fit Center  261 is at  -5.347750  2.047485 -0.063594
      ESP Fit Center  262 is at  -6.008150  1.788297 -0.063594
      ESP Fit Center  263 is at  -6.562813  1.345967 -0.063594
      ESP Fit Center  264 is at  -6.962456  0.759800 -0.063594
      ESP Fit Center  265 is at  -7.171567  0.081877 -0.063594
      ESP Fit Center  266 is at  -7.171567 -0.627564 -0.063594
      ESP Fit Center  267 is at  -6.962456 -1.305487 -0.063594
      ESP Fit Center  268 is at  -6.562813 -1.891655 -0.063594
      ESP Fit Center  269 is at  -6.008150 -2.333984 -0.063594
      ESP Fit Center  270 is at  -5.347750 -2.593172 -0.063594
      ESP Fit Center  271 is at  -4.640292 -2.646189 -0.063594
      ESP Fit Center  272 is at  -3.948638 -2.488323 -0.063594
      ESP Fit Center  273 is at  -4.262490  1.921408 -0.799055
      ESP Fit Center  274 is at  -5.005070  1.982940 -0.799055
      ESP Fit Center  275 is at  -5.727393  1.800022 -0.799055
      ESP Fit Center  276 is at  -6.351187  1.392478 -0.799055
      ESP Fit Center  277 is at  -6.808852  0.804470 -0.799055
      ESP Fit Center  278 is at  -7.050793  0.099718 -0.799055
      ESP Fit Center  279 is at  -7.050793 -0.645406 -0.799055
      ESP Fit Center  280 is at  -6.808852 -1.350158 -0.799055
      ESP Fit Center  281 is at  -6.351187 -1.938166 -0.799055
      ESP Fit Center  282 is at  -5.727393 -2.345710 -0.799055
      ESP Fit Center  283 is at  -5.005070 -2.528627 -0.799055
      ESP Fit Center  284 is at  -4.262490 -2.467095 -0.799055
      ESP Fit Center  285 is at  -3.580125 -2.167782 -0.799055
      ESP Fit Center  286 is at  -4.081308  1.506050 -1.462523
      ESP Fit Center  287 is at  -4.818150  1.652617 -1.462523
      ESP Fit Center  288 is at  -5.554992  1.506050 -1.462523
      ESP Fit Center  289 is at  -6.179656  1.088662 -1.462523
      ESP Fit Center  290 is at  -6.597043  0.463998 -1.462523
      ESP Fit Center  291 is at  -6.743610 -0.272844 -1.462523
      ESP Fit Center  292 is at  -6.597043 -1.009686 -1.462523
      ESP Fit Center  293 is at  -6.179656 -1.634350 -1.462523
      ESP Fit Center  294 is at  -5.554992 -2.051737 -1.462523
      ESP Fit Center  295 is at  -4.818150 -2.198304 -1.462523
      ESP Fit Center  296 is at  -4.081308 -2.051737 -1.462523
      ESP Fit Center  297 is at  -4.818150  1.126085 -1.989055
      ESP Fit Center  298 is at  -5.517614  0.938664 -1.989055
      ESP Fit Center  299 is at  -6.029658  0.426621 -1.989055
      ESP Fit Center  300 is at  -6.217079 -0.272844 -1.989055
      ESP Fit Center  301 is at  -6.029658 -0.972308 -1.989055
      ESP Fit Center  302 is at  -5.517614 -1.484352 -1.989055
      ESP Fit Center  303 is at  -4.818150 -1.671773 -1.989055
      ESP Fit Center  304 is at  -4.118686 -1.484352 -1.989055
      ESP Fit Center  305 is at  -5.185880  0.364084 -2.327109
      ESP Fit Center  306 is at  -5.553610 -0.272844 -2.327109
      ESP Fit Center  307 is at  -5.185880 -0.909771 -2.327109
      ESP Fit Center  308 is at  -4.450420 -0.909771 -2.327109
      ESP Fit Center  309 is at  -4.818150 -0.272844 -2.443594
      ESP Fit Center  310 is at  -0.562252  0.100255  3.963035
      ESP Fit Center  311 is at   0.166673  0.100255  3.796663
      ESP Fit Center  312 is at  -0.197790  0.731522  3.796663
      ESP Fit Center  313 is at  -0.926714  0.731522  3.796663
      ESP Fit Center  314 is at  -1.291177  0.100255  3.796663
      ESP Fit Center  315 is at  -0.926714 -0.531012  3.796663
      ESP Fit Center  316 is at  -0.197790 -0.531012  3.796663
      ESP Fit Center  317 is at   0.751225  0.100255  3.330498
      ESP Fit Center  318 is at   0.500373  0.872297  3.330498
      ESP Fit Center  319 is at  -0.156365  1.349446  3.330498
      ESP Fit Center  320 is at  -0.968139  1.349446  3.330498
      ESP Fit Center  321 is at  -1.624877  0.872297  3.330498
      ESP Fit Center  322 is at  -1.624877 -0.671787  3.330498
      ESP Fit Center  323 is at  -0.968139 -1.148936  3.330498
      ESP Fit Center  324 is at  -0.156365 -1.148936  3.330498
      ESP Fit Center  325 is at   0.500373 -0.671787  3.330498
      ESP Fit Center  326 is at   0.368169  1.448203  2.656870
      ESP Fit Center  327 is at  -0.364827  1.726192  2.656870
      ESP Fit Center  328 is at  -0.364827 -1.525682  2.656870
      ESP Fit Center  329 is at   0.368169 -1.247693  2.656870
      ESP Fit Center  330 is at   0.888018 -0.660905  2.656870
      ESP Fit Center  331 is at  -3.023662 -0.142700  3.851171
      ESP Fit Center  332 is at  -2.294737 -0.142700  3.684799
      ESP Fit Center  333 is at  -2.659200  0.488567  3.684799
      ESP Fit Center  334 is at  -3.388124  0.488567  3.684799
      ESP Fit Center  335 is at  -3.752587 -0.142700  3.684799
      ESP Fit Center  336 is at  -3.388124 -0.773967  3.684799
      ESP Fit Center  337 is at  -2.659200 -0.773967  3.684799
      ESP Fit Center  338 is at  -1.961037  0.629343  3.218634
      ESP Fit Center  339 is at  -2.617775  1.106491  3.218634
      ESP Fit Center  340 is at  -3.429549  1.106491  3.218634
      ESP Fit Center  341 is at  -4.086287  0.629343  3.218634
      ESP Fit Center  342 is at  -4.337139 -0.142700  3.218634
      ESP Fit Center  343 is at  -4.086287 -0.914742  3.218634
      ESP Fit Center  344 is at  -3.429549 -1.391891  3.218634
      ESP Fit Center  345 is at  -2.617775 -1.391891  3.218634
      ESP Fit Center  346 is at  -1.961037 -0.914742  3.218634
      ESP Fit Center  347 is at  -3.604462  1.388744  2.545006
      ESP Fit Center  348 is at  -4.249632  0.943415  2.545006
      ESP Fit Center  349 is at  -4.613947  0.249270  2.545006
      ESP Fit Center  350 is at  -4.613947 -0.534670  2.545006
      ESP Fit Center  351 is at  -4.249632 -1.228814  2.545006
      ESP Fit Center  352 is at  -3.604462 -1.674143  2.545006
      ESP Fit Center  353 is at  -2.826238 -1.768637  2.545006
      ESP Fit Center  354 is at  -3.416235  1.488213 -2.495389
      ESP Fit Center  355 is at  -4.061405  1.042884 -2.495389
      ESP Fit Center  356 is at  -4.425720  0.348739 -2.495389
      ESP Fit Center  357 is at  -4.425720 -0.435201 -2.495389
      ESP Fit Center  358 is at  -4.061405 -1.129345 -2.495389
      ESP Fit Center  359 is at  -3.416235 -1.574674 -2.495389
      ESP Fit Center  360 is at  -2.638010 -1.669168 -2.495389
      ESP Fit Center  361 is at  -1.772810  0.728812 -3.169017
      ESP Fit Center  362 is at  -2.429548  1.205960 -3.169017
      ESP Fit Center  363 is at  -3.241322  1.205960 -3.169017
      ESP Fit Center  364 is at  -3.898060  0.728812 -3.169017
      ESP Fit Center  365 is at  -4.148912 -0.043231 -3.169017
      ESP Fit Center  366 is at  -3.898060 -0.815273 -3.169017
      ESP Fit Center  367 is at  -3.241322 -1.292422 -3.169017
      ESP Fit Center  368 is at  -2.429548 -1.292422 -3.169017
      ESP Fit Center  369 is at  -1.772810 -0.815273 -3.169017
      ESP Fit Center  370 is at  -2.106510 -0.043231 -3.635182
      ESP Fit Center  371 is at  -2.470973  0.588036 -3.635182
      ESP Fit Center  372 is at  -3.199897  0.588036 -3.635182
      ESP Fit Center  373 is at  -3.564360 -0.043231 -3.635182
      ESP Fit Center  374 is at  -3.199897 -0.674498 -3.635182
      ESP Fit Center  375 is at  -2.470973 -0.674498 -3.635182
      ESP Fit Center  376 is at  -2.835435 -0.043231 -3.801554
      ESP Fit Center  377 is at  -0.182932  1.818372 -2.386374
      ESP Fit Center  378 is at  -0.182932 -1.433502 -2.386374
      ESP Fit Center  379 is at   0.550064 -1.155513 -2.386374
      ESP Fit Center  380 is at   0.933120  0.192435 -3.060002
      ESP Fit Center  381 is at   0.682268  0.964477 -3.060002
      ESP Fit Center  382 is at   0.025530  1.441626 -3.060002
      ESP Fit Center  383 is at  -0.786244  1.441626 -3.060002
      ESP Fit Center  384 is at  -1.442982  0.964477 -3.060002
      ESP Fit Center  385 is at  -1.442982 -0.579607 -3.060002
      ESP Fit Center  386 is at  -0.786244 -1.056756 -3.060002
      ESP Fit Center  387 is at   0.025530 -1.056756 -3.060002
      ESP Fit Center  388 is at   0.682268 -0.579607 -3.060002
      ESP Fit Center  389 is at   0.348568  0.192435 -3.526167
      ESP Fit Center  390 is at  -0.015895  0.823702 -3.526167
      ESP Fit Center  391 is at  -0.744819  0.823702 -3.526167
      ESP Fit Center  392 is at  -1.109282  0.192435 -3.526167
      ESP Fit Center  393 is at  -0.744819 -0.438832 -3.526167
      ESP Fit Center  394 is at  -0.015895 -0.438832 -3.526167
      ESP Fit Center  395 is at  -0.380357  0.192435 -3.692539
      ESP Fit Center  396 is at   0.993584 -2.234614  0.778964
      ESP Fit Center  397 is at   0.295421 -2.375389  0.312799
      ESP Fit Center  398 is at   0.952159 -2.852538  0.312799
      ESP Fit Center  399 is at  -0.232239 -1.995317 -0.360829
      ESP Fit Center  400 is at   0.132076 -2.689462 -0.360829
      ESP Fit Center  401 is at   0.777246 -3.134790 -0.360829
      ESP Fit Center  402 is at   1.555470 -3.229284 -0.360829
      ESP Fit Center  403 is at  -0.232239 -1.995317 -1.108499
      ESP Fit Center  404 is at   0.132076 -2.689462 -1.108499
      ESP Fit Center  405 is at   0.777246 -3.134790 -1.108499
      ESP Fit Center  406 is at   1.555470 -3.229284 -1.108499
      ESP Fit Center  407 is at   0.044569 -1.603347 -1.782127
      ESP Fit Center  408 is at   0.295421 -2.375389 -1.782127
      ESP Fit Center  409 is at   0.952159 -2.852538 -1.782127
      ESP Fit Center  410 is at   1.763933 -2.852538 -1.782127
      ESP Fit Center  411 is at   0.629121 -1.603347 -2.248292
      ESP Fit Center  412 is at   0.993584 -2.234614 -2.248292
      ESP Fit Center  413 is at   1.722508 -2.234614 -2.248292
      ESP Fit Center  414 is at   3.803168 -0.319644 -2.008430
      ESP Fit Center  415 is at   3.615559  0.441516 -2.008430
      ESP Fit Center  416 is at   3.095710  1.028304 -2.008430
      ESP Fit Center  417 is at   3.478766 -0.319644 -2.682058
      ESP Fit Center  418 is at   3.227914  0.452398 -2.682058
      ESP Fit Center  419 is at   2.571176  0.929547 -2.682058
      ESP Fit Center  420 is at   1.759402  0.929547 -2.682058
      ESP Fit Center  421 is at   1.102664 -1.091686 -2.682058
      ESP Fit Center  422 is at   1.759402 -1.568835 -2.682058
      ESP Fit Center  423 is at   2.571176 -1.568835 -2.682058
      ESP Fit Center  424 is at   3.227914 -1.091686 -2.682058
      ESP Fit Center  425 is at   2.894214 -0.319644 -3.148223
      ESP Fit Center  426 is at   2.529751  0.311623 -3.148223
      ESP Fit Center  427 is at   1.800827  0.311623 -3.148223
      ESP Fit Center  428 is at   1.436364 -0.319644 -3.148223
      ESP Fit Center  429 is at   1.800827 -0.950911 -3.148223
      ESP Fit Center  430 is at   2.529751 -0.950911 -3.148223
      ESP Fit Center  431 is at   2.165289 -0.319644 -3.314595
      ESP Fit Center  432 is at   1.574209  3.558242 -1.620758
      ESP Fit Center  433 is at   0.795984  3.463748 -1.620758
      ESP Fit Center  434 is at   0.150814  3.018420 -1.620758
      ESP Fit Center  435 is at  -0.213501  2.324275 -1.620758
      ESP Fit Center  436 is at   2.690261  1.932305 -2.294386
      ESP Fit Center  437 is at   2.439409  2.704347 -2.294386
      ESP Fit Center  438 is at   1.782671  3.181496 -2.294386
      ESP Fit Center  439 is at   0.970897  3.181496 -2.294386
      ESP Fit Center  440 is at   0.314159  2.704347 -2.294386
      ESP Fit Center  441 is at   0.063307  1.932305 -2.294386
      ESP Fit Center  442 is at   2.105709  1.932305 -2.760551
      ESP Fit Center  443 is at   1.741246  2.563572 -2.760551
      ESP Fit Center  444 is at   1.012322  2.563572 -2.760551
      ESP Fit Center  445 is at   0.647859  1.932305 -2.760551
      ESP Fit Center  446 is at   1.012322  1.301038 -2.760551
      ESP Fit Center  447 is at   1.741246  1.301038 -2.760551
      ESP Fit Center  448 is at   1.376784  1.932305 -2.926923
      ESP Fit Center  449 is at   0.913239  2.499019  2.037077
      ESP Fit Center  450 is at   1.642164  2.499019  1.870705
      ESP Fit Center  451 is at   1.277701  3.130286  1.870705
      ESP Fit Center  452 is at   0.548777  3.130286  1.870705
      ESP Fit Center  453 is at   0.184314  2.499019  1.870705
      ESP Fit Center  454 is at   0.548777  1.867752  1.870705
      ESP Fit Center  455 is at   1.319126  3.748210  1.404540
      ESP Fit Center  456 is at   0.507352  3.748210  1.404540
      ESP Fit Center  457 is at  -0.149386  3.271061  1.404540
      ESP Fit Center  458 is at  -0.400238  2.499019  1.404540
      ESP Fit Center  459 is at   1.843660  3.846967  0.730912
      ESP Fit Center  460 is at   1.110664  4.124956  0.730912
      ESP Fit Center  461 is at   0.332439  4.030462  0.730912
      ESP Fit Center  462 is at  -0.312731  3.585134  0.730912
      ESP Fit Center  463 is at  -0.677046  2.890989  0.730912
      ESP Fit Center  464 is at   1.110664  4.124956 -0.016758
      ESP Fit Center  465 is at   0.332439  4.030462 -0.016758
      ESP Fit Center  466 is at  -0.312731  3.585134 -0.016758
      ESP Fit Center  467 is at  -0.677046  2.890989 -0.016758
      ESP Fit Center  468 is at   0.507352  3.748210 -0.690386
      ESP Fit Center  469 is at  -0.149386  3.271061 -0.690386
      ESP Fit Center  470 is at  -0.400238  2.499019 -0.690386
      ESP Fit Center  471 is at   3.158270  2.362630  2.707885
      ESP Fit Center  472 is at   3.887195  2.362630  2.541513
      ESP Fit Center  473 is at   3.522732  2.993897  2.541513
      ESP Fit Center  474 is at   2.793808  2.993897  2.541513
      ESP Fit Center  475 is at   2.429345  2.362630  2.541513
      ESP Fit Center  476 is at   2.793808  1.731363  2.541513
      ESP Fit Center  477 is at   3.522732  1.731363  2.541513
      ESP Fit Center  478 is at   4.471747  2.362630  2.075348
      ESP Fit Center  479 is at   4.220895  3.134672  2.075348
      ESP Fit Center  480 is at   3.564157  3.611821  2.075348
      ESP Fit Center  481 is at   2.752383  3.611821  2.075348
      ESP Fit Center  482 is at   2.095645  3.134672  2.075348
      ESP Fit Center  483 is at   1.844793  2.362630  2.075348
      ESP Fit Center  484 is at   2.095645  1.590588  2.075348
      ESP Fit Center  485 is at   2.752383  1.113439  2.075348
      ESP Fit Center  486 is at   3.564157  1.113439  2.075348
      ESP Fit Center  487 is at   4.220895  1.590588  2.075348
      ESP Fit Center  488 is at   4.796149  2.362630  1.401720
      ESP Fit Center  489 is at   4.608540  3.123790  1.401720
      ESP Fit Center  490 is at   4.088691  3.710578  1.401720
      ESP Fit Center  491 is at   3.355695  3.988567  1.401720
      ESP Fit Center  492 is at   2.577470  3.894073  1.401720
      ESP Fit Center  493 is at   1.932300  3.448745  1.401720
      ESP Fit Center  494 is at   4.608540  1.601470  1.401720
      ESP Fit Center  495 is at   4.962653  1.395009  1.040931
      ESP Fit Center  496 is at   5.350298  1.384127  0.367303
      ESP Fit Center  497 is at   5.350298  1.384127 -0.380367
      ESP Fit Center  498 is at   4.962653  1.395009 -1.053995
      ESP Fit Center  499 is at   4.628953  0.622967 -1.520160
      ESP Fit Center  500 is at   4.264490  1.254234 -1.520160
      ESP Fit Center  501 is at   3.900028  0.622967 -1.686532
      ESP Fit Center  502 is at   4.354819  3.692952  0.547159
      ESP Fit Center  503 is at   3.698081  4.170101  0.547159
      ESP Fit Center  504 is at   2.886307  4.170101  0.547159
      ESP Fit Center  505 is at   4.742464  3.682070 -0.126469
      ESP Fit Center  506 is at   4.222615  4.268858 -0.126469
      ESP Fit Center  507 is at   3.489619  4.546847 -0.126469
      ESP Fit Center  508 is at   2.711394  4.452353 -0.126469
      ESP Fit Center  509 is at   2.066224  4.007025 -0.126469
      ESP Fit Center  510 is at   4.930073  2.920910 -0.874139
      ESP Fit Center  511 is at   4.742464  3.682070 -0.874139
      ESP Fit Center  512 is at   4.222615  4.268858 -0.874139
      ESP Fit Center  513 is at   3.489619  4.546847 -0.874139
      ESP Fit Center  514 is at   2.711394  4.452353 -0.874139
      ESP Fit Center  515 is at   2.066224  4.007025 -0.874139
      ESP Fit Center  516 is at   4.605671  2.920910 -1.547767
      ESP Fit Center  517 is at   4.354819  3.692952 -1.547767
      ESP Fit Center  518 is at   3.698081  4.170101 -1.547767
      ESP Fit Center  519 is at   2.886307  4.170101 -1.547767
      ESP Fit Center  520 is at   2.229569  3.692952 -1.547767
      ESP Fit Center  521 is at   4.021119  2.920910 -2.013932
      ESP Fit Center  522 is at   3.656656  3.552177 -2.013932
      ESP Fit Center  523 is at   2.927732  3.552177 -2.013932
      ESP Fit Center  524 is at   2.563269  2.920910 -2.013932
      ESP Fit Center  525 is at   3.656656  2.289643 -2.013932
      ESP Fit Center  526 is at   3.292194  2.920910 -2.180304
      ESP Fit Center  527 is at  -1.052373  1.992167  2.704638
      ESP Fit Center  528 is at  -1.785601  1.846319  2.704638
      ESP Fit Center  529 is at  -1.052373 -1.839869  2.704638
      ESP Fit Center  530 is at   0.179581  1.961795  2.044424
      ESP Fit Center  531 is at  -0.499438  2.259640  2.044424
      ESP Fit Center  532 is at  -1.238376  2.320870  2.044424
      ESP Fit Center  533 is at  -1.957157  2.138850  2.044424
      ESP Fit Center  534 is at  -1.238376 -2.168572  2.044424
      ESP Fit Center  535 is at  -0.499438 -2.107342  2.044424
      ESP Fit Center  536 is at   0.179581 -1.809496  2.044424
      ESP Fit Center  537 is at  -1.052373  2.444477  1.312570
      ESP Fit Center  538 is at  -1.784227  2.328563  1.312570
      ESP Fit Center  539 is at  -1.052373 -2.292179  1.312570
      ESP Fit Center  540 is at  -0.320519 -2.176265  1.312570
      ESP Fit Center  541 is at   0.339695 -1.839869  1.312570
      ESP Fit Center  542 is at  -1.238376  2.320870  0.580716
      ESP Fit Center  543 is at  -1.238376 -2.168572  0.580716
      ESP Fit Center  544 is at  -1.861645 -1.328131  3.176365
      ESP Fit Center  545 is at  -2.439931  1.854157  2.652415
      ESP Fit Center  546 is at  -3.173159  1.708309  2.652415
      ESP Fit Center  547 is at  -2.439931 -1.977879  2.652415
      ESP Fit Center  548 is at  -1.706703 -1.832030  2.652415
      ESP Fit Center  549 is at  -2.625934  2.182860  1.992201
      ESP Fit Center  550 is at  -3.344715  2.000840  1.992201
      ESP Fit Center  551 is at  -3.965449  1.595294  1.992201
      ESP Fit Center  552 is at  -3.344715 -2.124561  1.992201
      ESP Fit Center  553 is at  -2.625934 -2.306582  1.992201
      ESP Fit Center  554 is at  -1.886996 -2.245351  1.992201
      ESP Fit Center  555 is at  -2.439931  2.306467  1.260347
      ESP Fit Center  556 is at  -3.171785  2.190553  1.260347
      ESP Fit Center  557 is at  -3.831999  1.854157  1.260347
      ESP Fit Center  558 is at  -3.171785 -2.314275  1.260347
      ESP Fit Center  559 is at  -2.439931 -2.430189  1.260347
      ESP Fit Center  560 is at  -1.708077 -2.314275  1.260347
      ESP Fit Center  561 is at  -2.625934  2.182860  0.528493
      ESP Fit Center  562 is at  -1.886996 -2.245351  0.528493
      ESP Fit Center  563 is at  -3.256066  2.144658  0.750589
      ESP Fit Center  564 is at  -3.256066 -2.344784  0.750589
      ESP Fit Center  565 is at  -2.338209  2.152351  0.018735
      ESP Fit Center  566 is at  -3.070063  2.268265  0.018735
      ESP Fit Center  567 is at  -3.070063 -2.468391  0.018735
      ESP Fit Center  568 is at  -2.338209 -2.352477  0.018735
      ESP Fit Center  569 is at  -1.677995 -2.016081  0.018735
      ESP Fit Center  570 is at  -3.256066  2.144658 -0.713119
      ESP Fit Center  571 is at  -2.518560  2.238054 -0.429083
      ESP Fit Center  572 is at  -1.779622 -2.190157 -0.429083
[...]
 2534 Fit      -0.000361
 2535 Fit      -0.000101
 2536 Fit       0.000790
 2537 Fit       0.012381
 2538 Fit       0.010078
 2539 Fit       0.003672
 2540 Fit       0.003923
 2541 Fit       0.005303
 2542 Fit       0.014929
 2543 Fit       0.008302
 2544 Fit       0.010193
 2545 Fit       0.019332
 2546 Fit       0.005950
 2547 Fit      -0.007499
 2548 Fit       0.008585
 2549 Fit      -0.005016
 2550 Fit       0.013672
 2551 Fit       0.008882
 2552 Fit      -0.002703
 2553 Fit       0.017630
 2554 Fit       0.012804
 2555 Fit       0.001461
 2556 Fit       0.018884
 2557 Fit       0.014780
 2558 Fit       0.005568
 2559 Fit       0.007624
 2560 Fit       0.017102
 2561 Fit       0.010165
 2562 Fit       0.006777
 2563 Fit      -0.008245
 2564 Fit       0.019146
 2565 Fit       0.015449
 2566 Fit       0.021404
 2567 Fit       0.012827
 2568 Fit       0.011783
 2569 Fit       0.020828
 2570 Fit       0.026710
 2571 Fit       0.027399
 2572 Fit       0.005809
 2573 Fit       0.006117
 2574 Fit       0.002081
 2575 Fit      -0.002447
 2576 Fit      -0.010264
 2577 Fit       0.001420
 2578 Fit      -0.002653
 2579 Fit      -0.004597
 2580 Fit       0.008420
 2581 Fit       0.004487
 2582 Fit      -0.010026
 2583 Fit      -0.018821
 2584 Fit      -0.014122
 2585 Fit      -0.007001
 2586 Fit      -0.024769
 2587 Fit      -0.013096
 2588 Fit      -0.020678
 2589 Fit      -0.017231
 2590 Fit      -0.005536
 2591 Fit       0.001376
 2592 Fit      -0.009820
 2593 Fit      -0.011893
 2594 Fit      -0.009998
 2595 Fit       0.001212
 2596 Fit      -0.002167
 2597 Fit      -0.010244
 2598 Fit      -0.016325
 2599 Fit      -0.006515
 2600 Fit       0.001267
 2601 Fit      -0.002118
 2602 Fit      -0.013955
 2603 Fit      -0.020269
 2604 Fit      -0.020721
 2605 Fit      -0.012628
 2606 Fit      -0.002273
 2607 Fit      -0.029704
 2608 Fit      -0.026469
 2609 Fit      -0.023706
 2610 Fit      -0.016449
 2611 Fit      -0.007328
 2612 Fit       0.004266
 2613 Fit      -0.034882
 2614 Fit      -0.029616
 2615 Fit      -0.025501
 2616 Fit      -0.018764
 2617 Fit      -0.010584
 2618 Fit      -0.000443
 2619 Fit      -0.037045
 2620 Fit      -0.031310
 2621 Fit      -0.026273
 2622 Fit      -0.019919
 2623 Fit      -0.012382
 2624 Fit      -0.003354
 2625 Fit      -0.037585
 2626 Fit      -0.031885
 2627 Fit      -0.026117
 2628 Fit      -0.019835
 2629 Fit      -0.012420
 2630 Fit      -0.003680
 2631 Fit      -0.037367
 2632 Fit      -0.031678
 2633 Fit      -0.025058
 2634 Fit      -0.018877
 2635 Fit      -0.011560
 2636 Fit      -0.003006
 2637 Fit      -0.035929
 2638 Fit      -0.030471
 2639 Fit      -0.023051
 2640 Fit      -0.017014
 2641 Fit      -0.009798
 2642 Fit      -0.001406
 2643 Fit      -0.033200
 2644 Fit      -0.028205
 2645 Fit      -0.019989
 2646 Fit      -0.013853
 2647 Fit      -0.006348
 2648 Fit       0.002293
 2649 Fit      -0.029371
 2650 Fit      -0.024947
 2651 Fit      -0.015728
 2652 Fit      -0.009461
 2653 Fit      -0.001570
 2654 Fit      -0.020259
 2655 Fit      -0.010101
 2656 Fit      -0.003497
 2657 Fit       0.005060
 2658 Fit      -0.013693
 2659 Fit      -0.002933
 2660 Fit       0.005203
 2661 Fit      -0.024197
 2662 Fit      -0.029418
 2663 Fit      -0.023126
 2664 Fit      -0.019014
 2665 Fit      -0.026104
 2666 Fit      -0.030059
 2667 Fit      -0.034349
 2668 Fit      -0.031611
 2669 Fit      -0.014230
 2670 Fit      -0.022219
 2671 Fit      -0.028112
 2672 Fit      -0.031949
 2673 Fit      -0.034174
 2674 Fit      -0.034999
 2675 Fit      -0.038613
 2676 Fit      -0.015190
 2677 Fit      -0.022926
 2678 Fit      -0.028442
 2679 Fit      -0.032263
 2680 Fit      -0.034896
 2681 Fit      -0.036705
 2682 Fit      -0.037860
 2683 Fit      -0.038438
 2684 Fit      -0.041783
 2685 Fit      -0.013020
 2686 Fit      -0.021083
 2687 Fit      -0.026982
 2688 Fit      -0.031199
 2689 Fit      -0.034182
 2690 Fit      -0.036337
 2691 Fit      -0.037954
 2692 Fit      -0.039184
 2693 Fit      -0.040093
 2694 Fit      -0.040809
 2695 Fit      -0.043452
 2696 Fit      -0.022713
 2697 Fit      -0.028073
 2698 Fit      -0.031923
 2699 Fit      -0.034651
 2700 Fit      -0.036629
 2701 Fit      -0.038141
 2702 Fit      -0.039352
 2703 Fit      -0.040334
 2704 Fit      -0.041139
 2705 Fit      -0.041964
 2706 Fit      -0.043323
 2707 Fit      -0.024397
 2708 Fit      -0.029456
 2709 Fit      -0.032941
 2710 Fit      -0.035345
 2711 Fit      -0.037063
 2712 Fit      -0.038371
 2713 Fit      -0.039417
 2714 Fit      -0.040260
 2715 Fit      -0.040955
 2716 Fit      -0.041728
 2717 Fit      -0.041303
 2718 Fit      -0.022724
 2719 Fit      -0.028436
 2720 Fit      -0.032184
 2721 Fit      -0.034668
 2722 Fit      -0.036366
 2723 Fit      -0.037589
 2724 Fit      -0.038504
 2725 Fit      -0.039176
 2726 Fit      -0.039654
 2727 Fit      -0.040135
 2728 Fit      -0.037557
 2729 Fit      -0.024580
 2730 Fit      -0.029429
 2731 Fit      -0.032518
 2732 Fit      -0.034509
 2733 Fit      -0.035816
 2734 Fit      -0.036670
 2735 Fit      -0.037165
 2736 Fit      -0.037338
 2737 Fit      -0.037313
 2738 Fit      -0.032490
 2739 Fit      -0.021190
 2740 Fit      -0.026919
 2741 Fit      -0.030428
 2742 Fit      -0.032536
 2743 Fit      -0.033730
 2744 Fit      -0.034255
 2745 Fit      -0.034179
 2746 Fit      -0.033533
 2747 Fit      -0.026651
 2748 Fit      -0.021767
 2749 Fit      -0.026503
 2750 Fit      -0.029141
 2751 Fit      -0.030313
 2752 Fit      -0.030306
 2753 Fit      -0.029132
 2754 Fit      -0.019615
 2755 Fit      -0.023900
 2756 Fit      -0.025356
 2757 Fit      -0.024340
 2758 Fit      -0.014895
 2759 Fit      -0.018582
 2760 Fit       0.031125
 2761 Fit       0.029489
 2762 Fit       0.028551
 2763 Fit       0.024489
 2764 Fit       0.031322
 2765 Fit       0.026378
 2766 Fit       0.022825
 2767 Fit       0.019836
 2768 Fit       0.016689
 2769 Fit       0.030895
 2770 Fit       0.009697
 2771 Fit       0.031114
 2772 Fit       0.005561
 2773 Fit       0.013530
 2774 Fit       0.019769
 2775 Fit       0.024591
 2776 Fit       0.027928
 2777 Fit       0.029751
 2778 Fit       0.030300
 2779 Fit       0.030097
 2780 Fit       0.029816
 2781 Fit       0.003336
 2782 Fit       0.011361
 2783 Fit       0.017855
 2784 Fit       0.023175
 2785 Fit       0.027174
 2786 Fit       0.029641
 2787 Fit       0.030593
 2788 Fit       0.030406
 2789 Fit       0.029715
 2790 Fit       0.002997
 2791 Fit       0.010776
 2792 Fit       0.017426
 2793 Fit       0.023196
 2794 Fit       0.030859
 2795 Fit       0.029663
 2796 Fit       0.004270
 2797 Fit       0.011823
 2798 Fit       0.018735
 2799 Fit       0.006791
 2800 Fit       0.013945
 2801 Fit       0.010167
 2802 Fit       0.014037
 2803 Fit       0.009772
 2804 Fit       0.018131
 2805 Fit       0.015760
 2806 Fit       0.022337
 2807 Fit       0.027019
 2808 Fit       0.022863
 2809 Fit       0.004365
 2810 Fit       0.001624
 2811 Fit       0.002939
 2812 Fit       0.001202
 2813 Fit      -0.000855
 2814 Fit      -0.001713
 2815 Fit      -0.001836
 2816 Fit      -0.000945
 2817 Fit       0.001929
 2818 Fit       0.001097
 2819 Fit      -0.001149
 2820 Fit      -0.002375
 2821 Fit      -0.002951
 2822 Fit      -0.003279
 2823 Fit      -0.003591
 2824 Fit      -0.003823
 2825 Fit      -0.003647
 2826 Fit      -0.002608
 2827 Fit      -0.000254
 2828 Fit       0.002264
 2829 Fit      -0.000089
 2830 Fit      -0.001922
 2831 Fit      -0.003040
 2832 Fit      -0.003523
 2833 Fit      -0.003627
 2834 Fit      -0.003658
 2835 Fit      -0.003855
 2836 Fit      -0.004293
 2837 Fit      -0.004865
 2838 Fit      -0.005319
 2839 Fit      -0.005357
 2840 Fit      -0.004740
 2841 Fit      -0.003384
 2842 Fit      -0.000179
 2843 Fit      -0.001886
 2844 Fit      -0.003214
 2845 Fit      -0.003924
 2846 Fit      -0.004063
 2847 Fit      -0.003854
 2848 Fit      -0.003593
 2849 Fit      -0.003543
 2850 Fit      -0.003855
 2851 Fit      -0.004524
 2852 Fit      -0.005397
 2853 Fit      -0.006219
 2854 Fit      -0.006720
 2855 Fit      -0.006711
 2856 Fit      -0.006178
 2857 Fit      -0.005350
 2858 Fit      -0.000298
 2859 Fit      -0.001576
 2860 Fit      -0.002965
 2861 Fit      -0.003970
 2862 Fit      -0.004411
 2863 Fit      -0.004332
 2864 Fit      -0.003923
 2865 Fit      -0.003444
 2866 Fit      -0.003146
 2867 Fit      -0.003212
 2868 Fit      -0.003709
 2869 Fit      -0.004577
 2870 Fit      -0.005647
 2871 Fit      -0.006684
 2872 Fit      -0.007457
 2873 Fit      -0.007807
 2874 Fit      -0.007719
 2875 Fit      -0.007380
 2876 Fit      -0.007234
 2877 Fit      -0.000500
 2878 Fit      -0.001616
 2879 Fit      -0.002982
 2880 Fit      -0.004045
 2881 Fit      -0.004561
 2882 Fit      -0.004520
 2883 Fit      -0.004072
 2884 Fit      -0.003463
 2885 Fit      -0.002958
 2886 Fit      -0.002779
 2887 Fit      -0.003052
 2888 Fit      -0.003783
 2889 Fit      -0.004859
 2890 Fit      -0.006075
 2891 Fit      -0.007190
 2892 Fit      -0.007987
 2893 Fit      -0.008347
 2894 Fit      -0.008306
 2895 Fit      -0.008105
 2896 Fit      -0.008216
 2897 Fit      -0.000317
 2898 Fit      -0.001517
 2899 Fit      -0.002928
 2900 Fit      -0.004007
 2901 Fit      -0.004520
 2902 Fit      -0.004465
 2903 Fit      -0.004002
 2904 Fit      -0.003378
 2905 Fit      -0.002863
 2906 Fit      -0.002679
 2907 Fit      -0.002953
 2908 Fit      -0.003693
 2909 Fit      -0.004782
 2910 Fit      -0.006016
 2911 Fit      -0.007149
 2912 Fit      -0.007960
 2913 Fit      -0.008321
 2914 Fit      -0.008255
 2915 Fit      -0.007982
 2916 Fit      -0.007938
 2917 Fit       0.000200
 2918 Fit      -0.001332
 2919 Fit      -0.002837
 2920 Fit      -0.003871
 2921 Fit      -0.004293
 2922 Fit      -0.004174
 2923 Fit      -0.003721
 2924 Fit      -0.003204
 2925 Fit      -0.002883
 2926 Fit      -0.002944
 2927 Fit      -0.003456
 2928 Fit      -0.004358
 2929 Fit      -0.005476
 2930 Fit      -0.006568
 2931 Fit      -0.007389
 2932 Fit      -0.007759
 2933 Fit      -0.007630
 2934 Fit      -0.007132
 2935 Fit      -0.006613
 2936 Fit       0.000269
 2937 Fit      -0.001700
 2938 Fit      -0.003101
 2939 Fit      -0.003788
 2940 Fit      -0.003863
 2941 Fit      -0.003586
 2942 Fit      -0.003273
 2943 Fit      -0.003200
 2944 Fit      -0.003524
 2945 Fit      -0.004241
 2946 Fit      -0.005191
 2947 Fit      -0.006105
 2948 Fit      -0.006690
 2949 Fit      -0.006720
 2950 Fit      -0.006114
 2951 Fit      -0.004991
 2952 Fit       0.002864
 2953 Fit       0.000069
 2954 Fit      -0.001887
 2955 Fit      -0.002981
 2956 Fit      -0.003385
 2957 Fit      -0.003408
 2958 Fit      -0.003390
 2959 Fit      -0.003583
 2960 Fit      -0.004072
 2961 Fit      -0.004742
 2962 Fit      -0.005325
 2963 Fit      -0.005493
 2964 Fit      -0.004960
 2965 Fit      -0.003559
 2966 Fit      -0.001242
 2967 Fit       0.004666
 2968 Fit       0.000904
 2969 Fit      -0.001338
 2970 Fit      -0.002468
 2971 Fit      -0.002953
 2972 Fit      -0.003248
 2973 Fit      -0.003610
 2974 Fit      -0.003978
 2975 Fit      -0.004002
 2976 Fit      -0.003195
 2977 Fit      -0.001066
 2978 Fit       0.004490
 2979 Fit       0.000543
 2980 Fit      -0.001341
 2981 Fit      -0.002145
 2982 Fit      -0.002393
 2983 Fit      -0.001825
 2984 Fit       0.000479
 2985 Fit       0.002892
 2986 Fit       0.000422
 2987 Fit       0.001275
 2988 Fit       0.015561
 2989 Fit       0.015824
 2990 Fit       0.017086
 2991 Fit       0.016585
 2992 Fit       0.015872
 2993 Fit       0.014159
 2994 Fit       0.013804
 2995 Fit       0.016567
 2996 Fit       0.018908
 2997 Fit       0.018830
 2998 Fit       0.017426
 2999 Fit       0.016727
 3000 Fit       0.017338
 3001 Fit       0.013605
 3002 Fit       0.011290
 3003 Fit       0.011143
 3004 Fit       0.013222
 3005 Fit       0.018149
 3006 Fit       0.021658
 3007 Fit       0.022497
 3008 Fit       0.020867
 3009 Fit       0.018270
 3010 Fit       0.016277
 3011 Fit       0.007776
 3012 Fit       0.007809
 3013 Fit       0.009695
 3014 Fit       0.013490
 3015 Fit       0.026434
 3016 Fit       0.022623
 3017 Fit       0.003844
 3018 Fit       0.005295
 3019 Fit       0.009022
 3020 Fit       0.012983
 3021 Fit       0.015009
 3022 Fit       0.014496
 3023 Fit       0.012530
 3024 Fit       0.011273
 3025 Fit       0.011143
 3026 Fit       0.012634
 3027 Fit       0.015061
 3028 Fit       0.012558
 3029 Fit       0.010853
 3030 Fit       0.009690
 3031 Fit       0.009035
 3032 Fit       0.008886
 3033 Fit       0.009304
 3034 Fit       0.010889
 3035 Fit       0.014491
 3036 Fit       0.011774
 3037 Fit       0.009968
 3038 Fit       0.008557
 3039 Fit       0.007385
 3040 Fit       0.006570
 3041 Fit       0.006211
 3042 Fit       0.006208
 3043 Fit       0.006376
 3044 Fit       0.006787
 3045 Fit       0.008061
 3046 Fit       0.006358
 3047 Fit       0.004794
 3048 Fit       0.002940
 3049 Fit       0.003279
 3050 Fit       0.008742
 3051 Fit       0.006746
 3052 Fit       0.003471
 3053 Fit       0.013004
 3054 Fit       0.010755
 3055 Fit       0.008895
 3056 Fit       0.007300
 3057 Fit       0.006200
 3058 Fit       0.005825
 3059 Fit       0.006088
 3060 Fit       0.006708
 3061 Fit       0.007674
 3062 Fit       0.009549
 3063 Fit       0.019211
 3064 Fit       0.016321
 3065 Fit       0.013538
 3066 Fit       0.011442
 3067 Fit       0.009948
 3068 Fit       0.009185
 3069 Fit       0.009235
 3070 Fit       0.010078
 3071 Fit       0.012118
 3072 Fit       0.015833
 3073 Fit       0.016122
 3074 Fit       0.015559
 3075 Fit       0.013332
 3076 Fit       0.011846
 3077 Fit       0.011855
 3078 Fit       0.013679
 3079 Fit       0.013882
 3080 Fit       0.009392
 3081 Fit       0.025211
 3082 Fit       0.021603
 3083 Fit       0.018878
 3084 Fit       0.011350
 3085 Fit       0.012676
 3086 Fit       0.021919
 3087 Fit       0.023552
 3088 Fit       0.022676
 3089 Fit       0.020526
 3090 Fit       0.019467
 3091 Fit       0.016401
 3092 Fit       0.014545
 3093 Fit       0.015399
 3094 Fit       0.018436
 3095 Fit       0.019950
 3096 Fit       0.020699
 3097 Fit       0.019640
 3098 Fit       0.018836
 3099 Fit       0.017290
 3100 Fit       0.017596
 3101 Fit       0.018916
 3102 Fit      -0.008564
 3103 Fit      -0.014957
 3104 Fit      -0.009944
 3105 Fit      -0.016540
 3106 Fit      -0.006702
 3107 Fit      -0.009840
 3108 Fit      -0.016913
 3109 Fit      -0.004579
 3110 Fit      -0.007414
 3111 Fit      -0.013273
 3112 Fit      -0.001200
 3113 Fit      -0.003425
 3114 Fit      -0.007576
 3115 Fit      -0.013906
 3116 Fit       0.001014
 3117 Fit      -0.002810
 3118 Fit      -0.007727
 3119 Fit      -0.012980
 3120 Fit       0.003714
 3121 Fit      -0.000737
 3122 Fit       0.008676
 3123 Fit       0.007284
 3124 Fit       0.012545
 3125 Fit       0.018614
 3126 Fit       0.024573
 3127 Fit       0.000742
 3128 Fit       0.003370
 3129 Fit       0.010511
 3130 Fit       0.015549
 3131 Fit       0.020824
 3132 Fit       0.024740
 3133 Fit       0.012968
 3134 Fit       0.008059
 3135 Fit       0.005990
 3136 Fit       0.007031
 3137 Fit       0.013184
 3138 Fit       0.017823
 3139 Fit       0.020758
 3140 Fit       0.018940
 3141 Fit       0.013610
 3142 Fit       0.011004
 3143 Fit       0.015795
 3144 Fit       0.027777
 3145 Fit       0.024092
 3146 Fit       0.021349
 3147 Fit       0.019147
 3148 Fit       0.029195
 3149 Fit       0.026108
 3150 Fit       0.023501
 3151 Fit       0.021792
 3152 Fit       0.025499
 3153 Fit       0.026737
 3154 Fit       0.026375
 3155 Fit       0.024662
 3156 Fit       0.023467
 3157 Fit       0.024353
 3158 Fit       0.025382
 3159 Fit       0.025209
 3160 Fit       0.024672
 3161 Fit       0.026073
 3162 Fit       0.026618
 3163 Fit       0.025602
 3164 Fit       0.029065
 3165 Fit       0.030191
 3166 Fit       0.025323
 3167 Fit       0.030551
 3168 Fit       0.025066
 3169 Fit       0.021696
 3170 Fit       0.030461
 3171 Fit       0.025336
 3172 Fit       0.021858
 3173 Fit       0.018985
 3174 Fit       0.016080
 3175 Fit       0.029201
 3176 Fit       0.024839
 3177 Fit       0.021613
 3178 Fit       0.018809
 3179 Fit       0.015844
 3180 Fit       0.025780
 3181 Fit       0.022148
 3182 Fit       0.019132
 3183 Fit       0.016072
 3184 Fit       0.012261
 3185 Fit       0.026324
 3186 Fit       0.022281
 3187 Fit       0.019059
 3188 Fit       0.015860
 3189 Fit       0.011907
 3190 Fit       0.021880
 3191 Fit       0.018570
 3192 Fit       0.015207
 3193 Fit       0.025139
 3194 Fit       0.021923
 3195 Fit       0.025431
 3196 Fit       0.027749
 3197 Fit       0.028267
 3198 Fit       0.025340
 3199 Fit       0.020926
 3200 Fit       0.018631
 3201 Fit       0.023056
 3202 Fit       0.026332
 3203 Fit       0.028374
 3204 Fit       0.029704
 3205 Fit       0.030808
 3206 Fit       0.031403
 3207 Fit       0.014768
 3208 Fit       0.014556
 3209 Fit       0.015387
 3210 Fit       0.020620
 3211 Fit       0.024545
 3212 Fit       0.027211
 3213 Fit       0.028858
 3214 Fit       0.029927
 3215 Fit       0.030932
 3216 Fit       0.009142
 3217 Fit       0.012518
 3218 Fit       0.018622
 3219 Fit       0.023233
 3220 Fit       0.026537
 3221 Fit       0.028668
 3222 Fit       0.029869
 3223 Fit       0.030564
 3224 Fit       0.028503
 3225 Fit       0.030099
 3226 Fit       0.024356
 3227 Fit       0.027185
 3228 Fit       0.029028
 3229 Fit       0.030121
 3230 Fit       0.030707
 3231 Fit       0.019988
 3232 Fit       0.023981
 3233 Fit       0.026825
 3234 Fit       0.028729
 3235 Fit       0.029900
 3236 Fit       0.030552
 3237 Fit       0.030936
 3238 Fit       0.020731
 3239 Fit       0.024359
 3240 Fit       0.027016
 3241 Fit       0.028834
 3242 Fit       0.029993
 3243 Fit       0.030711
 3244 Fit       0.031258
 3245 Fit       0.018399
 3246 Fit       0.022525
 3247 Fit       0.025841
 3248 Fit       0.028205
 3249 Fit       0.029765
 3250 Fit       0.030840
 3251 Fit       0.031953
 3252 Fit       0.021184
 3253 Fit       0.024789
 3254 Fit       0.027738
 3255 Fit       0.029771
 3256 Fit       0.031487
 3257 Fit       0.024314
 3258 Fit       0.027272
 3259 Fit       0.029856
 3260 Fit       0.027780
 -----------------------------------------------------------------
 Leave Link  602 at Thu Jan 16 21:49:34 2014, MaxMem=   235929600 cpu:         1.2

 Test job not archived.
 1\1\GINC-G30\SP\RHF\Gen\C10H12Cl1N1O2\KOLAR\16-Jan-2014\0\\# hf/gen po
 p=mk iop(6/33=2,6/41=5,6/42=2)\\na resp\\0,1\C,0,-1.052373,0.076149,1.
 31257\C,0,-2.439931,-0.061861,1.260347\C,0,-3.070063,-0.100063,0.01873
 5\C,0,-2.332557,-0.006667,-1.160937\C,0,-0.947252,0.129604,-1.087036\C
 ,0,-0.282636,0.173909,0.147372\C,0,1.227475,0.353409,0.226141\H,0,1.51
 5245,0.223248,1.278531\C,0,1.9815,-0.714695,-0.625052\C,0,3.314878,-1.
 219658,-0.055354\O,0,4.251658,-0.293848,0.193817\O,0,3.516731,-2.39688
 6,0.144466\C,0,1.577682,1.805351,-0.177112\N,0,3.003387,2.115213,0.050
 887\Cl,0,-4.81815,-0.272844,-0.063594\H,0,-0.562252,0.100255,2.283035\
 H,0,-3.023662,-0.1427,2.171171\H,0,-2.835435,-0.043231,-2.121554\H,0,-
 0.380357,0.192435,-2.012539\H,0,1.358046,-1.603347,-0.734664\H,0,2.165
 289,-0.319644,-1.634595\H,0,1.376784,1.932305,-1.246923\H,0,0.913239,2
 .499019,0.357077\H,0,3.15827,2.36263,1.027885\H,0,3.900028,0.622967,-0
 .006532\H,0,3.292194,2.92091,-0.500304\\Version=AM64L-G09RevD.01\State
 =1-A\HF=-1049.3295314\RMSD=3.918e-09\Dipole=-0.6233012,2.6425934,-0.25
 56174\Quadrupole=-16.4099584,3.0640355,13.3459229,17.4182678,-2.573855
 7,1.315113\PG=C01 [X(C10H12Cl1N1O2)]\\@


 YOU CAN WIPE THE SLATE CLEAN, BUT YOU'LL STILL
 HAVE TO EAT A LITTLE CHALK DUST.
 Job cpu time:       0 days  0 hours  2 minutes 42.0 seconds.
 File lengths (MBytes):  RWF=     29 Int=      0 D2E=      0 Chk=      3 Scr=      1
 Normal termination of Gaussian 09 at Thu Jan 16 21:49:34 2014.
161.62user 0.39system 2:47.81elapsed 96%CPU (0avgtext+0avgdata 603408maxresident)k
176272inputs+128040outputs (10major+170507minor)pagefaults 0swaps
