Linux g42 2.6.38.6-client #1 SMP Tue Jun 12 11:27:21 CEST 2012 x86_64 GNU/Linux
Thu Jan 16 21:46:47 CET 2014

 Entering Gaussian System, Link 0=/usr/local/programs/common/gaussian/gaussian09_d01/arch/amd64-pgi_10.4.0-acml/g09/g09
 Initial command:
 /usr/local/programs/common/gaussian/gaussian09_d01/arch/amd64-pgi_10.4.0-acml/g09/l1.exe "/scratch/kolar/g09_17749/Gau-2229.inp" -scrdir="/scratch/kolar/g09_17749/"
 Entering Link 1 = /usr/local/programs/common/gaussian/gaussian09_d01/arch/amd64-pgi_10.4.0-acml/g09/l1.exe PID=      2237.
  
 Copyright (c) 1988,1990,1992,1993,1995,1998,2003,2009,2013,
            Gaussian, Inc.  All Rights Reserved.
  
 This is part of the Gaussian(R) 09 program.  It is based on
 the Gaussian(R) 03 system (copyright 2003, Gaussian, Inc.),
 the Gaussian(R) 98 system (copyright 1998, Gaussian, Inc.),
 the Gaussian(R) 94 system (copyright 1995, Gaussian, Inc.),
 the Gaussian 92(TM) system (copyright 1992, Gaussian, Inc.),
 the Gaussian 90(TM) system (copyright 1990, Gaussian, Inc.),
 the Gaussian 88(TM) system (copyright 1988, Gaussian, Inc.),
 the Gaussian 86(TM) system (copyright 1986, Carnegie Mellon
 University), and the Gaussian 82(TM) system (copyright 1983,
 Carnegie Mellon University). Gaussian is a federally registered
 trademark of Gaussian, Inc.
  
 This software contains proprietary and confidential information,
 including trade secrets, belonging to Gaussian, Inc.
  
 This software is provided under written license and may be
 used, copied, transmitted, or stored only in accord with that
 written license.
  
 The following legend is applicable only to US Government
 contracts under FAR:
  
                    RESTRICTED RIGHTS LEGEND
  
 Use, reproduction and disclosure by the US Government is
 subject to restrictions as set forth in subparagraphs (a)
 and (c) of the Commercial Computer Software - Restricted
 Rights clause in FAR 52.227-19.
  
 Gaussian, Inc.
 340 Quinnipiac St., Bldg. 40, Wallingford CT 06492
  
  
 ---------------------------------------------------------------
 Warning -- This program may not be used in any manner that
 competes with the business of Gaussian, Inc. or will provide
 assistance to any competitor of Gaussian, Inc.  The licensee
 of this program is prohibited from giving any competitor of
 Gaussian, Inc. access to this program.  By using this program,
 the user acknowledges that Gaussian, Inc. is engaged in the
 business of creating and licensing software in the field of
 computational chemistry and represents and warrants to the
 licensee that it is not a competitor of Gaussian, Inc. and that
 it will not use this program in any manner prohibited above.
 ---------------------------------------------------------------
  

 Cite this work as:
 Gaussian 09, Revision D.01,
 M. J. Frisch, G. W. Trucks, H. B. Schlegel, G. E. Scuseria, 
 M. A. Robb, J. R. Cheeseman, G. Scalmani, V. Barone, B. Mennucci, 
 G. A. Petersson, H. Nakatsuji, M. Caricato, X. Li, H. P. Hratchian, 
 A. F. Izmaylov, J. Bloino, G. Zheng, J. L. Sonnenberg, M. Hada, 
 M. Ehara, K. Toyota, R. Fukuda, J. Hasegawa, M. Ishida, T. Nakajima, 
 Y. Honda, O. Kitao, H. Nakai, T. Vreven, J. A. Montgomery, Jr., 
 J. E. Peralta, F. Ogliaro, M. Bearpark, J. J. Heyd, E. Brothers, 
 K. N. Kudin, V. N. Staroverov, T. Keith, R. Kobayashi, J. Normand, 
 K. Raghavachari, A. Rendell, J. C. Burant, S. S. Iyengar, J. Tomasi, 
 M. Cossi, N. Rega, J. M. Millam, M. Klene, J. E. Knox, J. B. Cross, 
 V. Bakken, C. Adamo, J. Jaramillo, R. Gomperts, R. E. Stratmann, 
 O. Yazyev, A. J. Austin, R. Cammi, C. Pomelli, J. W. Ochterski, 
 R. L. Martin, K. Morokuma, V. G. Zakrzewski, G. A. Voth, 
 P. Salvador, J. J. Dannenberg, S. Dapprich, A. D. Daniels, 
 O. Farkas, J. B. Foresman, J. V. Ortiz, J. Cioslowski, 
 and D. J. Fox, Gaussian, Inc., Wallingford CT, 2013.
 
 ******************************************
 Gaussian 09:  AM64L-G09RevD.01 24-Apr-2013
                16-Jan-2014 
 ******************************************
 %mem=1800mb
 -----------------------------------------
 # hf/gen pop=mk iop(6/33=2,6/41=5,6/42=2)
 -----------------------------------------
 1/38=1/1;
 2/12=2,17=6,18=5,40=1/2;
 3/5=7,11=9,16=1,25=1,30=1/1,2,3;
 4//1;
 5/5=2,38=5/2;
 6/7=2,8=2,9=2,10=2,15=8,20=1,28=1,33=2,41=5,42=2/1,2;
 99/5=1,9=1/99;
 -------
 na resp
 -------
 Symbolic Z-matrix:
 Charge =  0 Multiplicity = 1
 6                    -2.1128    1.92772  -0.00002 
 6                    -0.88157   2.62479   0.00005 
 6                     0.29677   1.9123    0.00003 
 6                     0.25901   0.49471   0.00001 
 6                    -1.03815  -0.10382  -0.00002 
 7                    -2.19421   0.61103  -0.00004 
 6                    -1.18318  -1.52671   0.00001 
 6                    -0.05927  -2.32744   0.00004 
 6                     1.22501  -1.74022   0.00003 
 6                     1.38579  -0.37141   0.00001 
 17                    3.0121    0.30641  -0.00003 
 8                    -2.42783  -2.04697  -0.00001 
 1                    -0.87756   3.7102   -0.00001 
 1                     1.25552   2.42027   0.0001 
 1                     2.10189  -2.37913   0.00003 
 1                    -0.16987  -3.40643   0.00008 
 1                    -3.05352   2.47547   0.00001 
 1                    -3.02978  -1.2704   -0.0001 
 
                          Input orientation:                          
 ---------------------------------------------------------------------
 Center     Atomic      Atomic             Coordinates (Angstroms)
 Number     Number       Type             X           Y           Z
 ---------------------------------------------------------------------
      1          6           0       -2.112799    1.927715   -0.000016
      2          6           0       -0.881571    2.624794    0.000049
      3          6           0        0.296769    1.912296    0.000034
      4          6           0        0.259012    0.494714    0.000006
      5          6           0       -1.038146   -0.103824   -0.000015
      6          7           0       -2.194208    0.611028   -0.000042
      7          6           0       -1.183180   -1.526707    0.000006
      8          6           0       -0.059270   -2.327438    0.000039
      9          6           0        1.225015   -1.740223    0.000025
     10          6           0        1.385793   -0.371408    0.000008
     11         17           0        3.012099    0.306413   -0.000032
     12          8           0       -2.427831   -2.046965   -0.000011
     13          1           0       -0.877557    3.710203   -0.000006
     14          1           0        1.255517    2.420269    0.000101
     15          1           0        2.101893   -2.379126    0.000033
     16          1           0       -0.169869   -3.406425    0.000076
     17          1           0       -3.053522    2.475473    0.000006
     18          1           0       -3.029782   -1.270402   -0.000096
 ---------------------------------------------------------------------
                    Distance matrix (angstroms):
                    1          2          3          4          5
     1  C    0.000000
     2  C    1.414864   0.000000
     3  C    2.409617   1.377003   0.000000
     4  C    2.771097   2.416231   1.418085   0.000000
     5  C    2.298267   2.733107   2.418003   1.428589   0.000000
     6  N    1.319201   2.403803   2.810385   2.455976   1.359225
     7  C    3.577321   4.162443   3.743927   2.483155   1.430256
     8  C    4.724755   5.020038   4.254657   2.840043   2.429539
     9  C    4.959312   4.846760   3.768625   2.434770   2.792794
    10  C    4.186420   3.757415   2.530075   1.421198   2.438664
    11  Cl   5.375240   4.531617   3.154660   2.759519   4.070968
    12  O    3.987145   4.921001   4.806162   3.698548   2.388937
    13  H    2.168660   1.085416   2.147443   3.410448   3.817406
    14  H    3.404139   2.146852   1.085004   2.168129   3.410562
    15  H    6.025986   5.825828   4.655618   3.413966   3.877737
    16  H    5.676973   6.073065   5.339152   3.924643   3.414832
    17  H    1.088576   2.177078   3.397296   3.859571   3.273303
    18  H    3.326982   4.448299   4.603858   3.732533   2.308142
                    6          7          8          9         10
     6  N    0.000000
     7  C    2.364760   0.000000
     8  C    3.632154   1.379980   0.000000
     9  C    4.149635   2.417642   1.412165   0.000000
    10  C    3.712356   2.816796   2.431925   1.378225   0.000000
    11  Cl   5.215211   4.578285   4.046045   2.717055   1.761906
    12  O    2.668240   1.349009   2.385109   3.665702   4.165479
    13  H    3.367262   5.245820   6.092840   5.841913   4.667151
    14  H    3.895376   4.639597   4.926397   4.160604   2.794715
    15  H    5.234263   3.393865   2.161781   1.084948   2.131603
    16  H    4.498653   2.135448   1.084641   2.173000   3.410486
    17  H    2.052943   4.417649   5.659814   6.006494   5.273732
    18  H    2.058631   1.864304   3.152977   4.280658   4.506162
                   11         12         13         14         15
    11  Cl   0.000000
    12  O    5.927160   0.000000
    13  H    5.168676   5.962242   0.000000
    14  H    2.748448   5.789925   2.492776   0.000000
    15  H    2.835594   4.541886   6.779163   4.873453   0.000000
    16  H    4.889794   2.635626   7.151728   5.998507   2.493240
    17  H    6.441784   4.565516   2.501876   4.309393   7.081344
    18  H    6.244251   0.982545   5.425726   5.655514   5.250082
                   16         17         18
    16  H    0.000000
    17  H    6.550739   0.000000
    18  H    3.569551   3.745950   0.000000
 Stoichiometry    C9H6ClNO
 Framework group  C1[X(C9H6ClNO)]
 Deg. of freedom    48
 Full point group                 C1      NOp   1
 Largest Abelian subgroup         C1      NOp   1
 Largest concise Abelian subgroup C1      NOp   1
                         Standard orientation:                         
 ---------------------------------------------------------------------
 Center     Atomic      Atomic             Coordinates (Angstroms)
 Number     Number       Type             X           Y           Z
 ---------------------------------------------------------------------
      1          6           0       -2.112799    1.927715   -0.000016
      2          6           0       -0.881571    2.624794    0.000049
      3          6           0        0.296769    1.912296    0.000034
      4          6           0        0.259012    0.494714    0.000006
      5          6           0       -1.038146   -0.103824   -0.000015
      6          7           0       -2.194208    0.611028   -0.000042
      7          6           0       -1.183180   -1.526707    0.000006
      8          6           0       -0.059270   -2.327438    0.000039
      9          6           0        1.225015   -1.740223    0.000025
     10          6           0        1.385793   -0.371408    0.000008
     11         17           0        3.012099    0.306412   -0.000032
     12          8           0       -2.427831   -2.046965   -0.000011
     13          1           0       -0.877556    3.710203   -0.000006
     14          1           0        1.255517    2.420269    0.000101
     15          1           0        2.101893   -2.379126    0.000033
     16          1           0       -0.169870   -3.406425    0.000076
     17          1           0       -3.053522    2.475474    0.000006
     18          1           0       -3.029782   -1.270401   -0.000096
 ---------------------------------------------------------------------
 Rotational constants (GHZ):      1.1883088      0.7894274      0.4743219
 General basis read from cards:  (5D, 7F)
 There are   196 symmetry adapted cartesian basis functions of A   symmetry.
 There are   184 symmetry adapted basis functions of A   symmetry.
   184 basis functions,   384 primitive gaussians,   196 cartesian basis functions
    46 alpha electrons       46 beta electrons
       nuclear repulsion energy       728.9093639121 Hartrees.
 NAtoms=   18 NActive=   18 NUniq=   18 SFac= 1.00D+00 NAtFMM=   60 NAOKFM=F Big=F
 Integral buffers will be    131072 words long.
 Raffenetti 1 integral format.
 Two-electron integral symmetry is turned on.
 One-electron integrals computed using PRISM.
 NBasis=   184 RedAO= T EigKep=  3.78D-04  NBF=   184
 NBsUse=   184 1.00D-06 EigRej= -1.00D+00 NBFU=   184
 ExpMin= 1.43D-01 ExpMax= 2.52D+04 ExpMxC= 3.78D+03 IAcc=1 IRadAn=         1 AccDes= 0.00D+00
 Harris functional with IExCor=  205 and IRadAn=       1 diagonalized for initial guess.
 HarFok:  IExCor=  205 AccDes= 0.00D+00 IRadAn=         1 IDoV= 1 UseB2=F ITyADJ=14
 ICtDFT=  3500011 ScaDFX=  1.000000  1.000000  1.000000  1.000000
 FoFCou: FMM=F IPFlag=           0 FMFlag=      100000 FMFlg1=           0
         NFxFlg=           0 DoJE=T BraDBF=F KetDBF=T FulRan=T
         wScrn=  0.000000 ICntrl=     500 IOpCl=  0 I1Cent=   200000004 NGrid=           0
         NMat0=    1 NMatS0=      1 NMatT0=    0 NMatD0=    1 NMtDS0=    0 NMtDT0=    0
 Petite list used in FoFCou.
 Keep R1 ints in memory in canonical form, NReq=148807729.
 Requested convergence on RMS density matrix=1.00D-08 within 128 cycles.
 Requested convergence on MAX density matrix=1.00D-06.
 Requested convergence on             energy=1.00D-06.
 No special actions if energy rises.
 SCF Done:  E(RHF) =  -933.101559390     A.U. after   16 cycles
            NFock= 16  Conv=0.46D-08     -V/T= 2.0006

 **********************************************************************

            Population analysis using the SCF density.

 **********************************************************************

 Orbital symmetries:
 BldTbl:  Degeneracy threshold= 1.00D-02
       Occupied  (A) (A) (A) (A) (A) (A) (A) (A) (A) (A) (A) (A)
                 (A) (A) (A) (A) (A) (A) (A) (A) (A) (A) (A) (A)
                 (A) (A) (A) (A) (A) (A) (A) (A) (A) (A) (A) (A)
                 (A) (A) (A) (A) (A) (A) (A) (A) (A) (A)
       Virtual   (A) (A) (A) (A) (A) (A) (A) (A) (A) (A) (A) (A)
                 (A) (A) (A) (A) (A) (A) (A) (A) (A) (A) (A) (A)
                 (A) (A) (A) (A) (A) (A) (A) (A) (A) (A) (A) (A)
                 (A) (A) (A) (A) (A) (A) (A) (A) (A) (A) (A) (A)
                 (A) (A) (A) (A) (A) (A) (A) (A) (A) (A) (A) (A)
                 (A) (A) (A) (A) (A) (A) (A) (A) (A) (A) (A) (A)
                 (A) (A) (A) (A) (A) (A) (A) (A) (A) (A) (A) (A)
                 (A) (A) (A) (A) (A) (A) (A) (A) (A) (A) (A) (A)
                 (A) (A) (A) (A) (A) (A) (A) (A) (A) (A) (A) (A)
                 (A) (A) (A) (A) (A) (A) (A) (A) (A) (A) (A) (A)
                 (A) (A) (A) (A) (A) (A) (A) (A) (A) (A) (A) (A)
                 (A) (A) (A) (A) (A) (A)
 The electronic state is 1-A.
 Alpha  occ. eigenvalues -- -104.82526 -20.58961 -15.59361 -11.31577 -11.30483
 Alpha  occ. eigenvalues --  -11.29822 -11.29190 -11.27568 -11.27466 -11.26222
 Alpha  occ. eigenvalues --  -11.26000 -11.24313 -10.56337  -8.03193  -8.02874
 Alpha  occ. eigenvalues --   -8.02861  -1.40947  -1.27908  -1.18502  -1.10959
 Alpha  occ. eigenvalues --   -1.09978  -1.04094  -0.98596  -0.89415  -0.88596
 Alpha  occ. eigenvalues --   -0.81144  -0.75638  -0.74374  -0.71126  -0.66885
 Alpha  occ. eigenvalues --   -0.63949  -0.62825  -0.60673  -0.59848  -0.59409
 Alpha  occ. eigenvalues --   -0.56969  -0.55219  -0.54367  -0.51696  -0.51388
 Alpha  occ. eigenvalues --   -0.45892  -0.44233  -0.44100  -0.40938  -0.34391
 Alpha  occ. eigenvalues --   -0.29627
 Alpha virt. eigenvalues --    0.06593   0.10330   0.17326   0.19510   0.23705
 Alpha virt. eigenvalues --    0.26319   0.26958   0.28405   0.29154   0.31053
 Alpha virt. eigenvalues --    0.32220   0.39637   0.40263   0.40647   0.43014
 Alpha virt. eigenvalues --    0.44891   0.47048   0.48600   0.50891   0.54482
 Alpha virt. eigenvalues --    0.60035   0.60321   0.61561   0.63270   0.65312
 Alpha virt. eigenvalues --    0.67914   0.70392   0.72355   0.72534   0.74863
 Alpha virt. eigenvalues --    0.75157   0.77189   0.79129   0.80769   0.82019
 Alpha virt. eigenvalues --    0.83143   0.83290   0.83986   0.84694   0.86965
 Alpha virt. eigenvalues --    0.89655   0.90539   0.91668   0.92021   0.94641
 Alpha virt. eigenvalues --    0.97662   1.00249   1.02646   1.06623   1.07517
 Alpha virt. eigenvalues --    1.08654   1.09568   1.11832   1.11879   1.13041
 Alpha virt. eigenvalues --    1.14456   1.15072   1.17313   1.17830   1.20973
 Alpha virt. eigenvalues --    1.21034   1.22719   1.23966   1.28072   1.28368
 Alpha virt. eigenvalues --    1.29974   1.32812   1.34727   1.35550   1.39184
 Alpha virt. eigenvalues --    1.40977   1.42548   1.45756   1.48686   1.52029
 Alpha virt. eigenvalues --    1.53305   1.57375   1.60817   1.64367   1.65708
 Alpha virt. eigenvalues --    1.66239   1.69185   1.72745   1.72918   1.74520
 Alpha virt. eigenvalues --    1.75977   1.77445   1.81270   1.83956   1.96138
 Alpha virt. eigenvalues --    2.00760   2.00789   2.02063   2.06603   2.09246
 Alpha virt. eigenvalues --    2.11014   2.15307   2.18360   2.21052   2.22220
 Alpha virt. eigenvalues --    2.23357   2.26520   2.29553   2.30820   2.35288
 Alpha virt. eigenvalues --    2.39429   2.40744   2.44973   2.48207   2.49245
 Alpha virt. eigenvalues --    2.53089   2.56975   2.60212   2.60633   2.62132
 Alpha virt. eigenvalues --    2.63876   2.66047   2.68044   2.73385   2.78834
 Alpha virt. eigenvalues --    2.84163   2.92498   2.93681   2.94818   2.95068
 Alpha virt. eigenvalues --    3.01281   3.03458   3.04146   3.09071   3.11246
 Alpha virt. eigenvalues --    3.12942   3.20930   3.29263   3.31911   3.36518
 Alpha virt. eigenvalues --    3.47202   3.76933   3.81753
          Condensed to atoms (all electrons):
               1          2          3          4          5          6
     1  C    4.671041   0.485033  -0.047739  -0.016044  -0.077495   0.518942
     2  C    0.485033   5.030264   0.556718  -0.036961  -0.023564  -0.041711
     3  C   -0.047739   0.556718   4.895869   0.495213  -0.039587  -0.036862
     4  C   -0.016044  -0.036961   0.495213   4.871165   0.492259  -0.066052
     5  C   -0.077495  -0.023564  -0.039587   0.492259   4.734913   0.399234
     6  N    0.518942  -0.041711  -0.036862  -0.066052   0.399234   6.950238
     7  C    0.001632  -0.000234   0.002922  -0.035350   0.472630  -0.065105
     8  C   -0.000154   0.000045  -0.000123  -0.024483  -0.052653   0.003429
     9  C    0.000066  -0.000176   0.003764  -0.043566  -0.029599  -0.000465
    10  C   -0.000472   0.004774  -0.052955   0.416251  -0.023018   0.006855
    11  Cl  -0.000009   0.000636   0.000822  -0.071617   0.000509  -0.000067
    12  O    0.000280  -0.000033  -0.000044   0.004850  -0.058190  -0.020136
    13  H   -0.026156   0.377194  -0.025672   0.001666   0.000376   0.003059
    14  H    0.002138  -0.028101   0.382148  -0.027670   0.001825  -0.000221
    15  H    0.000000   0.000001  -0.000090   0.001488   0.000322   0.000001
    16  H    0.000002   0.000000   0.000003  -0.000095   0.003697  -0.000069
    17  H    0.399852  -0.047599   0.002103  -0.000054   0.003363  -0.039271
    18  H    0.000152   0.000071   0.000008   0.001225  -0.006529   0.030109
               7          8          9         10         11         12
     1  C    0.001632  -0.000154   0.000066  -0.000472  -0.000009   0.000280
     2  C   -0.000234   0.000045  -0.000176   0.004774   0.000636  -0.000033
     3  C    0.002922  -0.000123   0.003764  -0.052955   0.000822  -0.000044
     4  C   -0.035350  -0.024483  -0.043566   0.416251  -0.071617   0.004850
     5  C    0.472630  -0.052653  -0.029599  -0.023018   0.000509  -0.058190
     6  N   -0.065105   0.003429  -0.000465   0.006855  -0.000067  -0.020136
     7  C    4.406167   0.606490  -0.034163  -0.032084   0.000330   0.261755
     8  C    0.606490   4.995346   0.475730  -0.044100   0.001769  -0.049537
     9  C   -0.034163   0.475730   4.949754   0.557184  -0.067368   0.002584
    10  C   -0.032084  -0.044100   0.557184   5.163864   0.218238  -0.000130
    11  Cl   0.000330   0.001769  -0.067368   0.218238  16.911051   0.000001
    12  O    0.261755  -0.049537   0.002584  -0.000130   0.000001   8.417327
    13  H    0.000013   0.000000   0.000001  -0.000062  -0.000005   0.000000
    14  H   -0.000050  -0.000007   0.000092  -0.003412   0.001120   0.000000
    15  H    0.001602  -0.024246   0.380320  -0.026682   0.001044  -0.000031
    16  H   -0.024636   0.376028  -0.029770   0.002423  -0.000079  -0.000522
    17  H   -0.000018   0.000002   0.000000   0.000011   0.000000   0.000020
    18  H   -0.039491   0.003117  -0.000116  -0.000084   0.000000   0.258966
              13         14         15         16         17         18
     1  C   -0.026156   0.002138   0.000000   0.000002   0.399852   0.000152
     2  C    0.377194  -0.028101   0.000001   0.000000  -0.047599   0.000071
     3  C   -0.025672   0.382148  -0.000090   0.000003   0.002103   0.000008
     4  C    0.001666  -0.027670   0.001488  -0.000095  -0.000054   0.001225
     5  C    0.000376   0.001825   0.000322   0.003697   0.003363  -0.006529
     6  N    0.003059  -0.000221   0.000001  -0.000069  -0.039271   0.030109
     7  C    0.000013  -0.000050   0.001602  -0.024636  -0.000018  -0.039491
     8  C    0.000000  -0.000007  -0.024246   0.376028   0.000002   0.003117
     9  C    0.000001   0.000092   0.380320  -0.029770   0.000000  -0.000116
    10  C   -0.000062  -0.003412  -0.026682   0.002423   0.000011  -0.000084
    11  Cl  -0.000005   0.001120   0.001044  -0.000079   0.000000   0.000000
    12  O    0.000000   0.000000  -0.000031  -0.000522   0.000020   0.258966
    13  H    0.444336  -0.001342   0.000000   0.000000   0.000437  -0.000002
    14  H   -0.001342   0.417322  -0.000001   0.000000  -0.000075   0.000000
    15  H    0.000000  -0.000001   0.429953  -0.001749   0.000000   0.000003
    16  H    0.000000   0.000000  -0.001749   0.441133   0.000000  -0.000132
    17  H    0.000437  -0.000075   0.000000   0.000000   0.461008  -0.000100
    18  H   -0.000002   0.000000   0.000003  -0.000132  -0.000100   0.247335
 Mulliken charges:
               1
     1  C    0.088931
     2  C   -0.276356
     3  C   -0.136499
     4  C    0.037777
     5  C    0.201508
     6  N   -0.641907
     7  C    0.477592
     8  C   -0.266652
     9  C   -0.164271
    10  C   -0.186601
    11  Cl   0.003626
    12  O   -0.817161
    13  H    0.226157
    14  H    0.256234
    15  H    0.238064
    16  H    0.233767
    17  H    0.220321
    18  H    0.505469
 Sum of Mulliken charges =   0.00000
 Mulliken charges with hydrogens summed into heavy atoms:
               1
     1  C    0.309252
     2  C   -0.050198
     3  C    0.119735
     4  C    0.037777
     5  C    0.201508
     6  N   -0.641907
     7  C    0.477592
     8  C   -0.032884
     9  C    0.073793
    10  C   -0.186601
    11  Cl   0.003626
    12  O   -0.311692
 DipInt: DoE/N= T F RetVal/Mat= T F Init=T NMatP=  1 IDeriv=0 Min/MaxMlt=  0  4
 Entering OneElI...
 OneElI was handed   235828697 working-precision words.
 Multipole integrals L=0 to 4 MinM= 0 MaxM= 0.
 Requested accuracy = 0.1000D-12
 ShPair: Thresh= 1.00D-13 NBox=     0 BxSize= 0.00D+00 RnKept= 1.35D+01
         NSMCal=                 1891 NSMKep=                1731
 PrsmSu:  NPrtUS=   1 ThrOK=F IAlg=1 NPAlg=1 LenDen=           0.
 Prism:   IPart=     0 DynPar=F LinDyn=F Incr=          17.
 PRISM was handed   235655769 working-precision words and  1731 shell-pairs
 IPart=  0 NShTot=        1731 NBatch=          79 AvBLen=        21.9
 PrSmSu:  NxtVal=             18.
 Electronic moments (au):
        -92.00000000         -0.14984511          0.89787955         -0.00000720
      -1229.71034408       -888.13450718        -59.04815905         -5.87361816
          0.00043008          0.00006800      -1241.45388992       -136.14548127
         -0.00079633       1177.55536871        -51.29496547          0.04784413
         -0.68739190         -3.00359266         -0.03431971          0.00742638
     -32234.63942072     -19222.01341127       -218.50515137      -1927.66074451
          0.09038880       1209.56760063         -0.02049679          0.00047032
          0.00004763      -7866.44973630       -761.58153615       -618.23488404
          0.01546342         -0.02093154         27.03610346
 Electronic spatial extent (au):  <R**2>=           2176.8930
 DipInt: DoE/N= F T RetVal/Mat= T F Init=T NMatP=  1 IDeriv=0 Min/MaxMlt=  0  4
 Nuclear    moments (au):
         92.00000000          0.00000000          0.00000000          0.00000000
       1171.95627681        839.02947112          0.00000034          0.00000000
         -0.00006435         -0.00006839       1217.07340425        162.52104243
          0.00000000      -1164.10631806         70.17370824         -0.04936346
         -0.00000001          0.00000019          0.03478589         -0.00796633
      28195.52427399      16377.66801811          0.00000000       1884.75510996
         -0.08092089      -1369.55740247          0.01051452          0.00000000
          0.00000000       6683.32731925          0.00000455          0.00000446
         -0.00930402          0.02536405          0.00000034
 Total      moments (au):
          0.00000000         -0.14984511          0.89787955         -0.00000720
        -57.75406728        -49.10503606        -59.04815871         -5.87361816
          0.00036572         -0.00000039        -24.38048567         26.37556116
         -0.00079633         13.44905065         18.87874276         -0.00151932
         -0.68739191         -3.00359247          0.00046618         -0.00053996
      -4039.11514673      -2844.34539316       -218.50515137        -42.90563455
          0.00946791       -159.98980183         -0.00998227          0.00047032
          0.00004763      -1183.12241704       -761.58153160       -618.23487957
          0.00615939          0.00443251         27.03610380
 Traceless Quadrup. (au):
         -2.45164659          6.19738462         -3.74573803         -5.87361816
          0.00036572         -0.00000039
 Charge=              0.0000 electrons
 Dipole moment (field-independent basis, Debye):
    X=             -0.3809    Y=              2.2822    Z=              0.0000  Tot=              2.3137
 Quadrupole moment (field-independent basis, Debye-Ang):
   XX=            -77.6812   YY=            -66.0480   ZZ=            -79.4218
   XY=             -7.9002   XZ=              0.0005   YZ=              0.0000
 Traceless Quadrupole moment (field-independent basis, Debye-Ang):
   XX=             -3.2975   YY=              8.3357   ZZ=             -5.0381
   XY=             -7.9002   XZ=              0.0005   YZ=              0.0000
 Octapole moment (field-independent basis, Debye-Ang**2):
  XXX=            -17.3531  YYY=             18.7731  ZZZ=             -0.0006  XYY=              9.5725
  XXY=             13.4372  XXZ=             -0.0011  XZZ=             -0.4893  YZZ=             -2.1378
  YYZ=              0.0003  XYZ=             -0.0004
 Hexadecapole moment (field-independent basis, Debye-Ang**3):
 XXXX=          -1521.3243 YYYY=          -1071.3168 ZZZZ=            -82.2995 XXXY=            -16.1603
 XXXZ=              0.0036 YYYX=            -60.2598 YYYZ=             -0.0038 ZZZX=              0.0002
 ZZZY=              0.0000 XXYY=           -445.6206 XXZZ=           -286.8481 YYZZ=           -232.8569
 XXYZ=              0.0023 YYXZ=              0.0017 ZZXY=             10.1831
 N-N= 7.289093639121D+02 E-N=-3.658757693941D+03  KE= 9.325846739629D+02
 Entering OneElI...
 OneElI was handed   235851929 working-precision words.
 Calculate electrostatic properties
    NBasis =   184  MinDer = 0  MaxDer = 0
    NGrid  =    18  NMatD  =   1
 Requested accuracy = 0.1000D-12
 ShPair: Thresh= 1.00D-13 NBox=     0 BxSize= 0.00D+00 RnKept= 1.35D+01
         NSMCal=                 1891 NSMKep=                1615
 PrsmSu:  NPrtUS=   1 ThrOK=F IAlg=1 NPAlg=1 LenDen=           0.
 Prism:   IPart=     0 DynPar=F LinDyn=F Incr=         290.
 PRISM was handed   235690841 working-precision words and  1615 shell-pairs
 IPart=  0 NShTot=       29070 NBatch=        1616 AvBLen=        18.0
 PrSmSu:  NxtVal=            291.
 --------------------------------------------------------
       Center         ----      EFG at Nuclei      ----
                      3XX-RR        3YY-RR        3ZZ-RR
 --------------------------------------------------------
     1   Atom        0.259228      0.145472     -0.404700
     2   Atom        0.163329      0.131168     -0.294496
     3   Atom        0.241523      0.190285     -0.431808
     4   Atom        0.123809      0.157476     -0.281284
     5   Atom        0.091671      0.152779     -0.244450
     6   Atom        0.672966     -0.014165     -0.658801
     7   Atom        0.021009      0.282882     -0.303891
     8   Atom        0.105684      0.107813     -0.213497
     9   Atom        0.188294      0.160376     -0.348670
    10   Atom       -0.263859      0.242663      0.021196
    11   Atom       -2.895053      1.086243      1.808811
    12   Atom       -1.609833      0.042026      1.567806
    13   Atom        0.141771     -0.309633      0.167862
    14   Atom       -0.201797      0.041243      0.160554
    15   Atom       -0.150119     -0.015018      0.165137
    16   Atom        0.137853     -0.307805      0.169952
    17   Atom       -0.184948      0.026661      0.158287
    18   Atom       -0.068847     -0.150834      0.219681
 --------------------------------------------------------
                        XY            XZ            YZ
 --------------------------------------------------------
     1   Atom       -0.001949      0.000006      0.000011
     2   Atom       -0.015272      0.000012     -0.000004
     3   Atom       -0.023908      0.000027      0.000011
     4   Atom        0.010277      0.000001      0.000009
     5   Atom        0.066653      0.000002     -0.000003
     6   Atom        0.580730      0.000033      0.000028
     7   Atom       -0.192693      0.000013     -0.000016
     8   Atom       -0.000831      0.000008     -0.000011
     9   Atom        0.006366     -0.000003     -0.000010
    10   Atom       -0.209451      0.000005      0.000000
    11   Atom       -1.898362      0.000140      0.000049
    12   Atom        0.190523     -0.000171      0.000146
    13   Atom       -0.001612     -0.000001      0.000020
    14   Atom       -0.186828     -0.000023     -0.000013
    15   Atom        0.214444     -0.000002      0.000002
    16   Atom       -0.043234      0.000001      0.000016
    17   Atom        0.192148      0.000006     -0.000004
    18   Atom        0.265403     -0.000033      0.000041
 --------------------------------------------------------


 ---------------------------------------------------------------------------------
              Nuclear Quadrupole Coupling Constant in Principal Axis System
 ---------------------------------------------------------------------------------

       Atom             a.u.   MegaHertz   Gauss  10(-4) cm-1        Axes

              Baa    -0.6588     3.164     1.129     1.055  0.0000  0.0000  1.0000
     6 N(14)  Bbb    -0.3453     1.659     0.592     0.553 -0.4954  0.8687  0.0000
              Bcc     1.0041    -4.823    -1.721    -1.609  0.8687  0.4954  0.0000
 
              Baa    -3.6551   -70.123   -25.022   -23.391  0.9284  0.3717  0.0000
    11 Cl(35) Bbb     1.8088    34.702    12.382    11.575  0.0000  0.0002  1.0000
              Bcc     1.8463    35.421    12.639    11.815 -0.3717  0.9284 -0.0002
 

 ---------------------------------------------------------------------------------

 No NMR shielding tensors so no spin-rotation constants.
 Leave Link  601 at Thu Jan 16 21:47:19 2014, MaxMem=   235929600 cpu:         0.3
 FitSet:  NAtFit=    18 NAtPot=    18 NAtFrz=     0 MDM=    22 TotChg=   0.00000
 Merz-Kollman atomic radii used.
 Atom Element Radius
    1     6    1.50
    2     6    1.50
    3     6    1.50
    4     6    1.50
    5     6    1.50
    6     7    1.50
    7     6    1.50
    8     6    1.50
    9     6    1.50
   10     6    1.50
   11    17    1.70
   12     8    1.40
   13     1    1.20
   14     1    1.20
   15     1    1.20
   16     1    1.20
   17     1    1.20
   18     1    1.20
 Generate VDW surfaces: Layer= 5 Dens= 2 Start= 1.400 Inc= 0.179

 **********************************************************************

            Electrostatic Properties Using The SCF Density

 **********************************************************************

       Atomic Center    1 is at  -2.112799  1.927715 -0.000016
       Atomic Center    2 is at  -0.881571  2.624794  0.000049
       Atomic Center    3 is at   0.296769  1.912296  0.000034
       Atomic Center    4 is at   0.259012  0.494714  0.000006
       Atomic Center    5 is at  -1.038146 -0.103824 -0.000015
       Atomic Center    6 is at  -2.194208  0.611028 -0.000042
       Atomic Center    7 is at  -1.183180 -1.526707  0.000006
       Atomic Center    8 is at  -0.059270 -2.327438  0.000039
       Atomic Center    9 is at   1.225015 -1.740223  0.000025
       Atomic Center   10 is at   1.385793 -0.371408  0.000008
       Atomic Center   11 is at   3.012099  0.306412 -0.000032
       Atomic Center   12 is at  -2.427831 -2.046965 -0.000011
       Atomic Center   13 is at  -0.877556  3.710203 -0.000006
       Atomic Center   14 is at   1.255517  2.420269  0.000101
       Atomic Center   15 is at   2.101893 -2.379126  0.000033
       Atomic Center   16 is at  -0.169870 -3.406425  0.000076
       Atomic Center   17 is at  -3.053522  2.475474  0.000006
       Atomic Center   18 is at  -3.029782 -1.270401 -0.000096
      ESP Fit Center   19 is at  -2.112799  1.927715  2.099984
      ESP Fit Center   20 is at  -1.394556  1.927715  1.973338
      ESP Fit Center   21 is at  -1.753677  2.549731  1.973338
      ESP Fit Center   22 is at  -2.471920  2.549731  1.973338
      ESP Fit Center   23 is at  -2.831041  1.927715  1.973338
      ESP Fit Center   24 is at  -2.471920  1.305699  1.973338
      ESP Fit Center   25 is at  -1.753677  1.305699  1.973338
      ESP Fit Center   26 is at  -2.304903  3.263830  1.608677
      ESP Fit Center   27 is at  -3.407974  1.547418  1.608677
      ESP Fit Center   28 is at  -2.304903  3.263830 -1.608709
      ESP Fit Center   29 is at  -3.407974  1.547418 -1.608709
      ESP Fit Center   30 is at  -1.394556  1.927715 -1.973371
      ESP Fit Center   31 is at  -1.753677  2.549731 -1.973371
      ESP Fit Center   32 is at  -2.471920  2.549731 -1.973371
      ESP Fit Center   33 is at  -2.831041  1.927715 -1.973371
      ESP Fit Center   34 is at  -2.471920  1.305699 -1.973371
      ESP Fit Center   35 is at  -1.753677  1.305699 -1.973371
      ESP Fit Center   36 is at  -2.112799  1.927715 -2.100016
      ESP Fit Center   37 is at  -0.881571  2.624794  2.100049
      ESP Fit Center   38 is at  -0.163328  2.624794  1.973403
      ESP Fit Center   39 is at  -0.522449  3.246810  1.973403
      ESP Fit Center   40 is at  -1.240692  3.246810  1.973403
      ESP Fit Center   41 is at  -1.599813  2.624794  1.973403
      ESP Fit Center   42 is at  -1.240692  2.002778  1.973403
      ESP Fit Center   43 is at  -0.522449  2.002778  1.973403
      ESP Fit Center   44 is at   0.253999  3.354580  1.608742
      ESP Fit Center   45 is at  -0.320821  3.852664  1.608742
      ESP Fit Center   46 is at  -1.765537  3.644946  1.608742
      ESP Fit Center   47 is at   0.253999  3.354580 -1.608644
      ESP Fit Center   48 is at  -0.320821  3.852664 -1.608644
      ESP Fit Center   49 is at  -1.765537  3.644946 -1.608644
      ESP Fit Center   50 is at  -0.163328  2.624794 -1.973306
      ESP Fit Center   51 is at  -0.522449  3.246810 -1.973306
      ESP Fit Center   52 is at  -1.240692  3.246810 -1.973306
      ESP Fit Center   53 is at  -1.599813  2.624794 -1.973306
      ESP Fit Center   54 is at  -1.240692  2.002778 -1.973306
      ESP Fit Center   55 is at  -0.522449  2.002778 -1.973306
      ESP Fit Center   56 is at  -0.881571  2.624794 -2.099951
      ESP Fit Center   57 is at   0.296769  1.912296  2.100034
      ESP Fit Center   58 is at   1.015012  1.912296  1.973388
      ESP Fit Center   59 is at   0.655891  2.534312  1.973388
      ESP Fit Center   60 is at  -0.062352  2.534312  1.973388
      ESP Fit Center   61 is at  -0.421473  1.912296  1.973388
      ESP Fit Center   62 is at  -0.062352  1.290280  1.973388
      ESP Fit Center   63 is at   0.655891  1.290280  1.973388
      ESP Fit Center   64 is at   1.646623  1.912296  1.608727
      ESP Fit Center   65 is at   0.857519  3.140166  1.608727
      ESP Fit Center   66 is at   1.432339  1.182510  1.608727
      ESP Fit Center   67 is at   1.646623  1.912296 -1.608659
      ESP Fit Center   68 is at   0.857519  3.140166 -1.608659
      ESP Fit Center   69 is at   1.432339  1.182510 -1.608659
      ESP Fit Center   70 is at   1.015012  1.912296 -1.973321
      ESP Fit Center   71 is at   0.655891  2.534312 -1.973321
      ESP Fit Center   72 is at  -0.062352  2.534312 -1.973321
      ESP Fit Center   73 is at  -0.421473  1.912296 -1.973321
      ESP Fit Center   74 is at  -0.062352  1.290280 -1.973321
      ESP Fit Center   75 is at   0.655891  1.290280 -1.973321
      ESP Fit Center   76 is at   0.296769  1.912296 -2.099966
      ESP Fit Center   77 is at   0.259012  0.494714  2.100006
      ESP Fit Center   78 is at   0.977254  0.494714  1.973360
      ESP Fit Center   79 is at   0.618133  1.116730  1.973360
      ESP Fit Center   80 is at  -0.100109  1.116730  1.973360
      ESP Fit Center   81 is at  -0.459230  0.494714  1.973360
      ESP Fit Center   82 is at  -0.100109 -0.127302  1.973360
      ESP Fit Center   83 is at   0.618133 -0.127302  1.973360
      ESP Fit Center   84 is at   0.977254  0.494714 -1.973349
      ESP Fit Center   85 is at   0.618133  1.116730 -1.973349
      ESP Fit Center   86 is at  -0.100109  1.116730 -1.973349
      ESP Fit Center   87 is at  -0.459230  0.494714 -1.973349
      ESP Fit Center   88 is at  -0.100109 -0.127302 -1.973349
      ESP Fit Center   89 is at   0.618133 -0.127302 -1.973349
      ESP Fit Center   90 is at   0.259012  0.494714 -2.099994
      ESP Fit Center   91 is at  -1.038146 -0.103824  2.099985
      ESP Fit Center   92 is at  -0.319904 -0.103824  1.973339
      ESP Fit Center   93 is at  -0.679025  0.518192  1.973339
      ESP Fit Center   94 is at  -1.397267  0.518192  1.973339
      ESP Fit Center   95 is at  -1.756388 -0.103824  1.973339
      ESP Fit Center   96 is at  -1.397267 -0.725840  1.973339
      ESP Fit Center   97 is at  -0.679025 -0.725840  1.973339
      ESP Fit Center   98 is at  -0.319904 -0.103824 -1.973370
      ESP Fit Center   99 is at  -0.679025  0.518192 -1.973370
      ESP Fit Center  100 is at  -1.397267  0.518192 -1.973370
      ESP Fit Center  101 is at  -1.756388 -0.103824 -1.973370
      ESP Fit Center  102 is at  -1.397267 -0.725840 -1.973370
      ESP Fit Center  103 is at  -0.679025 -0.725840 -1.973370
      ESP Fit Center  104 is at  -1.038146 -0.103824 -2.100015
      ESP Fit Center  105 is at  -2.194208  0.611028  2.099958
      ESP Fit Center  106 is at  -1.475966  0.611028  1.973312
      ESP Fit Center  107 is at  -1.835087  1.233044  1.973312
      ESP Fit Center  108 is at  -2.553329  1.233044  1.973312
      ESP Fit Center  109 is at  -2.912450  0.611028  1.973312
      ESP Fit Center  110 is at  -2.553329 -0.010988  1.973312
      ESP Fit Center  111 is at  -1.835087 -0.010988  1.973312
      ESP Fit Center  112 is at  -3.489383  0.991326  1.608651
      ESP Fit Center  113 is at  -3.489383  0.230731  1.608651
      ESP Fit Center  114 is at  -3.078174 -0.409123  1.608651
      ESP Fit Center  115 is at  -2.386312 -0.725086  1.608651
      ESP Fit Center  116 is at  -3.973119  0.989148  1.049958
      ESP Fit Center  117 is at  -3.973119  0.232909  1.049958
      ESP Fit Center  118 is at  -4.227091  0.991040  0.364619
      ESP Fit Center  119 is at  -4.227091  0.231017  0.364619
      ESP Fit Center  120 is at  -4.227091  0.991040 -0.364703
      ESP Fit Center  121 is at  -4.227091  0.231017 -0.364703
      ESP Fit Center  122 is at  -3.973119  0.989148 -1.050042
      ESP Fit Center  123 is at  -3.973119  0.232909 -1.050042
      ESP Fit Center  124 is at  -3.489383  0.991326 -1.608735
      ESP Fit Center  125 is at  -3.489383  0.230731 -1.608735
      ESP Fit Center  126 is at  -3.078174 -0.409123 -1.608735
      ESP Fit Center  127 is at  -2.386312 -0.725086 -1.608735
      ESP Fit Center  128 is at  -1.475966  0.611028 -1.973397
      ESP Fit Center  129 is at  -1.835087  1.233044 -1.973397
      ESP Fit Center  130 is at  -2.553329  1.233044 -1.973397
      ESP Fit Center  131 is at  -2.912450  0.611028 -1.973397
      ESP Fit Center  132 is at  -2.553329 -0.010988 -1.973397
      ESP Fit Center  133 is at  -1.835087 -0.010988 -1.973397
      ESP Fit Center  134 is at  -2.194208  0.611028 -2.100042
      ESP Fit Center  135 is at  -1.183180 -1.526707  2.100006
      ESP Fit Center  136 is at  -0.464938 -1.526707  1.973360
      ESP Fit Center  137 is at  -0.824059 -0.904691  1.973360
      ESP Fit Center  138 is at  -1.542301 -0.904691  1.973360
      ESP Fit Center  139 is at  -1.901423 -1.526707  1.973360
      ESP Fit Center  140 is at  -1.542301 -2.148723  1.973360
      ESP Fit Center  141 is at  -0.824059 -2.148723  1.973360
      ESP Fit Center  142 is at  -1.375284 -2.862821  1.608699
      ESP Fit Center  143 is at  -1.375284 -2.862821 -1.608687
      ESP Fit Center  144 is at  -0.464938 -1.526707 -1.973349
      ESP Fit Center  145 is at  -0.824059 -0.904691 -1.973349
      ESP Fit Center  146 is at  -1.542301 -0.904691 -1.973349
      ESP Fit Center  147 is at  -1.901423 -1.526707 -1.973349
      ESP Fit Center  148 is at  -1.542301 -2.148723 -1.973349
      ESP Fit Center  149 is at  -0.824059 -2.148723 -1.973349
      ESP Fit Center  150 is at  -1.183180 -1.526707 -2.099994
      ESP Fit Center  151 is at  -0.059270 -2.327438  2.100039
      ESP Fit Center  152 is at   0.658972 -2.327438  1.973393
      ESP Fit Center  153 is at   0.299851 -1.705422  1.973393
      ESP Fit Center  154 is at  -0.418392 -1.705422  1.973393
      ESP Fit Center  155 is at  -0.777513 -2.327438  1.973393
      ESP Fit Center  156 is at  -0.418392 -2.949454  1.973393
      ESP Fit Center  157 is at   0.299851 -2.949454  1.973393
      ESP Fit Center  158 is at  -0.943237 -3.347590  1.608732
      ESP Fit Center  159 is at   0.501479 -3.555308  1.608732
      ESP Fit Center  160 is at   1.157646 -3.678961  1.050039
      ESP Fit Center  161 is at   1.157646 -3.678961 -1.049961
      ESP Fit Center  162 is at  -0.943237 -3.347590 -1.608654
      ESP Fit Center  163 is at   0.501479 -3.555308 -1.608654
      ESP Fit Center  164 is at   0.658972 -2.327438 -1.973316
      ESP Fit Center  165 is at   0.299851 -1.705422 -1.973316
      ESP Fit Center  166 is at  -0.418392 -1.705422 -1.973316
      ESP Fit Center  167 is at  -0.777513 -2.327438 -1.973316
      ESP Fit Center  168 is at  -0.418392 -2.949454 -1.973316
      ESP Fit Center  169 is at   0.299851 -2.949454 -1.973316
      ESP Fit Center  170 is at  -0.059270 -2.327438 -2.099961
      ESP Fit Center  171 is at   1.225015 -1.740223  2.100025
      ESP Fit Center  172 is at   1.943257 -1.740223  1.973379
      ESP Fit Center  173 is at   1.584136 -1.118207  1.973379
      ESP Fit Center  174 is at   0.865894 -1.118207  1.973379
      ESP Fit Center  175 is at   0.506772 -1.740223  1.973379
      ESP Fit Center  176 is at   0.865894 -2.362239  1.973379
      ESP Fit Center  177 is at   1.584136 -2.362239  1.973379
      ESP Fit Center  178 is at   2.574869 -1.740223  1.608718
      ESP Fit Center  179 is at   1.785764 -2.968094  1.608718
      ESP Fit Center  180 is at   2.574869 -1.740223 -1.608668
      ESP Fit Center  181 is at   1.785764 -2.968094 -1.608668
      ESP Fit Center  182 is at   1.943257 -1.740223 -1.973330
      ESP Fit Center  183 is at   1.584136 -1.118207 -1.973330
      ESP Fit Center  184 is at   0.865894 -1.118207 -1.973330
      ESP Fit Center  185 is at   0.506772 -1.740223 -1.973330
      ESP Fit Center  186 is at   0.865894 -2.362239 -1.973330
      ESP Fit Center  187 is at   1.584136 -2.362239 -1.973330
      ESP Fit Center  188 is at   1.225015 -1.740223 -2.099975
      ESP Fit Center  189 is at   1.385793 -0.371408  2.100008
      ESP Fit Center  190 is at   1.026672  0.250608  1.973362
      ESP Fit Center  191 is at   0.667551 -0.371408  1.973362
      ESP Fit Center  192 is at   1.026672 -0.993424  1.973362
      ESP Fit Center  193 is at   1.744914 -0.993424  1.973362
      ESP Fit Center  194 is at   1.026672  0.250608 -1.973347
      ESP Fit Center  195 is at   0.667551 -0.371408 -1.973347
      ESP Fit Center  196 is at   1.026672 -0.993424 -1.973347
      ESP Fit Center  197 is at   1.744914 -0.993424 -1.973347
      ESP Fit Center  198 is at   1.385793 -0.371408 -2.099992
      ESP Fit Center  199 is at   3.012099  0.306412  2.379968
      ESP Fit Center  200 is at   3.747560  0.306412  2.263482
      ESP Fit Center  201 is at   3.379829  0.943340  2.263482
      ESP Fit Center  202 is at   2.644369  0.943340  2.263482
      ESP Fit Center  203 is at   2.276639  0.306412  2.263482
      ESP Fit Center  204 is at   2.644369 -0.330515  2.263482
      ESP Fit Center  205 is at   3.379829 -0.330515  2.263482
      ESP Fit Center  206 is at   4.411028  0.306412  1.925428
      ESP Fit Center  207 is at   4.223607  1.005877  1.925428
      ESP Fit Center  208 is at   3.711564  1.517920  1.925428
      ESP Fit Center  209 is at   3.012099  1.705341  1.925428
      ESP Fit Center  210 is at   2.312635  1.517920  1.925428
      ESP Fit Center  211 is at   1.800591  1.005877  1.925428
      ESP Fit Center  212 is at   2.312635 -0.905096  1.925428
      ESP Fit Center  213 is at   3.012099 -1.092516  1.925428
      ESP Fit Center  214 is at   3.711564 -0.905096  1.925428
      ESP Fit Center  215 is at   4.223607 -0.393052  1.925428
      ESP Fit Center  216 is at   4.937560  0.306412  1.398897
      ESP Fit Center  217 is at   4.790993  1.043254  1.398897
      ESP Fit Center  218 is at   4.373605  1.667919  1.398897
      ESP Fit Center  219 is at   3.748941  2.085306  1.398897
      ESP Fit Center  220 is at   3.012099  2.231873  1.398897
      ESP Fit Center  221 is at   2.275257  2.085306  1.398897
      ESP Fit Center  222 is at   3.012099 -1.619048  1.398897
      ESP Fit Center  223 is at   3.748941 -1.472481  1.398897
      ESP Fit Center  224 is at   4.373605 -1.055094  1.398897
      ESP Fit Center  225 is at   4.790993 -0.430429  1.398897
      ESP Fit Center  226 is at   5.275614  0.306412  0.735428
      ESP Fit Center  227 is at   5.152970  1.041374  0.735428
      ESP Fit Center  228 is at   4.798330  1.696692  0.735428
      ESP Fit Center  229 is at   4.250124  2.201351  0.735428
      ESP Fit Center  230 is at   3.567759  2.500664  0.735428
      ESP Fit Center  231 is at   2.825180  2.562196  0.735428
      ESP Fit Center  232 is at   3.567759 -1.887839  0.735428
      ESP Fit Center  233 is at   4.250124 -1.588526  0.735428
      ESP Fit Center  234 is at   4.798330 -1.083867  0.735428
      ESP Fit Center  235 is at   5.152970 -0.428550  0.735428
      ESP Fit Center  236 is at   5.392099  0.306412 -0.000032
      ESP Fit Center  237 is at   5.286362  1.007930 -0.000032
      ESP Fit Center  238 is at   4.978547  1.647114 -0.000032
      ESP Fit Center  239 is at   4.496005  2.167171 -0.000032
      ESP Fit Center  240 is at   3.881611  2.521892 -0.000032
      ESP Fit Center  241 is at   3.189957  2.679757 -0.000032
      ESP Fit Center  242 is at   3.881611 -1.909067 -0.000032
      ESP Fit Center  243 is at   4.496005 -1.554346 -0.000032
      ESP Fit Center  244 is at   4.978547 -1.034289 -0.000032
      ESP Fit Center  245 is at   5.286362 -0.395105 -0.000032
      ESP Fit Center  246 is at   5.275614  0.306412 -0.735492
      ESP Fit Center  247 is at   5.152970  1.041374 -0.735492
      ESP Fit Center  248 is at   4.798330  1.696692 -0.735492
      ESP Fit Center  249 is at   4.250124  2.201351 -0.735492
      ESP Fit Center  250 is at   3.567759  2.500664 -0.735492
      ESP Fit Center  251 is at   2.825180  2.562196 -0.735492
      ESP Fit Center  252 is at   3.567759 -1.887839 -0.735492
      ESP Fit Center  253 is at   4.250124 -1.588526 -0.735492
      ESP Fit Center  254 is at   4.798330 -1.083867 -0.735492
      ESP Fit Center  255 is at   5.152970 -0.428550 -0.735492
      ESP Fit Center  256 is at   4.937560  0.306412 -1.398961
      ESP Fit Center  257 is at   4.790993  1.043254 -1.398961
      ESP Fit Center  258 is at   4.373605  1.667919 -1.398961
      ESP Fit Center  259 is at   3.748941  2.085306 -1.398961
      ESP Fit Center  260 is at   3.012099  2.231873 -1.398961
      ESP Fit Center  261 is at   2.275257  2.085306 -1.398961
      ESP Fit Center  262 is at   3.012099 -1.619048 -1.398961
      ESP Fit Center  263 is at   3.748941 -1.472481 -1.398961
      ESP Fit Center  264 is at   4.373605 -1.055094 -1.398961
      ESP Fit Center  265 is at   4.790993 -0.430429 -1.398961
      ESP Fit Center  266 is at   4.411028  0.306412 -1.925492
      ESP Fit Center  267 is at   4.223607  1.005877 -1.925492
      ESP Fit Center  268 is at   3.711564  1.517920 -1.925492
      ESP Fit Center  269 is at   3.012099  1.705341 -1.925492
      ESP Fit Center  270 is at   2.312635  1.517920 -1.925492
      ESP Fit Center  271 is at   1.800591  1.005877 -1.925492
      ESP Fit Center  272 is at   2.312635 -0.905096 -1.925492
      ESP Fit Center  273 is at   3.012099 -1.092516 -1.925492
      ESP Fit Center  274 is at   3.711564 -0.905096 -1.925492
      ESP Fit Center  275 is at   4.223607 -0.393052 -1.925492
      ESP Fit Center  276 is at   3.747560  0.306412 -2.263547
      ESP Fit Center  277 is at   3.379829  0.943340 -2.263547
      ESP Fit Center  278 is at   2.644369  0.943340 -2.263547
      ESP Fit Center  279 is at   2.276639  0.306412 -2.263547
      ESP Fit Center  280 is at   2.644369 -0.330515 -2.263547
      ESP Fit Center  281 is at   3.379829 -0.330515 -2.263547
      ESP Fit Center  282 is at   3.012099  0.306412 -2.380032
      ESP Fit Center  283 is at  -2.427831 -2.046965  1.959989
      ESP Fit Center  284 is at  -2.802861 -1.397394  1.810793
      ESP Fit Center  285 is at  -3.177891 -2.046965  1.810793
      ESP Fit Center  286 is at  -2.802861 -2.696535  1.810793
      ESP Fit Center  287 is at  -2.052802 -2.696535  1.810793
      ESP Fit Center  288 is at  -3.813761 -2.046965  1.385918
      ESP Fit Center  289 is at  -3.628081 -2.739929  1.385918
      ESP Fit Center  290 is at  -3.120796 -3.247215  1.385918
      ESP Fit Center  291 is at  -2.427831 -3.432894  1.385918
      ESP Fit Center  292 is at  -1.734867 -3.247215  1.385918
      ESP Fit Center  293 is at  -4.199065 -2.423452  0.750048
      ESP Fit Center  294 is at  -3.892802 -3.111328  0.750048
      ESP Fit Center  295 is at  -3.333233 -3.615167  0.750048
      ESP Fit Center  296 is at  -2.617112 -3.847849  0.750048
      ESP Fit Center  297 is at  -1.868262 -3.769141  0.750048
      ESP Fit Center  298 is at  -4.354459 -2.407114 -0.000011
      ESP Fit Center  299 is at  -4.094257 -3.078772 -0.000011
      ESP Fit Center  300 is at  -3.608995 -3.611078 -0.000011
      ESP Fit Center  301 is at  -2.964211 -3.932143 -0.000011
      ESP Fit Center  302 is at  -2.246985 -3.998604 -0.000011
      ESP Fit Center  303 is at  -4.199065 -2.423452 -0.750071
      ESP Fit Center  304 is at  -3.892802 -3.111328 -0.750071
      ESP Fit Center  305 is at  -3.333233 -3.615167 -0.750071
      ESP Fit Center  306 is at  -2.617112 -3.847849 -0.750071
      ESP Fit Center  307 is at  -1.868262 -3.769141 -0.750071
      ESP Fit Center  308 is at  -3.813761 -2.046965 -1.385940
      ESP Fit Center  309 is at  -3.628081 -2.739929 -1.385940
      ESP Fit Center  310 is at  -3.120796 -3.247215 -1.385940
      ESP Fit Center  311 is at  -2.427831 -3.432894 -1.385940
      ESP Fit Center  312 is at  -1.734867 -3.247215 -1.385940
      ESP Fit Center  313 is at  -2.802861 -1.397394 -1.810815
      ESP Fit Center  314 is at  -3.177891 -2.046965 -1.810815
      ESP Fit Center  315 is at  -2.802861 -2.696535 -1.810815
      ESP Fit Center  316 is at  -2.052802 -2.696535 -1.810815
      ESP Fit Center  317 is at  -2.427831 -2.046965 -1.960011
      ESP Fit Center  318 is at  -0.513094  4.341470  1.513622
      ESP Fit Center  319 is at  -1.242019  4.341470  1.513622
      ESP Fit Center  320 is at   0.185069  4.482245  1.047457
      ESP Fit Center  321 is at  -0.471670  4.959394  1.047457
      ESP Fit Center  322 is at  -1.283443  4.959394  1.047457
      ESP Fit Center  323 is at  -1.940181  4.482245  1.047457
      ESP Fit Center  324 is at   0.572713  4.471363  0.373829
      ESP Fit Center  325 is at   0.052865  5.058151  0.373829
      ESP Fit Center  326 is at  -0.680132  5.336140  0.373829
      ESP Fit Center  327 is at  -1.458356  5.241646  0.373829
      ESP Fit Center  328 is at  -2.103526  4.796318  0.373829
      ESP Fit Center  329 is at  -2.467841  4.102173  0.373829
      ESP Fit Center  330 is at   0.572713  4.471363 -0.373841
      ESP Fit Center  331 is at   0.052865  5.058151 -0.373841
      ESP Fit Center  332 is at  -0.680132  5.336140 -0.373841
      ESP Fit Center  333 is at  -1.458356  5.241646 -0.373841
      ESP Fit Center  334 is at  -2.103526  4.796318 -0.373841
      ESP Fit Center  335 is at  -2.467841  4.102173 -0.373841
      ESP Fit Center  336 is at   0.185069  4.482245 -1.047469
      ESP Fit Center  337 is at  -0.471670  4.959394 -1.047469
      ESP Fit Center  338 is at  -1.283443  4.959394 -1.047469
      ESP Fit Center  339 is at  -1.940181  4.482245 -1.047469
      ESP Fit Center  340 is at  -0.513094  4.341470 -1.513634
      ESP Fit Center  341 is at  -1.242019  4.341470 -1.513634
      ESP Fit Center  342 is at   1.984442  2.420269  1.513729
      ESP Fit Center  343 is at   1.619980  3.051536  1.513729
      ESP Fit Center  344 is at   2.568994  2.420269  1.047564
      ESP Fit Center  345 is at   2.318143  3.192311  1.047564
      ESP Fit Center  346 is at   1.661404  3.669460  1.047564
      ESP Fit Center  347 is at   0.849631  3.669460  1.047564
      ESP Fit Center  348 is at   2.705787  3.181429  0.373936
      ESP Fit Center  349 is at   2.185939  3.768217  0.373936
      ESP Fit Center  350 is at   1.452942  4.046206  0.373936
      ESP Fit Center  351 is at   2.705787  3.181429 -0.373734
      ESP Fit Center  352 is at   2.185939  3.768217 -0.373734
      ESP Fit Center  353 is at   1.452942  4.046206 -0.373734
      ESP Fit Center  354 is at   2.568994  2.420269 -1.047362
      ESP Fit Center  355 is at   2.318143  3.192311 -1.047362
      ESP Fit Center  356 is at   1.661404  3.669460 -1.047362
      ESP Fit Center  357 is at   0.849631  3.669460 -1.047362
      ESP Fit Center  358 is at   1.984442  2.420269 -1.513527
      ESP Fit Center  359 is at   1.619980  3.051536 -1.513527
      ESP Fit Center  360 is at   2.830817 -2.379126  1.513661
      ESP Fit Center  361 is at   2.466355 -3.010394  1.513661
      ESP Fit Center  362 is at   3.415370 -2.379126  1.047496
      ESP Fit Center  363 is at   1.696006 -3.628317  1.047496
      ESP Fit Center  364 is at   2.507779 -3.628317  1.047496
      ESP Fit Center  365 is at   3.164518 -3.151169  1.047496
      ESP Fit Center  366 is at   3.739772 -2.379126  0.373868
      ESP Fit Center  367 is at   1.521093 -3.910570  0.373868
      ESP Fit Center  368 is at   2.299317 -4.005063  0.373868
      ESP Fit Center  369 is at   3.032314 -3.727074  0.373868
      ESP Fit Center  370 is at   3.552162 -3.140287  0.373868
      ESP Fit Center  371 is at   3.739772 -2.379126 -0.373802
      ESP Fit Center  372 is at   1.521093 -3.910570 -0.373802
      ESP Fit Center  373 is at   2.299317 -4.005063 -0.373802
      ESP Fit Center  374 is at   3.032314 -3.727074 -0.373802
      ESP Fit Center  375 is at   3.552162 -3.140287 -0.373802
      ESP Fit Center  376 is at   3.415370 -2.379126 -1.047430
      ESP Fit Center  377 is at   1.696006 -3.628317 -1.047430
      ESP Fit Center  378 is at   2.507779 -3.628317 -1.047430
      ESP Fit Center  379 is at   3.164518 -3.151169 -1.047430
      ESP Fit Center  380 is at   2.830817 -2.379126 -1.513595
      ESP Fit Center  381 is at   2.466355 -3.010394 -1.513595
      ESP Fit Center  382 is at  -0.534332 -4.037692  1.513704
      ESP Fit Center  383 is at   0.194593 -4.037692  1.513704
      ESP Fit Center  384 is at  -1.232495 -4.178467  1.047539
      ESP Fit Center  385 is at  -0.575756 -4.655616  1.047539
      ESP Fit Center  386 is at   0.236017 -4.655616  1.047539
      ESP Fit Center  387 is at   0.892756 -4.178467  1.047539
      ESP Fit Center  388 is at  -1.395840 -4.492540  0.373911
      ESP Fit Center  389 is at  -0.750669 -4.937868  0.373911
      ESP Fit Center  390 is at   0.027555 -5.032362  0.373911
      ESP Fit Center  391 is at   0.760552 -4.754373  0.373911
      ESP Fit Center  392 is at   1.280400 -4.167585  0.373911
      ESP Fit Center  393 is at  -1.395840 -4.492540 -0.373759
      ESP Fit Center  394 is at  -0.750669 -4.937868 -0.373759
      ESP Fit Center  395 is at   0.027555 -5.032362 -0.373759
      ESP Fit Center  396 is at   0.760552 -4.754373 -0.373759
      ESP Fit Center  397 is at   1.280400 -4.167585 -0.373759
      ESP Fit Center  398 is at  -1.232495 -4.178467 -1.047387
      ESP Fit Center  399 is at  -0.575756 -4.655616 -1.047387
      ESP Fit Center  400 is at   0.236017 -4.655616 -1.047387
      ESP Fit Center  401 is at   0.892756 -4.178467 -1.047387
      ESP Fit Center  402 is at  -0.534332 -4.037692 -1.513552
      ESP Fit Center  403 is at   0.194593 -4.037692 -1.513552
      ESP Fit Center  404 is at  -3.417984  3.106741  1.513634
      ESP Fit Center  405 is at  -3.782446  2.475474  1.513634
      ESP Fit Center  406 is at  -2.647635  3.724664  1.047469
      ESP Fit Center  407 is at  -3.459408  3.724664  1.047469
      ESP Fit Center  408 is at  -4.116147  3.247516  1.047469
      ESP Fit Center  409 is at  -4.366998  2.475474  1.047469
      ESP Fit Center  410 is at  -4.116147  1.703431  1.047469
      ESP Fit Center  411 is at  -2.856097  4.101410  0.373841
      ESP Fit Center  412 is at  -3.634321  4.006917  0.373841
      ESP Fit Center  413 is at  -4.279491  3.561588  0.373841
      ESP Fit Center  414 is at  -4.643807  2.867444  0.373841
      ESP Fit Center  415 is at  -4.643807  2.083503  0.373841
      ESP Fit Center  416 is at  -4.279491  1.389359  0.373841
      ESP Fit Center  417 is at  -2.856097  4.101410 -0.373829
      ESP Fit Center  418 is at  -3.634321  4.006917 -0.373829
      ESP Fit Center  419 is at  -4.279491  3.561588 -0.373829
      ESP Fit Center  420 is at  -4.643807  2.867444 -0.373829
      ESP Fit Center  421 is at  -4.643807  2.083503 -0.373829
      ESP Fit Center  422 is at  -4.279491  1.389359 -0.373829
      ESP Fit Center  423 is at  -2.647635  3.724664 -1.047457
      ESP Fit Center  424 is at  -3.459408  3.724664 -1.047457
      ESP Fit Center  425 is at  -4.116147  3.247516 -1.047457
      ESP Fit Center  426 is at  -4.366998  2.475474 -1.047457
      ESP Fit Center  427 is at  -4.116147  1.703431 -1.047457
      ESP Fit Center  428 is at  -3.417984  3.106741 -1.513622
      ESP Fit Center  429 is at  -3.782446  2.475474 -1.513622
      ESP Fit Center  430 is at  -3.394245 -0.639134  1.513532
      ESP Fit Center  431 is at  -3.758707 -1.270401  1.513532
      ESP Fit Center  432 is at  -4.092407 -0.498359  1.047367
      ESP Fit Center  433 is at  -4.343259 -1.270401  1.047367
      ESP Fit Center  434 is at  -4.092407 -2.042444  1.047367
      ESP Fit Center  435 is at  -4.255752 -0.184287  0.373739
      ESP Fit Center  436 is at  -4.620067 -0.878431  0.373739
      ESP Fit Center  437 is at  -4.620067 -1.662372  0.373739
      ESP Fit Center  438 is at  -4.255752 -0.184287 -0.373931
      ESP Fit Center  439 is at  -4.620067 -0.878431 -0.373931
      ESP Fit Center  440 is at  -4.620067 -1.662372 -0.373931
      ESP Fit Center  441 is at  -4.092407 -0.498359 -1.047559
      ESP Fit Center  442 is at  -4.343259 -1.270401 -1.047559
      ESP Fit Center  443 is at  -4.092407 -2.042444 -1.047559
      ESP Fit Center  444 is at  -3.394245 -0.639134 -1.513724
      ESP Fit Center  445 is at  -3.758707 -1.270401 -1.513724
      ESP Fit Center  446 is at  -2.112799  1.927715  2.368312
      ESP Fit Center  447 is at  -1.380945  1.927715  2.252398
      ESP Fit Center  448 is at  -1.746872  2.561519  2.252398
      ESP Fit Center  449 is at  -2.478725  2.561519  2.252398
      ESP Fit Center  450 is at  -2.844652  1.927715  2.252398
      ESP Fit Center  451 is at  -2.478725  1.293911  2.252398
      ESP Fit Center  452 is at  -1.746872  1.293911  2.252398
      ESP Fit Center  453 is at  -2.310911  3.305614  1.916002
      ESP Fit Center  454 is at  -3.024410  2.979770  1.916002
      ESP Fit Center  455 is at  -3.448478  2.319906  1.916002
      ESP Fit Center  456 is at  -3.448478  1.535524  1.916002
      ESP Fit Center  457 is at  -2.310911  3.305614 -1.916034
      ESP Fit Center  458 is at  -3.024410  2.979770 -1.916034
      ESP Fit Center  459 is at  -3.448478  2.319906 -1.916034
      ESP Fit Center  460 is at  -3.448478  1.535524 -1.916034
      ESP Fit Center  461 is at  -1.380945  1.927715 -2.252430
      ESP Fit Center  462 is at  -1.746872  2.561519 -2.252430
      ESP Fit Center  463 is at  -2.478725  2.561519 -2.252430
      ESP Fit Center  464 is at  -2.844652  1.927715 -2.252430
      ESP Fit Center  465 is at  -2.478725  1.293911 -2.252430
      ESP Fit Center  466 is at  -1.746872  1.293911 -2.252430
      ESP Fit Center  467 is at  -2.112799  1.927715 -2.368344
      ESP Fit Center  468 is at  -0.881571  2.624794  2.368377
      ESP Fit Center  469 is at  -0.149717  2.624794  2.252463
      ESP Fit Center  470 is at  -0.515644  3.258598  2.252463
      ESP Fit Center  471 is at  -1.247497  3.258598  2.252463
      ESP Fit Center  472 is at  -1.613424  2.624794  2.252463
      ESP Fit Center  473 is at  -1.247497  1.990990  2.252463
      ESP Fit Center  474 is at  -0.515644  1.990990  2.252463
      ESP Fit Center  475 is at   0.289512  3.377403  1.916067
      ESP Fit Center  476 is at  -0.303284  3.891064  1.916067
      ESP Fit Center  477 is at  -1.079682  4.002693  1.916067
      ESP Fit Center  478 is at  -1.793181  3.676849  1.916067
      ESP Fit Center  479 is at   0.473259  3.979623  1.392117
      ESP Fit Center  480 is at  -2.236400  3.979623  1.392117
      ESP Fit Center  481 is at   0.473259  3.979623 -1.392019
      ESP Fit Center  482 is at  -2.236400  3.979623 -1.392019
      ESP Fit Center  483 is at   0.289512  3.377403 -1.915969
      ESP Fit Center  484 is at  -0.303284  3.891064 -1.915969
      ESP Fit Center  485 is at  -1.079682  4.002693 -1.915969
      ESP Fit Center  486 is at  -1.793181  3.676849 -1.915969
      ESP Fit Center  487 is at  -0.149717  2.624794 -2.252365
      ESP Fit Center  488 is at  -0.515644  3.258598 -2.252365
      ESP Fit Center  489 is at  -1.247497  3.258598 -2.252365
      ESP Fit Center  490 is at  -1.613424  2.624794 -2.252365
      ESP Fit Center  491 is at  -1.247497  1.990990 -2.252365
      ESP Fit Center  492 is at  -0.515644  1.990990 -2.252365
      ESP Fit Center  493 is at  -0.881571  2.624794 -2.368279
      ESP Fit Center  494 is at   0.296769  1.912296  2.368362
      ESP Fit Center  495 is at   1.028623  1.912296  2.252448
      ESP Fit Center  496 is at   0.662696  2.546100  2.252448
      ESP Fit Center  497 is at  -0.069157  2.546100  2.252448
      ESP Fit Center  498 is at  -0.435084  1.912296  2.252448
      ESP Fit Center  499 is at  -0.069157  1.278492  2.252448
      ESP Fit Center  500 is at   0.662696  1.278492  2.252448
      ESP Fit Center  501 is at   1.688838  1.912296  1.916052
      ESP Fit Center  502 is at   1.467852  2.664905  1.916052
      ESP Fit Center  503 is at   0.875055  3.178566  1.916052
      ESP Fit Center  504 is at   1.688838  1.912296 -1.915984
      ESP Fit Center  505 is at   1.467852  2.664905 -1.915984
      ESP Fit Center  506 is at   0.875055  3.178566 -1.915984
      ESP Fit Center  507 is at   1.028623  1.912296 -2.252380
      ESP Fit Center  508 is at   0.662696  2.546100 -2.252380
      ESP Fit Center  509 is at  -0.069157  2.546100 -2.252380
      ESP Fit Center  510 is at  -0.435084  1.912296 -2.252380
      ESP Fit Center  511 is at  -0.069157  1.278492 -2.252380
      ESP Fit Center  512 is at   0.662696  1.278492 -2.252380
      ESP Fit Center  513 is at   0.296769  1.912296 -2.368294
      ESP Fit Center  514 is at   0.259012  0.494714  2.368334
      ESP Fit Center  515 is at   0.990866  0.494714  2.252420
      ESP Fit Center  516 is at   0.624939  1.128518  2.252420
      ESP Fit Center  517 is at  -0.106915  1.128518  2.252420
      ESP Fit Center  518 is at  -0.472842  0.494714  2.252420
      ESP Fit Center  519 is at  -0.106915 -0.139090  2.252420
      ESP Fit Center  520 is at   0.624939 -0.139090  2.252420
      ESP Fit Center  521 is at   0.990866  0.494714 -2.252408
      ESP Fit Center  522 is at   0.624939  1.128518 -2.252408
      ESP Fit Center  523 is at  -0.106915  1.128518 -2.252408
      ESP Fit Center  524 is at  -0.472842  0.494714 -2.252408
      ESP Fit Center  525 is at  -0.106915 -0.139090 -2.252408
      ESP Fit Center  526 is at   0.624939 -0.139090 -2.252408
      ESP Fit Center  527 is at   0.259012  0.494714 -2.368322
      ESP Fit Center  528 is at  -1.038146 -0.103824  2.368313
      ESP Fit Center  529 is at  -0.306292 -0.103824  2.252399
      ESP Fit Center  530 is at  -0.672219  0.529980  2.252399
      ESP Fit Center  531 is at  -1.404073  0.529980  2.252399
      ESP Fit Center  532 is at  -1.770000 -0.103824  2.252399
      ESP Fit Center  533 is at  -1.404073 -0.737628  2.252399
      ESP Fit Center  534 is at  -0.672219 -0.737628  2.252399
      ESP Fit Center  535 is at  -0.306292 -0.103824 -2.252429
      ESP Fit Center  536 is at  -0.672219  0.529980 -2.252429
      ESP Fit Center  537 is at  -1.404073  0.529980 -2.252429
      ESP Fit Center  538 is at  -1.770000 -0.103824 -2.252429
      ESP Fit Center  539 is at  -1.404073 -0.737628 -2.252429
      ESP Fit Center  540 is at  -0.672219 -0.737628 -2.252429
      ESP Fit Center  541 is at  -1.038146 -0.103824 -2.368343
      ESP Fit Center  542 is at  -2.194208  0.611028  2.368286
      ESP Fit Center  543 is at  -1.462354  0.611028  2.252372
      ESP Fit Center  544 is at  -1.828281  1.244832  2.252372
      ESP Fit Center  545 is at  -2.560135  1.244832  2.252372
      ESP Fit Center  546 is at  -2.926062  0.611028  2.252372
      ESP Fit Center  547 is at  -2.560135 -0.022775  2.252372
      ESP Fit Center  548 is at  -1.828281 -0.022775  2.252372
      ESP Fit Center  549 is at  -3.529888  1.003219  1.915976
      ESP Fit Center  550 is at  -3.529888  0.218837  1.915976
      ESP Fit Center  551 is at  -3.105819 -0.441027  1.915976
      ESP Fit Center  552 is at  -2.392320 -0.766871  1.915976
      ESP Fit Center  553 is at  -3.964377  1.344257  1.392026
      ESP Fit Center  554 is at  -4.110226  0.611028  1.392026
      ESP Fit Center  555 is at  -3.964377 -0.122200  1.392026
      ESP Fit Center  556 is at  -4.415902  0.981764  0.731812
      ESP Fit Center  557 is at  -4.415902  0.240293  0.731812
      ESP Fit Center  558 is at  -4.562536  0.611028 -0.000042
      ESP Fit Center  559 is at  -4.415902  0.981764 -0.731896
      ESP Fit Center  560 is at  -4.415902  0.240293 -0.731896
      ESP Fit Center  561 is at  -3.964377  1.344257 -1.392110
      ESP Fit Center  562 is at  -4.110226  0.611028 -1.392110
      ESP Fit Center  563 is at  -3.964377 -0.122200 -1.392110
      ESP Fit Center  564 is at  -3.529888  1.003219 -1.916060
      ESP Fit Center  565 is at  -3.529888  0.218837 -1.916060
      ESP Fit Center  566 is at  -3.105819 -0.441027 -1.916060
      ESP Fit Center  567 is at  -2.392320 -0.766871 -1.916060
      ESP Fit Center  568 is at  -1.462354  0.611028 -2.252456
      ESP Fit Center  569 is at  -1.828281  1.244832 -2.252456
      ESP Fit Center  570 is at  -2.560135  1.244832 -2.252456
      ESP Fit Center  571 is at  -2.926062  0.611028 -2.252456
      ESP Fit Center  572 is at  -2.560135 -0.022775 -2.252456
      ESP Fit Center  573 is at  -1.828281 -0.022775 -2.252456
      ESP Fit Center  574 is at  -2.194208  0.611028 -2.368370
      ESP Fit Center  575 is at  -1.183180 -1.526707  2.368334
      ESP Fit Center  576 is at  -0.451327 -1.526707  2.252420
      ESP Fit Center  577 is at  -0.817253 -0.892903  2.252420
      ESP Fit Center  578 is at  -1.549107 -0.892903  2.252420
      ESP Fit Center  579 is at  -1.915034 -1.526707  2.252420
      ESP Fit Center  580 is at  -1.549107 -2.160511  2.252420
      ESP Fit Center  581 is at  -0.817253 -2.160511  2.252420
      ESP Fit Center  582 is at  -1.381292 -2.904606  1.916024
      ESP Fit Center  583 is at  -1.381292 -2.904606 -1.916012
      ESP Fit Center  584 is at  -0.451327 -1.526707 -2.252408
      ESP Fit Center  585 is at  -0.817253 -0.892903 -2.252408
      ESP Fit Center  586 is at  -1.549107 -0.892903 -2.252408
      ESP Fit Center  587 is at  -1.915034 -1.526707 -2.252408
      ESP Fit Center  588 is at  -1.549107 -2.160511 -2.252408
      ESP Fit Center  589 is at  -0.817253 -2.160511 -2.252408
      ESP Fit Center  590 is at  -1.183180 -1.526707 -2.368322
      ESP Fit Center  591 is at  -0.059270 -2.327438  2.368367
      ESP Fit Center  592 is at   0.672583 -2.327438  2.252453
      ESP Fit Center  593 is at   0.306656 -1.693634  2.252453
      ESP Fit Center  594 is at  -0.425197 -1.693634  2.252453
      ESP Fit Center  595 is at  -0.791124 -2.327438  2.252453
      ESP Fit Center  596 is at  -0.425197 -2.961242  2.252453
      ESP Fit Center  597 is at   0.306656 -2.961242  2.252453
      ESP Fit Center  598 is at  -0.970881 -3.379493  1.916057
      ESP Fit Center  599 is at  -0.257382 -3.705337  1.916057
      ESP Fit Center  600 is at   0.519016 -3.593708  1.916057
      ESP Fit Center  601 is at   1.295559 -3.682267  1.392107
      ESP Fit Center  602 is at   1.295559 -3.682267 -1.392029
      ESP Fit Center  603 is at  -0.970881 -3.379493 -1.915979
      ESP Fit Center  604 is at  -0.257382 -3.705337 -1.915979
      ESP Fit Center  605 is at   0.519016 -3.593708 -1.915979
      ESP Fit Center  606 is at   0.672583 -2.327438 -2.252375
      ESP Fit Center  607 is at   0.306656 -1.693634 -2.252375
      ESP Fit Center  608 is at  -0.425197 -1.693634 -2.252375
      ESP Fit Center  609 is at  -0.791124 -2.327438 -2.252375
      ESP Fit Center  610 is at  -0.425197 -2.961242 -2.252375
      ESP Fit Center  611 is at   0.306656 -2.961242 -2.252375
      ESP Fit Center  612 is at  -0.059270 -2.327438 -2.368289
      ESP Fit Center  613 is at   1.225015 -1.740223  2.368353
      ESP Fit Center  614 is at   1.956868 -1.740223  2.252439
      ESP Fit Center  615 is at   1.590942 -1.106419  2.252439
      ESP Fit Center  616 is at   0.859088 -1.106419  2.252439
      ESP Fit Center  617 is at   0.493161 -1.740223  2.252439
      ESP Fit Center  618 is at   0.859088 -2.374027  2.252439
      ESP Fit Center  619 is at   1.590942 -2.374027  2.252439
      ESP Fit Center  620 is at   2.617083 -1.740223  1.916043
      ESP Fit Center  621 is at   1.803301 -3.006493  1.916043
      ESP Fit Center  622 is at   2.396097 -2.492832  1.916043
      ESP Fit Center  623 is at   2.617083 -1.740223 -1.915993
      ESP Fit Center  624 is at   1.803301 -3.006493 -1.915993
      ESP Fit Center  625 is at   2.396097 -2.492832 -1.915993
      ESP Fit Center  626 is at   1.956868 -1.740223 -2.252389
      ESP Fit Center  627 is at   1.590942 -1.106419 -2.252389
      ESP Fit Center  628 is at   0.859088 -1.106419 -2.252389
      ESP Fit Center  629 is at   0.493161 -1.740223 -2.252389
      ESP Fit Center  630 is at   0.859088 -2.374027 -2.252389
      ESP Fit Center  631 is at   1.590942 -2.374027 -2.252389
      ESP Fit Center  632 is at   1.225015 -1.740223 -2.368303
      ESP Fit Center  633 is at   1.385793 -0.371408  2.368336
      ESP Fit Center  634 is at   1.019866  0.262396  2.252422
      ESP Fit Center  635 is at   0.653939 -0.371408  2.252422
      ESP Fit Center  636 is at   1.019866 -1.005212  2.252422
      ESP Fit Center  637 is at   1.751720 -1.005212  2.252422
      ESP Fit Center  638 is at   1.019866  0.262396 -2.252406
      ESP Fit Center  639 is at   0.653939 -0.371408 -2.252406
      ESP Fit Center  640 is at   1.019866 -1.005212 -2.252406
      ESP Fit Center  641 is at   1.751720 -1.005212 -2.252406
      ESP Fit Center  642 is at   1.385793 -0.371408 -2.368320
      ESP Fit Center  643 is at   3.012099  0.306412  2.684073
      ESP Fit Center  644 is at   3.768299  0.306412  2.575348
      ESP Fit Center  645 is at   3.390199  0.961301  2.575348
      ESP Fit Center  646 is at   2.633999  0.961301  2.575348
      ESP Fit Center  647 is at   2.255899  0.306412  2.575348
      ESP Fit Center  648 is at   2.633999 -0.348476  2.575348
      ESP Fit Center  649 is at   3.390199 -0.348476  2.575348
      ESP Fit Center  650 is at   4.463236  0.306412  2.257981
      ESP Fit Center  651 is at   4.268820  1.031981  2.257981
      ESP Fit Center  652 is at   3.737668  1.563134  2.257981
      ESP Fit Center  653 is at   3.012099  1.757549  2.257981
      ESP Fit Center  654 is at   2.286531  1.563134  2.257981
      ESP Fit Center  655 is at   1.755378  1.031981  2.257981
      ESP Fit Center  656 is at   2.286531 -0.950309  2.257981
      ESP Fit Center  657 is at   3.012099 -1.144724  2.257981
      ESP Fit Center  658 is at   3.737668 -0.950309  2.257981
      ESP Fit Center  659 is at   4.268820 -0.419156  2.257981
      ESP Fit Center  660 is at   5.040610  0.306412  1.757683
      ESP Fit Center  661 is at   4.903630  1.039195  1.757683
      ESP Fit Center  662 is at   4.511187  1.673012  1.757683
      ESP Fit Center  663 is at   3.916284  2.122261  1.757683
      ESP Fit Center  664 is at   3.199267  2.326271  1.757683
      ESP Fit Center  665 is at   2.456971  2.257487  1.757683
      ESP Fit Center  666 is at   3.199267 -1.713446  1.757683
      ESP Fit Center  667 is at   3.916284 -1.509437  1.757683
      ESP Fit Center  668 is at   4.511187 -1.060187  1.757683
      ESP Fit Center  669 is at   4.903630 -0.426370  1.757683
      ESP Fit Center  670 is at   5.453647  0.306412  1.114986
      ESP Fit Center  671 is at   5.334149  1.060892  1.114986
      ESP Fit Center  672 is at   4.987353  1.741518  1.114986
      ESP Fit Center  673 is at   4.447205  2.281666  1.114986
      ESP Fit Center  674 is at   3.766579  2.628463  1.114986
      ESP Fit Center  675 is at   3.012099  2.747960  1.114986
      ESP Fit Center  676 is at   3.766579 -2.015638  1.114986
      ESP Fit Center  677 is at   4.447205 -1.668841  1.114986
      ESP Fit Center  678 is at   4.987353 -1.128693  1.114986
      ESP Fit Center  679 is at   5.334149 -0.448067  1.114986
      ESP Fit Center  680 is at   5.668884  0.306412  0.381956
      ESP Fit Center  681 is at   5.561266  1.054915  0.381956
      ESP Fit Center  682 is at   5.247129  1.742779  0.381956
      ESP Fit Center  683 is at   4.751923  2.314277  0.381956
      ESP Fit Center  684 is at   4.115767  2.723109  0.381956
      ESP Fit Center  685 is at   3.390199  2.936155  0.381956
      ESP Fit Center  686 is at   4.115767 -2.110284  0.381956
      ESP Fit Center  687 is at   4.751923 -1.701452  0.381956
      ESP Fit Center  688 is at   5.247129 -1.129954  0.381956
      ESP Fit Center  689 is at   5.561266 -0.442090  0.381956
      ESP Fit Center  690 is at   5.668884  0.306412 -0.382020
      ESP Fit Center  691 is at   5.561266  1.054915 -0.382020
      ESP Fit Center  692 is at   5.247129  1.742779 -0.382020
      ESP Fit Center  693 is at   4.751923  2.314277 -0.382020
      ESP Fit Center  694 is at   4.115767  2.723109 -0.382020
      ESP Fit Center  695 is at   3.390199  2.936155 -0.382020
      ESP Fit Center  696 is at   4.115767 -2.110284 -0.382020
      ESP Fit Center  697 is at   4.751923 -1.701452 -0.382020
      ESP Fit Center  698 is at   5.247129 -1.129954 -0.382020
      ESP Fit Center  699 is at   5.561266 -0.442090 -0.382020
      ESP Fit Center  700 is at   5.453647  0.306412 -1.115050
      ESP Fit Center  701 is at   5.334149  1.060892 -1.115050
      ESP Fit Center  702 is at   4.987353  1.741518 -1.115050
      ESP Fit Center  703 is at   4.447205  2.281666 -1.115050
      ESP Fit Center  704 is at   3.766579  2.628463 -1.115050
      ESP Fit Center  705 is at   3.012099  2.747960 -1.115050
      ESP Fit Center  706 is at   3.766579 -2.015638 -1.115050
      ESP Fit Center  707 is at   4.447205 -1.668841 -1.115050
      ESP Fit Center  708 is at   4.987353 -1.128693 -1.115050
      ESP Fit Center  709 is at   5.334149 -0.448067 -1.115050
      ESP Fit Center  710 is at   5.040610  0.306412 -1.757747
      ESP Fit Center  711 is at   4.903630  1.039195 -1.757747
      ESP Fit Center  712 is at   4.511187  1.673012 -1.757747
      ESP Fit Center  713 is at   3.916284  2.122261 -1.757747
      ESP Fit Center  714 is at   3.199267  2.326271 -1.757747
      ESP Fit Center  715 is at   2.456971  2.257487 -1.757747
      ESP Fit Center  716 is at   3.199267 -1.713446 -1.757747
      ESP Fit Center  717 is at   3.916284 -1.509437 -1.757747
      ESP Fit Center  718 is at   4.511187 -1.060187 -1.757747
      ESP Fit Center  719 is at   4.903630 -0.426370 -1.757747
      ESP Fit Center  720 is at   4.463236  0.306412 -2.258045
      ESP Fit Center  721 is at   4.268820  1.031981 -2.258045
      ESP Fit Center  722 is at   3.737668  1.563134 -2.258045
      ESP Fit Center  723 is at   3.012099  1.757549 -2.258045
      ESP Fit Center  724 is at   2.286531  1.563134 -2.258045
      ESP Fit Center  725 is at   1.755378  1.031981 -2.258045
      ESP Fit Center  726 is at   2.286531 -0.950309 -2.258045
      ESP Fit Center  727 is at   3.012099 -1.144724 -2.258045
      ESP Fit Center  728 is at   3.737668 -0.950309 -2.258045
      ESP Fit Center  729 is at   4.268820 -0.419156 -2.258045
      ESP Fit Center  730 is at   3.768299  0.306412 -2.575412
      ESP Fit Center  731 is at   3.390199  0.961301 -2.575412
      ESP Fit Center  732 is at   2.633999  0.961301 -2.575412
      ESP Fit Center  733 is at   2.255899  0.306412 -2.575412
      ESP Fit Center  734 is at   2.633999 -0.348476 -2.575412
      ESP Fit Center  735 is at   3.390199 -0.348476 -2.575412
      ESP Fit Center  736 is at   3.012099  0.306412 -2.684137
      ESP Fit Center  737 is at  -2.427831 -2.046965  2.210429
      ESP Fit Center  738 is at  -2.805839 -1.392237  2.077123
      ESP Fit Center  739 is at  -3.183846 -2.046965  2.077123
      ESP Fit Center  740 is at  -2.805839 -2.701693  2.077123
      ESP Fit Center  741 is at  -2.049824 -2.701693  2.077123
      ESP Fit Center  742 is at  -3.848675 -2.046965  1.693284
      ESP Fit Center  743 is at  -3.658318 -2.757386  1.693284
      ESP Fit Center  744 is at  -3.138253 -3.277451  1.693284
      ESP Fit Center  745 is at  -2.427831 -3.467808  1.693284
      ESP Fit Center  746 is at  -1.717410 -3.277451  1.693284
      ESP Fit Center  747 is at  -4.196411 -2.779534  1.105209
      ESP Fit Center  748 is at  -3.781444 -3.400577  1.105209
      ESP Fit Center  749 is at  -3.160401 -3.815544  1.105209
      ESP Fit Center  750 is at  -2.427831 -3.961261  1.105209
      ESP Fit Center  751 is at  -1.695262 -3.815544  1.105209
[...]
 2035 Fit       0.014626
 2036 Fit       0.012623
 2037 Fit       0.009841
 2038 Fit       0.005734
 2039 Fit       0.020133
 2040 Fit       0.017772
 2041 Fit       0.016057
 2042 Fit       0.014295
 2043 Fit       0.012063
 2044 Fit       0.008999
 2045 Fit       0.004517
 2046 Fit       0.022044
 2047 Fit       0.018965
 2048 Fit       0.017079
 2049 Fit       0.015420
 2050 Fit       0.013490
 2051 Fit       0.010951
 2052 Fit       0.007425
 2053 Fit       0.020134
 2054 Fit       0.017772
 2055 Fit       0.016057
 2056 Fit       0.014295
 2057 Fit       0.012063
 2058 Fit       0.008999
 2059 Fit       0.004517
 2060 Fit       0.018157
 2061 Fit       0.016304
 2062 Fit       0.014626
 2063 Fit       0.012623
 2064 Fit       0.009841
 2065 Fit       0.005734
 2066 Fit       0.012848
 2067 Fit       0.010400
 2068 Fit       0.006421
 2069 Fit      -0.000558
 2070 Fit       0.001998
 2071 Fit       0.001917
 2072 Fit       0.002679
 2073 Fit       0.004601
 2074 Fit       0.002428
 2075 Fit       0.004954
 2076 Fit       0.004706
 2077 Fit       0.000825
 2078 Fit       0.002681
 2079 Fit       0.004603
 2080 Fit       0.002430
 2081 Fit       0.002000
 2082 Fit       0.001919
 2083 Fit      -0.000554
 2084 Fit       0.000006
 2085 Fit      -0.000832
 2086 Fit       0.001781
 2087 Fit       0.002911
 2088 Fit       0.000823
 2089 Fit      -0.002126
 2090 Fit      -0.002455
 2091 Fit       0.005770
 2092 Fit       0.006145
 2093 Fit       0.004764
 2094 Fit       0.001823
 2095 Fit       0.009771
 2096 Fit       0.009339
 2097 Fit       0.007805
 2098 Fit       0.004994
 2099 Fit       0.001092
 2100 Fit       0.013092
 2101 Fit       0.002541
 2102 Fit       0.013092
 2103 Fit       0.002541
 2104 Fit       0.009771
 2105 Fit       0.009339
 2106 Fit       0.007805
 2107 Fit       0.004994
 2108 Fit       0.001093
 2109 Fit       0.005770
 2110 Fit       0.006145
 2111 Fit       0.004764
 2112 Fit       0.001823
 2113 Fit      -0.000832
 2114 Fit       0.001781
 2115 Fit       0.002911
 2116 Fit       0.000824
 2117 Fit      -0.002126
 2118 Fit      -0.002455
 2119 Fit       0.000007
 2120 Fit       0.000777
 2121 Fit       0.000355
 2122 Fit       0.002704
 2123 Fit       0.003452
 2124 Fit       0.001791
 2125 Fit      -0.000780
 2126 Fit      -0.001411
 2127 Fit       0.003251
 2128 Fit       0.005161
 2129 Fit       0.006308
 2130 Fit       0.006562
 2131 Fit       0.005729
 2132 Fit       0.006877
 2133 Fit       0.008350
 2134 Fit       0.009421
 2135 Fit       0.009941
 2136 Fit       0.009943
 2137 Fit       0.010813
 2138 Fit       0.013544
 2139 Fit       0.016967
 2140 Fit       0.016968
 2141 Fit       0.010814
 2142 Fit       0.013546
 2143 Fit       0.006877
 2144 Fit       0.008351
 2145 Fit       0.009422
 2146 Fit       0.009943
 2147 Fit       0.009945
 2148 Fit       0.003251
 2149 Fit       0.005162
 2150 Fit       0.006309
 2151 Fit       0.006563
 2152 Fit       0.005730
 2153 Fit       0.000355
 2154 Fit       0.002705
 2155 Fit       0.003453
 2156 Fit       0.001792
 2157 Fit      -0.000779
 2158 Fit      -0.001410
 2159 Fit       0.000778
 2160 Fit      -0.001615
 2161 Fit      -0.001537
 2162 Fit       0.000372
 2163 Fit       0.000036
 2164 Fit      -0.001715
 2165 Fit      -0.003234
 2166 Fit      -0.003350
 2167 Fit       0.001014
 2168 Fit       0.002855
 2169 Fit       0.004333
 2170 Fit       0.006039
 2171 Fit       0.009814
 2172 Fit       0.013653
 2173 Fit       0.013653
 2174 Fit       0.009814
 2175 Fit       0.004332
 2176 Fit       0.006038
 2177 Fit       0.001013
 2178 Fit       0.002854
 2179 Fit      -0.001538
 2180 Fit       0.000371
 2181 Fit       0.000036
 2182 Fit      -0.001714
 2183 Fit      -0.003234
 2184 Fit      -0.003350
 2185 Fit      -0.001615
 2186 Fit      -0.005172
 2187 Fit      -0.005840
 2188 Fit      -0.003892
 2189 Fit      -0.003672
 2190 Fit      -0.004831
 2191 Fit      -0.006340
 2192 Fit      -0.006980
 2193 Fit      -0.005840
 2194 Fit      -0.003892
 2195 Fit      -0.003672
 2196 Fit      -0.004830
 2197 Fit      -0.006340
 2198 Fit      -0.006981
 2199 Fit      -0.005172
 2200 Fit      -0.005602
 2201 Fit      -0.006121
 2202 Fit      -0.004668
 2203 Fit      -0.004521
 2204 Fit      -0.005646
 2205 Fit      -0.006711
 2206 Fit      -0.007044
 2207 Fit      -0.006121
 2208 Fit      -0.004668
 2209 Fit      -0.004520
 2210 Fit      -0.005646
 2211 Fit      -0.006710
 2212 Fit      -0.007043
 2213 Fit      -0.005601
 2214 Fit      -0.004225
 2215 Fit      -0.004314
 2216 Fit      -0.002727
 2217 Fit      -0.002426
 2218 Fit      -0.004045
 2219 Fit      -0.005405
 2220 Fit      -0.005502
 2221 Fit      -0.001439
 2222 Fit      -0.003539
 2223 Fit      -0.004960
 2224 Fit      -0.006213
 2225 Fit      -0.001583
 2226 Fit      -0.003296
 2227 Fit      -0.004104
 2228 Fit      -0.000305
 2229 Fit      -0.001830
 2230 Fit      -0.001534
 2231 Fit       0.000977
 2232 Fit      -0.000239
 2233 Fit       0.002005
 2234 Fit       0.001004
 2235 Fit       0.001451
 2236 Fit       0.002515
 2237 Fit       0.002005
 2238 Fit       0.001005
 2239 Fit       0.000977
 2240 Fit      -0.000238
 2241 Fit      -0.000304
 2242 Fit      -0.001828
 2243 Fit      -0.001531
 2244 Fit      -0.001583
 2245 Fit      -0.003295
 2246 Fit      -0.004101
 2247 Fit      -0.001439
 2248 Fit      -0.003538
 2249 Fit      -0.004958
 2250 Fit      -0.006210
 2251 Fit      -0.004313
 2252 Fit      -0.002727
 2253 Fit      -0.002426
 2254 Fit      -0.004044
 2255 Fit      -0.005404
 2256 Fit      -0.005501
 2257 Fit      -0.004225
 2258 Fit      -0.008334
 2259 Fit      -0.008712
 2260 Fit      -0.007364
 2261 Fit      -0.007078
 2262 Fit      -0.008598
 2263 Fit      -0.009914
 2264 Fit      -0.009455
 2265 Fit      -0.007070
 2266 Fit      -0.012355
 2267 Fit      -0.007067
 2268 Fit      -0.012354
 2269 Fit      -0.008711
 2270 Fit      -0.007363
 2271 Fit      -0.007077
 2272 Fit      -0.008597
 2273 Fit      -0.009913
 2274 Fit      -0.009454
 2275 Fit      -0.008333
 2276 Fit      -0.008410
 2277 Fit      -0.007585
 2278 Fit      -0.008747
 2279 Fit      -0.008975
 2280 Fit      -0.009452
 2281 Fit      -0.008166
 2282 Fit      -0.006739
 2283 Fit      -0.010635
 2284 Fit      -0.007887
 2285 Fit      -0.005335
 2286 Fit      -0.004128
 2287 Fit      -0.008948
 2288 Fit      -0.004906
 2289 Fit      -0.002257
 2290 Fit      -0.000933
 2291 Fit       0.002371
 2292 Fit       0.003206
 2293 Fit       0.002370
 2294 Fit       0.003205
 2295 Fit      -0.008949
 2296 Fit      -0.004907
 2297 Fit      -0.002258
 2298 Fit      -0.000934
 2299 Fit      -0.010636
 2300 Fit      -0.007888
 2301 Fit      -0.005335
 2302 Fit      -0.004129
 2303 Fit      -0.007585
 2304 Fit      -0.008747
 2305 Fit      -0.008975
 2306 Fit      -0.009452
 2307 Fit      -0.008166
 2308 Fit      -0.006740
 2309 Fit      -0.008410
 2310 Fit      -0.007458
 2311 Fit      -0.006637
 2312 Fit      -0.008210
 2313 Fit      -0.008463
 2314 Fit      -0.008574
 2315 Fit      -0.007060
 2316 Fit      -0.005501
 2317 Fit      -0.003905
 2318 Fit      -0.002781
 2319 Fit      -0.003644
 2320 Fit      -0.000534
 2321 Fit       0.000464
 2322 Fit      -0.000035
 2323 Fit      -0.002275
 2324 Fit       0.003919
 2325 Fit       0.003919
 2326 Fit      -0.000535
 2327 Fit       0.000464
 2328 Fit      -0.000036
 2329 Fit      -0.002276
 2330 Fit      -0.003905
 2331 Fit      -0.002782
 2332 Fit      -0.003645
 2333 Fit      -0.006638
 2334 Fit      -0.008210
 2335 Fit      -0.008463
 2336 Fit      -0.008574
 2337 Fit      -0.007060
 2338 Fit      -0.005501
 2339 Fit      -0.007459
 2340 Fit      -0.007793
 2341 Fit      -0.006566
 2342 Fit      -0.007529
 2343 Fit      -0.008418
 2344 Fit      -0.006566
 2345 Fit      -0.007529
 2346 Fit      -0.008418
 2347 Fit      -0.007793
 2348 Fit      -0.007153
 2349 Fit      -0.007297
 2350 Fit      -0.006590
 2351 Fit      -0.006127
 2352 Fit      -0.006811
 2353 Fit      -0.007414
 2354 Fit      -0.007488
 2355 Fit      -0.007085
 2356 Fit      -0.006471
 2357 Fit      -0.005659
 2358 Fit      -0.004755
 2359 Fit      -0.004338
 2360 Fit      -0.005058
 2361 Fit      -0.006551
 2362 Fit      -0.007677
 2363 Fit      -0.007529
 2364 Fit      -0.007032
 2365 Fit      -0.007172
 2366 Fit      -0.007358
 2367 Fit      -0.006507
 2368 Fit      -0.005912
 2369 Fit      -0.005238
 2370 Fit      -0.004400
 2371 Fit      -0.003267
 2372 Fit      -0.002070
 2373 Fit      -0.001626
 2374 Fit      -0.005931
 2375 Fit      -0.005601
 2376 Fit      -0.006248
 2377 Fit      -0.006836
 2378 Fit      -0.006898
 2379 Fit      -0.005673
 2380 Fit      -0.005029
 2381 Fit      -0.004397
 2382 Fit      -0.003719
 2383 Fit      -0.002767
 2384 Fit      -0.001289
 2385 Fit       0.000672
 2386 Fit      -0.003036
 2387 Fit      -0.004553
 2388 Fit      -0.005802
 2389 Fit      -0.006327
 2390 Fit      -0.006194
 2391 Fit      -0.004773
 2392 Fit      -0.004040
 2393 Fit      -0.003383
 2394 Fit      -0.002760
 2395 Fit      -0.001934
 2396 Fit      -0.000509
 2397 Fit       0.001929
 2398 Fit      -0.001117
 2399 Fit      -0.003791
 2400 Fit      -0.005285
 2401 Fit      -0.005722
 2402 Fit      -0.005431
 2403 Fit      -0.004020
 2404 Fit      -0.003239
 2405 Fit      -0.002568
 2406 Fit      -0.001992
 2407 Fit      -0.001319
 2408 Fit      -0.000177
 2409 Fit       0.001976
 2410 Fit       0.005828
 2411 Fit      -0.000676
 2412 Fit      -0.003605
 2413 Fit      -0.004947
 2414 Fit      -0.005192
 2415 Fit      -0.004762
 2416 Fit      -0.003592
 2417 Fit      -0.002771
 2418 Fit      -0.002079
 2419 Fit      -0.001509
 2420 Fit      -0.000874
 2421 Fit       0.000206
 2422 Fit       0.002330
 2423 Fit       0.006406
 2424 Fit      -0.000191
 2425 Fit      -0.003353
 2426 Fit      -0.004699
 2427 Fit      -0.004887
 2428 Fit      -0.004391
 2429 Fit      -0.003592
 2430 Fit      -0.002771
 2431 Fit      -0.002079
 2432 Fit      -0.001509
 2433 Fit      -0.000874
 2434 Fit       0.000206
 2435 Fit       0.002330
 2436 Fit       0.006406
 2437 Fit      -0.000191
 2438 Fit      -0.003353
 2439 Fit      -0.004700
 2440 Fit      -0.004887
 2441 Fit      -0.004391
 2442 Fit      -0.004020
 2443 Fit      -0.003239
 2444 Fit      -0.002568
 2445 Fit      -0.001992
 2446 Fit      -0.001319
 2447 Fit      -0.000177
 2448 Fit       0.001976
 2449 Fit       0.005826
 2450 Fit      -0.000677
 2451 Fit      -0.003605
 2452 Fit      -0.004947
 2453 Fit      -0.005192
 2454 Fit      -0.004762
 2455 Fit      -0.004773
 2456 Fit      -0.004040
 2457 Fit      -0.003383
 2458 Fit      -0.002760
 2459 Fit      -0.001934
 2460 Fit      -0.000510
 2461 Fit       0.001928
 2462 Fit      -0.001117
 2463 Fit      -0.003792
 2464 Fit      -0.005285
 2465 Fit      -0.005722
 2466 Fit      -0.005431
 2467 Fit      -0.005673
 2468 Fit      -0.005029
 2469 Fit      -0.004398
 2470 Fit      -0.003719
 2471 Fit      -0.002767
 2472 Fit      -0.001290
 2473 Fit       0.000670
 2474 Fit      -0.003037
 2475 Fit      -0.004554
 2476 Fit      -0.005803
 2477 Fit      -0.006327
 2478 Fit      -0.006194
 2479 Fit      -0.006507
 2480 Fit      -0.005912
 2481 Fit      -0.005239
 2482 Fit      -0.004400
 2483 Fit      -0.003268
 2484 Fit      -0.002072
 2485 Fit      -0.001628
 2486 Fit      -0.005932
 2487 Fit      -0.005601
 2488 Fit      -0.006248
 2489 Fit      -0.006837
 2490 Fit      -0.006898
 2491 Fit      -0.007086
 2492 Fit      -0.006471
 2493 Fit      -0.005660
 2494 Fit      -0.004756
 2495 Fit      -0.004339
 2496 Fit      -0.005059
 2497 Fit      -0.006551
 2498 Fit      -0.007677
 2499 Fit      -0.007530
 2500 Fit      -0.007032
 2501 Fit      -0.007172
 2502 Fit      -0.007358
 2503 Fit      -0.007297
 2504 Fit      -0.006591
 2505 Fit      -0.006127
 2506 Fit      -0.006812
 2507 Fit      -0.007414
 2508 Fit      -0.007489
 2509 Fit      -0.007153
 2510 Fit      -0.010905
 2511 Fit      -0.008565
 2512 Fit      -0.010408
 2513 Fit      -0.012798
 2514 Fit      -0.012579
 2515 Fit      -0.006551
 2516 Fit      -0.009011
 2517 Fit      -0.012325
 2518 Fit      -0.014388
 2519 Fit      -0.014310
 2520 Fit      -0.012990
 2521 Fit      -0.004956
 2522 Fit      -0.008829
 2523 Fit      -0.012665
 2524 Fit      -0.015165
 2525 Fit      -0.015677
 2526 Fit      -0.014205
 2527 Fit      -0.006575
 2528 Fit      -0.011144
 2529 Fit      -0.014602
 2530 Fit      -0.016357
 2531 Fit      -0.016057
 2532 Fit      -0.013597
 2533 Fit      -0.007165
 2534 Fit      -0.011811
 2535 Fit      -0.015157
 2536 Fit      -0.016810
 2537 Fit      -0.016446
 2538 Fit      -0.013730
 2539 Fit      -0.003383
 2540 Fit      -0.008865
 2541 Fit      -0.013251
 2542 Fit      -0.016115
 2543 Fit      -0.017119
 2544 Fit      -0.015899
 2545 Fit      -0.011885
 2546 Fit      -0.003383
 2547 Fit      -0.008864
 2548 Fit      -0.013251
 2549 Fit      -0.016114
 2550 Fit      -0.017119
 2551 Fit      -0.015899
 2552 Fit      -0.011885
 2553 Fit      -0.007163
 2554 Fit      -0.011810
 2555 Fit      -0.015156
 2556 Fit      -0.016810
 2557 Fit      -0.016446
 2558 Fit      -0.013731
 2559 Fit      -0.006572
 2560 Fit      -0.011142
 2561 Fit      -0.014601
 2562 Fit      -0.016356
 2563 Fit      -0.016057
 2564 Fit      -0.013597
 2565 Fit      -0.004952
 2566 Fit      -0.008825
 2567 Fit      -0.012663
 2568 Fit      -0.015164
 2569 Fit      -0.015676
 2570 Fit      -0.014205
 2571 Fit      -0.006547
 2572 Fit      -0.009008
 2573 Fit      -0.012322
 2574 Fit      -0.014386
 2575 Fit      -0.014310
 2576 Fit      -0.012989
 2577 Fit      -0.008562
 2578 Fit      -0.010405
 2579 Fit      -0.012796
 2580 Fit      -0.012578
 2581 Fit      -0.010903
 2582 Fit       0.011473
 2583 Fit       0.012207
 2584 Fit       0.012960
 2585 Fit       0.013442
 2586 Fit       0.013948
 2587 Fit       0.014442
 2588 Fit       0.015075
 2589 Fit       0.014845
 2590 Fit       0.014590
 2591 Fit       0.014809
 2592 Fit       0.015185
 2593 Fit       0.015655
 2594 Fit       0.016363
 2595 Fit       0.017706
 2596 Fit       0.016163
 2597 Fit       0.015370
 2598 Fit       0.015395
 2599 Fit       0.015702
 2600 Fit       0.016143
 2601 Fit       0.016816
 2602 Fit       0.018114
 2603 Fit       0.016163
 2604 Fit       0.015370
 2605 Fit       0.015395
 2606 Fit       0.015703
 2607 Fit       0.016143
 2608 Fit       0.016816
 2609 Fit       0.018114
 2610 Fit       0.014844
 2611 Fit       0.014590
 2612 Fit       0.014809
 2613 Fit       0.015186
 2614 Fit       0.015655
 2615 Fit       0.016363
 2616 Fit       0.017707
 2617 Fit       0.012960
 2618 Fit       0.013442
 2619 Fit       0.013949
 2620 Fit       0.014442
 2621 Fit       0.015076
 2622 Fit       0.011474
 2623 Fit       0.012207
 2624 Fit       0.003934
 2625 Fit       0.007056
 2626 Fit       0.009840
 2627 Fit       0.006604
 2628 Fit       0.009747
 2629 Fit       0.012331
 2630 Fit       0.010078
 2631 Fit       0.012843
 2632 Fit       0.016061
 2633 Fit       0.010078
 2634 Fit       0.012843
 2635 Fit       0.016061
 2636 Fit       0.006604
 2637 Fit       0.009747
 2638 Fit       0.012331
 2639 Fit       0.007055
 2640 Fit       0.009840
 2641 Fit       0.003933
 2642 Fit       0.002924
 2643 Fit       0.001531
 2644 Fit       0.005745
 2645 Fit       0.005451
 2646 Fit       0.004382
 2647 Fit       0.002165
 2648 Fit       0.008153
 2649 Fit       0.007362
 2650 Fit       0.006442
 2651 Fit       0.004940
 2652 Fit       0.002404
 2653 Fit       0.009158
 2654 Fit       0.008093
 2655 Fit       0.007019
 2656 Fit       0.005383
 2657 Fit       0.002678
 2658 Fit       0.009158
 2659 Fit       0.008093
 2660 Fit       0.007019
 2661 Fit       0.005383
 2662 Fit       0.002678
 2663 Fit       0.008153
 2664 Fit       0.007362
 2665 Fit       0.006442
 2666 Fit       0.004940
 2667 Fit       0.002404
 2668 Fit       0.005744
 2669 Fit       0.005451
 2670 Fit       0.004381
 2671 Fit       0.002165
 2672 Fit       0.002924
 2673 Fit       0.001530
 2674 Fit      -0.001554
 2675 Fit       0.000640
 2676 Fit      -0.006842
 2677 Fit      -0.001811
 2678 Fit       0.001321
 2679 Fit       0.003269
 2680 Fit       0.004584
 2681 Fit      -0.004336
 2682 Fit      -0.000028
 2683 Fit       0.002759
 2684 Fit       0.004682
 2685 Fit       0.006280
 2686 Fit       0.008219
 2687 Fit      -0.008754
 2688 Fit      -0.002402
 2689 Fit       0.001481
 2690 Fit       0.004030
 2691 Fit       0.005896
 2692 Fit       0.007703
 2693 Fit      -0.008755
 2694 Fit      -0.002403
 2695 Fit       0.001481
 2696 Fit       0.004030
 2697 Fit       0.005896
 2698 Fit       0.007703
 2699 Fit      -0.004337
 2700 Fit      -0.000029
 2701 Fit       0.002759
 2702 Fit       0.004682
 2703 Fit       0.006280
 2704 Fit       0.008219
 2705 Fit      -0.006843
 2706 Fit      -0.001811
 2707 Fit       0.001321
 2708 Fit       0.003269
 2709 Fit       0.004584
 2710 Fit      -0.001555
 2711 Fit       0.000640
 2712 Fit       0.010876
 2713 Fit       0.008680
 2714 Fit       0.013990
 2715 Fit       0.012463
 2716 Fit       0.010624
 2717 Fit       0.008137
 2718 Fit       0.004598
 2719 Fit       0.018228
 2720 Fit       0.016013
 2721 Fit       0.014408
 2722 Fit       0.012898
 2723 Fit       0.011148
 2724 Fit       0.008903
 2725 Fit       0.005886
 2726 Fit       0.017586
 2727 Fit       0.015626
 2728 Fit       0.014076
 2729 Fit       0.012466
 2730 Fit       0.010503
 2731 Fit       0.007953
 2732 Fit       0.004508
 2733 Fit       0.017586
 2734 Fit       0.015626
 2735 Fit       0.014076
 2736 Fit       0.012466
 2737 Fit       0.010503
 2738 Fit       0.007953
 2739 Fit       0.004508
 2740 Fit       0.018228
 2741 Fit       0.016013
 2742 Fit       0.014408
 2743 Fit       0.012898
 2744 Fit       0.011148
 2745 Fit       0.008903
 2746 Fit       0.005886
 2747 Fit       0.013991
 2748 Fit       0.012463
 2749 Fit       0.010624
 2750 Fit       0.008137
 2751 Fit       0.004598
 2752 Fit       0.010876
 2753 Fit       0.008680
 2754 Fit      -0.002008
 2755 Fit       0.000333
 2756 Fit      -0.000080
 2757 Fit       0.002405
 2758 Fit       0.001855
 2759 Fit      -0.001420
 2760 Fit       0.002671
 2761 Fit       0.003493
 2762 Fit       0.001583
 2763 Fit       0.002671
 2764 Fit       0.003493
 2765 Fit       0.001583
 2766 Fit       0.002407
 2767 Fit       0.001857
 2768 Fit      -0.001418
 2769 Fit       0.000335
 2770 Fit      -0.000077
 2771 Fit      -0.002005
 -----------------------------------------------------------------
 Leave Link  602 at Thu Jan 16 21:47:20 2014, MaxMem=   235929600 cpu:         0.9

 Test job not archived.
 1\1\GINC-G42\SP\RHF\Gen\C9H6Cl1N1O1\KOLAR\16-Jan-2014\0\\# hf/gen pop=
 mk iop(6/33=2,6/41=5,6/42=2)\\na resp\\0,1\C,0,-2.112799,1.927715,-0.0
 00016\C,0,-0.881571,2.624794,0.000049\C,0,0.296769,1.912296,0.000034\C
 ,0,0.259012,0.494714,0.000006\C,0,-1.038146,-0.103824,-0.000015\N,0,-2
 .194208,0.611028,-0.000042\C,0,-1.18318,-1.526707,0.000006\C,0,-0.0592
 7,-2.327438,0.000039\C,0,1.225015,-1.740223,0.000025\C,0,1.385793,-0.3
 71408,0.000008\Cl,0,3.012099,0.306413,-0.000032\O,0,-2.427831,-2.04696
 5,-0.000011\H,0,-0.877557,3.710203,-0.000006\H,0,1.255517,2.420269,0.0
 00101\H,0,2.101893,-2.379126,0.000033\H,0,-0.169869,-3.406425,0.000076
 \H,0,-3.053522,2.475473,0.000006\H,0,-3.029782,-1.270402,-0.000096\\Ve
 rsion=AM64L-G09RevD.01\State=1-A\HF=-933.1015594\RMSD=4.649e-09\Dipole
 =-0.1498453,0.8978795,-0.0000072\Quadrupole=-2.4516445,6.1973825,-3.74
 5738,-5.8736197,0.0003657,-0.0000004\PG=C01 [X(C9H6Cl1N1O1)]\\@


 If fifty million people say a stupid thing,
 it is still a stupid thing.
                   -- Anatole France
 Job cpu time:       0 days  0 hours  0 minutes 26.9 seconds.
 File lengths (MBytes):  RWF=     14 Int=      0 D2E=      0 Chk=      2 Scr=      1
 Normal termination of Gaussian 09 at Thu Jan 16 21:47:20 2014.
26.11user 0.84system 0:31.56elapsed 85%CPU (0avgtext+0avgdata 4841648maxresident)k
8inputs+31168outputs (3major+456331minor)pagefaults 0swaps
