Linux g29 2.6.38.6-client #1 SMP Tue Jun 12 11:27:21 CEST 2012 x86_64 GNU/Linux
Fri Jan 17 11:54:31 CET 2014

 Entering Gaussian System, Link 0=/usr/local/programs/common/gaussian/gaussian09_d01/arch/amd64-pgi_10.4.0-acml/g09/g09
 Initial command:
 /usr/local/programs/common/gaussian/gaussian09_d01/arch/amd64-pgi_10.4.0-acml/g09/l1.exe "/scratch/kolar/g09_19863/Gau-20958.inp" -scrdir="/scratch/kolar/g09_19863/"
 Entering Link 1 = /usr/local/programs/common/gaussian/gaussian09_d01/arch/amd64-pgi_10.4.0-acml/g09/l1.exe PID=     20965.
  
 Copyright (c) 1988,1990,1992,1993,1995,1998,2003,2009,2013,
            Gaussian, Inc.  All Rights Reserved.
  
 This is part of the Gaussian(R) 09 program.  It is based on
 the Gaussian(R) 03 system (copyright 2003, Gaussian, Inc.),
 the Gaussian(R) 98 system (copyright 1998, Gaussian, Inc.),
 the Gaussian(R) 94 system (copyright 1995, Gaussian, Inc.),
 the Gaussian 92(TM) system (copyright 1992, Gaussian, Inc.),
 the Gaussian 90(TM) system (copyright 1990, Gaussian, Inc.),
 the Gaussian 88(TM) system (copyright 1988, Gaussian, Inc.),
 the Gaussian 86(TM) system (copyright 1986, Carnegie Mellon
 University), and the Gaussian 82(TM) system (copyright 1983,
 Carnegie Mellon University). Gaussian is a federally registered
 trademark of Gaussian, Inc.
  
 This software contains proprietary and confidential information,
 including trade secrets, belonging to Gaussian, Inc.
  
 This software is provided under written license and may be
 used, copied, transmitted, or stored only in accord with that
 written license.
  
 The following legend is applicable only to US Government
 contracts under FAR:
  
                    RESTRICTED RIGHTS LEGEND
  
 Use, reproduction and disclosure by the US Government is
 subject to restrictions as set forth in subparagraphs (a)
 and (c) of the Commercial Computer Software - Restricted
 Rights clause in FAR 52.227-19.
  
 Gaussian, Inc.
 340 Quinnipiac St., Bldg. 40, Wallingford CT 06492
  
  
 ---------------------------------------------------------------
 Warning -- This program may not be used in any manner that
 competes with the business of Gaussian, Inc. or will provide
 assistance to any competitor of Gaussian, Inc.  The licensee
 of this program is prohibited from giving any competitor of
 Gaussian, Inc. access to this program.  By using this program,
 the user acknowledges that Gaussian, Inc. is engaged in the
 business of creating and licensing software in the field of
 computational chemistry and represents and warrants to the
 licensee that it is not a competitor of Gaussian, Inc. and that
 it will not use this program in any manner prohibited above.
 ---------------------------------------------------------------
  

 Cite this work as:
 Gaussian 09, Revision D.01,
 M. J. Frisch, G. W. Trucks, H. B. Schlegel, G. E. Scuseria, 
 M. A. Robb, J. R. Cheeseman, G. Scalmani, V. Barone, B. Mennucci, 
 G. A. Petersson, H. Nakatsuji, M. Caricato, X. Li, H. P. Hratchian, 
 A. F. Izmaylov, J. Bloino, G. Zheng, J. L. Sonnenberg, M. Hada, 
 M. Ehara, K. Toyota, R. Fukuda, J. Hasegawa, M. Ishida, T. Nakajima, 
 Y. Honda, O. Kitao, H. Nakai, T. Vreven, J. A. Montgomery, Jr., 
 J. E. Peralta, F. Ogliaro, M. Bearpark, J. J. Heyd, E. Brothers, 
 K. N. Kudin, V. N. Staroverov, T. Keith, R. Kobayashi, J. Normand, 
 K. Raghavachari, A. Rendell, J. C. Burant, S. S. Iyengar, J. Tomasi, 
 M. Cossi, N. Rega, J. M. Millam, M. Klene, J. E. Knox, J. B. Cross, 
 V. Bakken, C. Adamo, J. Jaramillo, R. Gomperts, R. E. Stratmann, 
 O. Yazyev, A. J. Austin, R. Cammi, C. Pomelli, J. W. Ochterski, 
 R. L. Martin, K. Morokuma, V. G. Zakrzewski, G. A. Voth, 
 P. Salvador, J. J. Dannenberg, S. Dapprich, A. D. Daniels, 
 O. Farkas, J. B. Foresman, J. V. Ortiz, J. Cioslowski, 
 and D. J. Fox, Gaussian, Inc., Wallingford CT, 2013.
 
 ******************************************
 Gaussian 09:  AM64L-G09RevD.01 24-Apr-2013
                17-Jan-2014 
 ******************************************
 %mem=1800mb
 ------------------------------------------------------------------
 # hf/gen pseudo=read pop=(mk, readradii) iop(6/33=2,6/41=5,6/42=2)
 ------------------------------------------------------------------
 1/38=1/1;
 2/12=2,17=6,18=5,40=1/2;
 3/5=7,11=9,16=1,17=8,25=1,30=1/1,2,3;
 4//1;
 5/5=2,38=5/2;
 6/7=2,8=2,9=2,10=2,15=8,20=101,28=1,33=2,41=5,42=2/1,2;
 99/5=1,9=1/99;
 -------
 na resp
 -------
 Symbolic Z-matrix:
 Charge =  0 Multiplicity = 1
 6                     1.08065   0.7726   -0.60922 
 6                     0.83203   2.14619  -0.50993 
 6                    -0.44763   2.62862  -0.23757 
 6                    -1.52032   1.74825  -0.05648 
 6                    -1.27815   0.36949  -0.15841 
 6                    -0.00008  -0.10575  -0.43125 
 8                    -2.78148   2.17791   0.20993 
 53                   -2.88666  -1.0093    0.09776 
 6                     2.47119   0.23635  -0.87469 
 6                     3.14589  -0.3715    0.37984 
 7                     3.35229   0.65391   1.41522 
 6                     4.5127   -0.94923  -0.04281 
 8                     4.61923  -1.9638   -0.69101 
 8                     5.55665  -0.19604   0.33656 
 1                     2.53544  -1.21602   0.72505 
 1                     1.6435    2.8539   -0.6626 
 1                    -0.62153   3.70115  -0.17059 
 1                     0.1617   -1.17609  -0.51494 
 1                     2.44988  -0.549    -1.63726 
 1                     3.1124    1.03994  -1.25792 
 1                     2.59735   1.33746   1.39833 
 1                     3.3494    0.23465   2.3431 
 1                     5.1542    0.54732   0.85456 
 1                    -2.78831   3.1478    0.23386 
 
                          Input orientation:                          
 ---------------------------------------------------------------------
 Center     Atomic      Atomic             Coordinates (Angstroms)
 Number     Number       Type             X           Y           Z
 ---------------------------------------------------------------------
      1          6           0        1.080646    0.772602   -0.609219
      2          6           0        0.832034    2.146188   -0.509925
      3          6           0       -0.447625    2.628615   -0.237569
      4          6           0       -1.520316    1.748249   -0.056484
      5          6           0       -1.278150    0.369487   -0.158412
      6          6           0       -0.000078   -0.105746   -0.431248
      7          8           0       -2.781482    2.177912    0.209930
      8         53           0       -2.886660   -1.009305    0.097757
      9          6           0        2.471194    0.236346   -0.874685
     10          6           0        3.145889   -0.371499    0.379842
     11          7           0        3.352292    0.653909    1.415219
     12          6           0        4.512699   -0.949227   -0.042813
     13          8           0        4.619226   -1.963799   -0.691007
     14          8           0        5.556648   -0.196041    0.336557
     15          1           0        2.535437   -1.216017    0.725053
     16          1           0        1.643502    2.853899   -0.662599
     17          1           0       -0.621527    3.701148   -0.170589
     18          1           0        0.161695   -1.176090   -0.514941
     19          1           0        2.449875   -0.548995   -1.637255
     20          1           0        3.112395    1.039935   -1.257923
     21          1           0        2.597346    1.337463    1.398326
     22          1           0        3.349397    0.234647    2.343097
     23          1           0        5.154203    0.547322    0.854555
     24          1           0       -2.788307    3.147801    0.233856
 ---------------------------------------------------------------------
                    Distance matrix (angstroms):
                    1          2          3          4          5
     1  C    0.000000
     2  C    1.399431   0.000000
     3  C    2.432801   1.394432   0.000000
     4  C    2.832385   2.428480   1.399465   0.000000
     5  C    2.435087   2.780846   2.408256   1.403573   0.000000
     6  C    1.403971   2.402042   2.777506   2.426699   1.390595
     7  O    4.190696   3.684657   2.418735   1.358722   2.380354
     8  I    4.406192   4.914784   4.392698   3.081362   2.134009
     9  C    1.513825   2.543107   3.827319   4.345970   3.819470
    10  C    2.559773   3.533321   4.721782   5.143654   4.517842
    11  N    3.045129   3.504965   4.590266   5.206323   4.898796
    12  C    3.881301   4.831882   6.119126   6.608618   5.940227
    13  O    4.473939   5.591745   6.853382   7.202492   6.364505
    14  O    4.676254   5.340838   6.660300   7.349705   6.875993
    15  H    2.802018   3.966255   4.960493   5.083975   4.223480
    16  H    2.156723   1.087495   2.145744   3.405816   3.868147
    17  H    3.415578   2.155432   1.088602   2.152825   3.395772
    18  H    2.156562   3.389235   3.863158   3.404571   2.142213
    19  H    2.162930   3.339505   4.522370   4.851658   4.114457
    20  H    2.149485   2.642602   4.029736   4.838096   4.575512
    21  H    2.578698   2.722459   3.689861   4.386383   4.287176
    22  H    3.762020   4.258032   5.177673   5.635875   5.262121
    23  H    4.334426   4.806176   6.074948   6.842618   6.514053
    24  H    4.617482   3.829270   2.443479   1.910718   3.186452
                    6          7          8          9         10
     6  C    0.000000
     7  O    3.655463   0.000000
     8  I    3.070606   3.190924   0.000000
     9  C    2.533939   5.704093   5.586044   0.000000
    10  C    3.259693   6.454618   6.072727   1.548718   0.000000
    11  N    3.901910   6.434166   6.589879   2.488846   1.471757
    12  C    4.607331   7.940274   7.400938   2.503066   1.542912
    13  O    4.985760   8.528537   7.607334   3.080327   2.419268
    14  O    5.610248   8.670415   8.485745   3.342767   2.417523
    15  H    2.999762   6.328802   5.462176   2.161631   1.097740
    16  H    3.393284   4.560565   6.002071   2.753477   3.707700
    17  H    3.866081   2.670290   5.233661   4.697396   5.575200
    18  H    1.085731   4.520736   3.113789   2.730966   3.217673
    19  H    2.766440   6.181845   5.630343   1.094864   2.141173
    20  H    3.418108   6.179593   6.482740   1.097162   2.162300
    21  H    3.489528   5.572291   6.105172   2.528824   2.063676
    22  H    4.362550   6.776013   6.743692   3.335471   2.064751
    23  H    5.352233   8.127082   8.225042   3.207104   2.258962
    24  H    4.336145   0.970208   4.160496   6.112919   6.900831
                   11         12         13         14         15
    11  N    0.000000
    12  C    2.458139   0.000000
    13  O    3.590781   1.208660   0.000000
    14  O    2.597135   1.342028   2.249359   0.000000
    15  H    2.154113   2.137840   2.628037   3.212319   0.000000
    16  H    3.475233   4.804185   5.662681   5.060944   4.391508
    17  H    5.252779   6.928390   7.734853   7.322235   5.911608
    18  H    4.153832   4.382420   4.530018   5.548970   2.678401
    19  H    3.402783   2.637740   2.757379   3.697641   2.456163
    20  H    2.711504   2.719211   3.407983   3.169286   3.058495
    21  H    1.018565   3.312765   4.399050   3.498065   2.641475
    22  H    1.018208   2.906440   3.956187   3.013910   2.320565
    23  H    1.890129   1.859155   2.996780   0.991399   3.159758
    24  H    6.732167   8.376567   9.047396   8.990556   6.901191
                   16         17         18         19         20
    16  H    0.000000
    17  H    2.467845   0.000000
    18  H    4.296320   4.951713   0.000000
    19  H    3.630410   5.445028   2.624615   0.000000
    20  H    2.408843   4.712380   3.764229   1.762817   0.000000
    21  H    2.730716   4.290646   3.988851   3.577041   2.722032
    22  H    4.336446   5.839819   4.507772   4.155290   3.697567
    23  H    4.466215   6.660075   5.456263   3.837241   2.978961
    24  H    4.531108   2.272599   5.287650   6.678765   6.441024
                   21         22         23         24
    21  H    0.000000
    22  H    1.635352   0.000000
    23  H    2.730847   2.360264   0.000000
    24  H    5.799877   7.113844   8.380407   0.000000
 Stoichiometry    C9H10INO3
 Framework group  C1[X(C9H10INO3)]
 Deg. of freedom    66
 Full point group                 C1      NOp   1
 Largest Abelian subgroup         C1      NOp   1
 Largest concise Abelian subgroup C1      NOp   1
                         Standard orientation:                         
 ---------------------------------------------------------------------
 Center     Atomic      Atomic             Coordinates (Angstroms)
 Number     Number       Type             X           Y           Z
 ---------------------------------------------------------------------
      1          6           0        1.080646    0.772602   -0.609219
      2          6           0        0.832034    2.146188   -0.509925
      3          6           0       -0.447625    2.628615   -0.237569
      4          6           0       -1.520316    1.748249   -0.056484
      5          6           0       -1.278150    0.369487   -0.158412
      6          6           0       -0.000078   -0.105746   -0.431248
      7          8           0       -2.781482    2.177912    0.209930
      8         53           0       -2.886660   -1.009305    0.097757
      9          6           0        2.471194    0.236346   -0.874685
     10          6           0        3.145889   -0.371499    0.379842
     11          7           0        3.352292    0.653909    1.415219
     12          6           0        4.512699   -0.949227   -0.042813
     13          8           0        4.619226   -1.963799   -0.691007
     14          8           0        5.556648   -0.196041    0.336557
     15          1           0        2.535437   -1.216017    0.725053
     16          1           0        1.643502    2.853899   -0.662599
     17          1           0       -0.621527    3.701148   -0.170589
     18          1           0        0.161695   -1.176090   -0.514941
     19          1           0        2.449875   -0.548995   -1.637255
     20          1           0        3.112395    1.039935   -1.257923
     21          1           0        2.597346    1.337463    1.398326
     22          1           0        3.349397    0.234647    2.343097
     23          1           0        5.154203    0.547322    0.854555
     24          1           0       -2.788307    3.147801    0.233856
 ---------------------------------------------------------------------
 Rotational constants (GHZ):      0.8723206      0.1794090      0.1556753
 General basis read from cards:  (5D, 7F)
 ======================================================================================================
                                       Pseudopotential Parameters
 ======================================================================================================
  Center     Atomic      Valence      Angular      Power
  Number     Number     Electrons     Momentum     of R      Exponent        Coefficient   SO-Coeffient
 ======================================================================================================
    1          6
                                   No pseudopotential on this center.
    2          6
                                   No pseudopotential on this center.
    3          6
                                   No pseudopotential on this center.
    4          6
                                   No pseudopotential on this center.
    5          6
                                   No pseudopotential on this center.
    6          6
                                   No pseudopotential on this center.
    7          8
                                   No pseudopotential on this center.
    8         53            7
                                      F and up 
                                                     0        1.0715702       -0.07476210    0.00000000
                                                     1       44.1936028      -30.08112240    0.00000000
                                                     2       12.9367609      -75.37227210    0.00000000
                                                     2        3.1956412      -22.05637580    0.00000000
                                                     2        0.8589806       -1.69795850    0.00000000
                                      S - F
                                                     0      127.9202670        2.93800360    0.00000000
                                                     1       78.6211465       41.24712670    0.00000000
                                                     2       36.5146237      287.86800950    0.00000000
                                                     2        9.9065681      114.37585060    0.00000000
                                                     2        1.9420086       37.65477140    0.00000000
                                      P - F
                                                     0       13.0035304        2.22226300    0.00000000
                                                     1       76.0331404       39.40908310    0.00000000
                                                     2       24.1961684      177.40750020    0.00000000
                                                     2        6.4053433       77.98894620    0.00000000
                                                     2        1.5851786       25.75476410    0.00000000
                                      D - F
                                                     0       40.4278108        7.05243600    0.00000000
                                                     1       28.9084375       33.30416350    0.00000000
                                                     2       15.6268936      186.94538750    0.00000000
                                                     2        4.1442856       71.96883610    0.00000000
                                                     2        0.9377235        9.36306570    0.00000000
    9          6
                                   No pseudopotential on this center.
   10          6
                                   No pseudopotential on this center.
   11          7
                                   No pseudopotential on this center.
   12          6
                                   No pseudopotential on this center.
   13          8
                                   No pseudopotential on this center.
   14          8
                                   No pseudopotential on this center.
   15          1
                                   No pseudopotential on this center.
   16          1
                                   No pseudopotential on this center.
   17          1
                                   No pseudopotential on this center.
   18          1
                                   No pseudopotential on this center.
   19          1
                                   No pseudopotential on this center.
   20          1
                                   No pseudopotential on this center.
   21          1
                                   No pseudopotential on this center.
   22          1
                                   No pseudopotential on this center.
   23          1
                                   No pseudopotential on this center.
   24          1
                                   No pseudopotential on this center.
 ======================================================================================================
 There are   223 symmetry adapted cartesian basis functions of A   symmetry.
 There are   210 symmetry adapted basis functions of A   symmetry.
   210 basis functions,   416 primitive gaussians,   223 cartesian basis functions
    51 alpha electrons       51 beta electrons
       nuclear repulsion energy       825.1551058918 Hartrees.
 NAtoms=   24 NActive=   24 NUniq=   24 SFac= 1.00D+00 NAtFMM=   60 NAOKFM=F Big=F
 Integral buffers will be    131072 words long.
 Raffenetti 1 integral format.
 Two-electron integral symmetry is turned on.
 One-electron integrals computed using PRISM.
   1 Symmetry operations used in ECPInt.
 ECPInt:  NShTT=    2926 NPrTT=   18221 LenC2=    2705 LenP2D=   10752.
 LDataN:  DoStor=T MaxTD1= 5 Len=  102
 NBasis=   210 RedAO= T EigKep=  4.66D-04  NBF=   210
 NBsUse=   210 1.00D-06 EigRej= -1.00D+00 NBFU=   210
 ExpMin= 1.05D-01 ExpMax= 5.48D+03 ExpMxC= 8.25D+02 IAcc=1 IRadAn=         1 AccDes= 0.00D+00
 Harris functional with IExCor=  205 and IRadAn=       1 diagonalized for initial guess.
 HarFok:  IExCor=  205 AccDes= 0.00D+00 IRadAn=         1 IDoV= 1 UseB2=F ITyADJ=14
 ICtDFT=  3500011 ScaDFX=  1.000000  1.000000  1.000000  1.000000
 Defaulting to unpruned grid for atomic number  53.
 FoFCou: FMM=F IPFlag=           0 FMFlag=      100000 FMFlg1=           0
         NFxFlg=           0 DoJE=T BraDBF=F KetDBF=T FulRan=T
         wScrn=  0.000000 ICntrl=     500 IOpCl=  0 I1Cent=   200000004 NGrid=           0
         NMat0=    1 NMatS0=      1 NMatT0=    0 NMatD0=    1 NMtDS0=    0 NMtDT0=    0
 Petite list used in FoFCou.
 Requested convergence on RMS density matrix=1.00D-08 within 128 cycles.
 Requested convergence on MAX density matrix=1.00D-06.
 Requested convergence on             energy=1.00D-06.
 No special actions if energy rises.
 Integral accuracy reduced to 1.0D-05 until final iterations.
 Initial convergence to 1.0D-05 achieved.  Increase integral accuracy.
 SCF Done:  E(RHF) =  -636.820532406     A.U. after   16 cycles
            NFock= 16  Conv=0.54D-08     -V/T= 2.0142

 **********************************************************************

            Population analysis using the SCF density.

 **********************************************************************

 Orbital symmetries:
 BldTbl:  Degeneracy threshold= 1.00D-02
       Occupied  (A) (A) (A) (A) (A) (A) (A) (A) (A) (A) (A) (A)
                 (A) (A) (A) (A) (A) (A) (A) (A) (A) (A) (A) (A)
                 (A) (A) (A) (A) (A) (A) (A) (A) (A) (A) (A) (A)
                 (A) (A) (A) (A) (A) (A) (A) (A) (A) (A) (A) (A)
                 (A) (A) (A)
       Virtual   (A) (A) (A) (A) (A) (A) (A) (A) (A) (A) (A) (A)
                 (A) (A) (A) (A) (A) (A) (A) (A) (A) (A) (A) (A)
                 (A) (A) (A) (A) (A) (A) (A) (A) (A) (A) (A) (A)
                 (A) (A) (A) (A) (A) (A) (A) (A) (A) (A) (A) (A)
                 (A) (A) (A) (A) (A) (A) (A) (A) (A) (A) (A) (A)
                 (A) (A) (A) (A) (A) (A) (A) (A) (A) (A) (A) (A)
                 (A) (A) (A) (A) (A) (A) (A) (A) (A) (A) (A) (A)
                 (A) (A) (A) (A) (A) (A) (A) (A) (A) (A) (A) (A)
                 (A) (A) (A) (A) (A) (A) (A) (A) (A) (A) (A) (A)
                 (A) (A) (A) (A) (A) (A) (A) (A) (A) (A) (A) (A)
                 (A) (A) (A) (A) (A) (A) (A) (A) (A) (A) (A) (A)
                 (A) (A) (A) (A) (A) (A) (A) (A) (A) (A) (A) (A)
                 (A) (A) (A) (A) (A) (A) (A) (A) (A) (A) (A) (A)
                 (A) (A) (A)
 The electronic state is 1-A.
 Alpha  occ. eigenvalues --  -20.61563 -20.59691 -20.54107 -15.58726 -11.37877
 Alpha  occ. eigenvalues --  -11.33741 -11.30234 -11.29498 -11.27032 -11.26876
 Alpha  occ. eigenvalues --  -11.26473 -11.26247 -11.25903  -1.44553  -1.42920
 Alpha  occ. eigenvalues --   -1.35004  -1.22612  -1.17902  -1.07591  -1.05146
 Alpha  occ. eigenvalues --   -1.00313  -0.90995  -0.89834  -0.85742  -0.80355
 Alpha  occ. eigenvalues --   -0.79595  -0.75725  -0.72958  -0.70879  -0.69249
 Alpha  occ. eigenvalues --   -0.67265  -0.65247  -0.63585  -0.62164  -0.61390
 Alpha  occ. eigenvalues --   -0.61110  -0.59464  -0.57192  -0.55877  -0.55533
 Alpha  occ. eigenvalues --   -0.53570  -0.52516  -0.49984  -0.46529  -0.46400
 Alpha  occ. eigenvalues --   -0.45378  -0.42065  -0.40718  -0.36882  -0.34671
 Alpha  occ. eigenvalues --   -0.32415
 Alpha virt. eigenvalues --    0.10284   0.10597   0.12418   0.18777   0.19973
 Alpha virt. eigenvalues --    0.20218   0.22986   0.25230   0.26955   0.28870
 Alpha virt. eigenvalues --    0.30064   0.30796   0.31927   0.33184   0.33993
 Alpha virt. eigenvalues --    0.36796   0.39442   0.41424   0.42966   0.43916
 Alpha virt. eigenvalues --    0.46801   0.48502   0.49182   0.51520   0.53827
 Alpha virt. eigenvalues --    0.55050   0.55988   0.58143   0.58967   0.67307
 Alpha virt. eigenvalues --    0.70125   0.72425   0.73475   0.74256   0.74911
 Alpha virt. eigenvalues --    0.77972   0.78516   0.80264   0.81109   0.81797
 Alpha virt. eigenvalues --    0.82752   0.83408   0.84172   0.86729   0.88788
 Alpha virt. eigenvalues --    0.91399   0.91836   0.93062   0.95517   0.96508
 Alpha virt. eigenvalues --    0.97443   0.98162   1.00063   1.00975   1.06290
 Alpha virt. eigenvalues --    1.07470   1.08279   1.08968   1.09892   1.11289
 Alpha virt. eigenvalues --    1.13373   1.14242   1.16104   1.18070   1.18812
 Alpha virt. eigenvalues --    1.19976   1.20658   1.22337   1.22804   1.23094
 Alpha virt. eigenvalues --    1.26335   1.26832   1.30935   1.31273   1.32840
 Alpha virt. eigenvalues --    1.34033   1.35857   1.37790   1.39917   1.40271
 Alpha virt. eigenvalues --    1.41728   1.45915   1.47133   1.50659   1.54613
 Alpha virt. eigenvalues --    1.58224   1.59067   1.60489   1.66288   1.67056
 Alpha virt. eigenvalues --    1.68906   1.69926   1.71283   1.74195   1.74592
 Alpha virt. eigenvalues --    1.76018   1.85563   1.87498   1.98113   1.99152
 Alpha virt. eigenvalues --    1.99582   2.00394   2.02577   2.03996   2.06247
 Alpha virt. eigenvalues --    2.07677   2.08223   2.09027   2.12257   2.16041
 Alpha virt. eigenvalues --    2.16425   2.17387   2.21341   2.22319   2.23523
 Alpha virt. eigenvalues --    2.24189   2.25792   2.27416   2.27982   2.34917
 Alpha virt. eigenvalues --    2.36099   2.39037   2.39108   2.40857   2.42431
 Alpha virt. eigenvalues --    2.43930   2.53475   2.55680   2.56807   2.57407
 Alpha virt. eigenvalues --    2.60563   2.64660   2.68294   2.68946   2.70444
 Alpha virt. eigenvalues --    2.72821   2.80336   2.81408   2.82601   2.84642
 Alpha virt. eigenvalues --    2.87881   2.92390   2.95581   2.96423   2.97888
 Alpha virt. eigenvalues --    3.02224   3.04940   3.08646   3.11540   3.13534
 Alpha virt. eigenvalues --    3.20619   3.22863   3.24649   3.29123   3.38901
 Alpha virt. eigenvalues --    3.46789   3.47396   3.72629  10.34880
          Condensed to atoms (all electrons):
               1          2          3          4          5          6
     1  C    4.912994   0.539685  -0.029525  -0.041888  -0.002632   0.499680
     2  C    0.539685   4.966797   0.462158  -0.002753  -0.067332  -0.007556
     3  C   -0.029525   0.462158   5.131004   0.503554  -0.016692  -0.062535
     4  C   -0.041888  -0.002753   0.503554   4.445734   0.436734  -0.007541
     5  C   -0.002632  -0.067332  -0.016692   0.436734   5.485344   0.449478
     6  C    0.499680  -0.007556  -0.062535  -0.007541   0.449478   4.994123
     7  O   -0.000063   0.004348  -0.055438   0.253855  -0.049886   0.001943
     8  I   -0.000194   0.001186  -0.001429  -0.058683   0.254567  -0.056459
     9  C    0.318375  -0.040824   0.004178  -0.000161   0.004210  -0.052167
    10  C   -0.054099  -0.001845  -0.000118   0.000022  -0.000005  -0.003319
    11  N   -0.004874  -0.001941  -0.000059   0.000012   0.000020  -0.000101
    12  C    0.004763  -0.000099   0.000000   0.000000   0.000001   0.000034
    13  O    0.000042  -0.000001   0.000000   0.000000   0.000000  -0.000004
    14  O   -0.000076  -0.000001   0.000000   0.000000   0.000000   0.000000
    15  H   -0.005708   0.000317  -0.000004  -0.000003  -0.000027   0.002086
    16  H   -0.031277   0.378221  -0.026784   0.002024  -0.000438   0.003708
    17  H    0.002258  -0.023644   0.380605  -0.041315   0.004531  -0.000277
    18  H   -0.030353   0.002892   0.000036   0.001823  -0.024855   0.381325
    19  H   -0.036323   0.001072  -0.000043  -0.000007   0.000141  -0.002443
    20  H   -0.048023  -0.000321   0.000234   0.000006  -0.000088   0.002891
    21  H    0.009932   0.007129   0.000105  -0.000073  -0.000156   0.000287
    22  H    0.000013  -0.000006   0.000000   0.000000  -0.000001  -0.000055
    23  H   -0.000050   0.000007   0.000000   0.000000   0.000000   0.000001
    24  H   -0.000048   0.000674  -0.000801  -0.036426   0.005316   0.000002
               7          8          9         10         11         12
     1  C   -0.000063  -0.000194   0.318375  -0.054099  -0.004874   0.004763
     2  C    0.004348   0.001186  -0.040824  -0.001845  -0.001941  -0.000099
     3  C   -0.055438  -0.001429   0.004178  -0.000118  -0.000059   0.000000
     4  C    0.253855  -0.058683  -0.000161   0.000022   0.000012   0.000000
     5  C   -0.049886   0.254567   0.004210  -0.000005   0.000020   0.000001
     6  C    0.001943  -0.056459  -0.052167  -0.003319  -0.000101   0.000034
     7  O    8.368226  -0.001297   0.000000   0.000000   0.000000   0.000000
     8  I   -0.001297   6.623969  -0.000164   0.000006  -0.000001   0.000000
     9  C    0.000000  -0.000164   5.171687   0.315752  -0.053550  -0.040086
    10  C    0.000000   0.000006   0.315752   5.218756   0.186716   0.351066
    11  N    0.000000  -0.000001  -0.053550   0.186716   7.246940  -0.056657
    12  C    0.000000   0.000000  -0.040086   0.351066  -0.056657   4.105892
    13  O    0.000000   0.000000  -0.000416  -0.077215   0.001935   0.590316
    14  O    0.000000   0.000000  -0.000694  -0.088973  -0.023859   0.276259
    15  H    0.000000   0.000002  -0.029657   0.395779  -0.037677  -0.041809
    16  H   -0.000031   0.000018  -0.001975   0.000088   0.000061  -0.000003
    17  H   -0.003298  -0.000189  -0.000095   0.000001  -0.000001   0.000000
    18  H   -0.000035   0.000378  -0.001791   0.000295  -0.000013  -0.000029
    19  H    0.000000  -0.000010   0.399861  -0.045529   0.003232  -0.001471
    20  H    0.000000   0.000003   0.400051  -0.043178   0.000765  -0.005086
    21  H    0.000000   0.000003  -0.009664  -0.030875   0.319300   0.003494
    22  H    0.000000   0.000000   0.004208  -0.031289   0.325025  -0.000002
    23  H    0.000000   0.000000   0.000110  -0.007135   0.038222  -0.029071
    24  H    0.268992   0.000473   0.000000   0.000000   0.000000   0.000000
              13         14         15         16         17         18
     1  C    0.000042  -0.000076  -0.005708  -0.031277   0.002258  -0.030353
     2  C   -0.000001  -0.000001   0.000317   0.378221  -0.023644   0.002892
     3  C    0.000000   0.000000  -0.000004  -0.026784   0.380605   0.000036
     4  C    0.000000   0.000000  -0.000003   0.002024  -0.041315   0.001823
     5  C    0.000000   0.000000  -0.000027  -0.000438   0.004531  -0.024855
     6  C   -0.000004   0.000000   0.002086   0.003708  -0.000277   0.381325
     7  O    0.000000   0.000000   0.000000  -0.000031  -0.003298  -0.000035
     8  I    0.000000   0.000000   0.000002   0.000018  -0.000189   0.000378
     9  C   -0.000416  -0.000694  -0.029657  -0.001975  -0.000095  -0.001791
    10  C   -0.077215  -0.088973   0.395779   0.000088   0.000001   0.000295
    11  N    0.001935  -0.023859  -0.037677   0.000061  -0.000001  -0.000013
    12  C    0.590316   0.276259  -0.041809  -0.000003   0.000000  -0.000029
    13  O    8.118015  -0.061374   0.004242   0.000000   0.000000   0.000006
    14  O   -0.061374   8.424244   0.002183  -0.000001   0.000000   0.000000
    15  H    0.004242   0.002183   0.495554   0.000007   0.000000   0.000756
    16  H    0.000000  -0.000001   0.000007   0.453508  -0.001688  -0.000097
    17  H    0.000000   0.000000   0.000000  -0.001688   0.470695   0.000007
    18  H    0.000006   0.000000   0.000756  -0.000097   0.000007   0.433252
    19  H    0.005141   0.000190   0.000238  -0.000031   0.000002   0.001100
    20  H    0.000174   0.001988   0.003931   0.002678  -0.000007   0.000013
    21  H   -0.000055   0.000170   0.000716   0.000026  -0.000004  -0.000001
    22  H    0.000003   0.001016  -0.003778   0.000000   0.000000  -0.000002
    23  H    0.002578   0.237884   0.001131   0.000003   0.000000   0.000000
    24  H    0.000000   0.000000   0.000000  -0.000005   0.003448   0.000003
              19         20         21         22         23         24
     1  C   -0.036323  -0.048023   0.009932   0.000013  -0.000050  -0.000048
     2  C    0.001072  -0.000321   0.007129  -0.000006   0.000007   0.000674
     3  C   -0.000043   0.000234   0.000105   0.000000   0.000000  -0.000801
     4  C   -0.000007   0.000006  -0.000073   0.000000   0.000000  -0.036426
     5  C    0.000141  -0.000088  -0.000156  -0.000001   0.000000   0.005316
     6  C   -0.002443   0.002891   0.000287  -0.000055   0.000001   0.000002
     7  O    0.000000   0.000000   0.000000   0.000000   0.000000   0.268992
     8  I   -0.000010   0.000003   0.000003   0.000000   0.000000   0.000473
     9  C    0.399861   0.400051  -0.009664   0.004208   0.000110   0.000000
    10  C   -0.045529  -0.043178  -0.030875  -0.031289  -0.007135   0.000000
    11  N    0.003232   0.000765   0.319300   0.325025   0.038222   0.000000
    12  C   -0.001471  -0.005086   0.003494  -0.000002  -0.029071   0.000000
    13  O    0.005141   0.000174  -0.000055   0.000003   0.002578   0.000000
    14  O    0.000190   0.001988   0.000170   0.001016   0.237884   0.000000
    15  H    0.000238   0.003931   0.000716  -0.003778   0.001131   0.000000
    16  H   -0.000031   0.002678   0.000026   0.000000   0.000003  -0.000005
    17  H    0.000002  -0.000007  -0.000004   0.000000   0.000000   0.003448
    18  H    0.001100   0.000013  -0.000001  -0.000002   0.000000   0.000003
    19  H    0.458580  -0.017983   0.000233  -0.000113  -0.000039   0.000000
    20  H   -0.017983   0.501151   0.000216  -0.000072   0.000574   0.000000
    21  H    0.000233   0.000216   0.338100  -0.023035   0.000213   0.000000
    22  H   -0.000113  -0.000072  -0.023035   0.356989  -0.001334   0.000000
    23  H   -0.000039   0.000574   0.000213  -0.001334   0.236876   0.000000
    24  H    0.000000   0.000000   0.000000   0.000000   0.000000   0.286629
 Mulliken charges:
               1
     1  C   -0.002608
     2  C   -0.218161
     3  C   -0.288446
     4  C    0.545086
     5  C   -0.478230
     6  C   -0.143101
     7  O   -0.787316
     8  I    0.237820
     9  C   -0.387188
    10  C   -0.084900
    11  N   -0.943496
    12  C    0.842487
    13  O   -0.583386
    14  O   -0.768956
    15  H    0.211719
    16  H    0.221989
    17  H    0.208969
    18  H    0.235290
    19  H    0.234201
    20  H    0.200084
    21  H    0.383939
    22  H    0.372432
    23  H    0.520030
    24  H    0.471745
 Sum of Mulliken charges =   0.00000
 Mulliken charges with hydrogens summed into heavy atoms:
               1
     1  C   -0.002608
     2  C    0.003828
     3  C   -0.079478
     4  C    0.545086
     5  C   -0.478230
     6  C    0.092189
     7  O   -0.315572
     8  I    0.237820
     9  C    0.047097
    10  C    0.126819
    11  N   -0.187126
    12  C    0.842487
    13  O   -0.583386
    14  O   -0.248926
 DipInt: DoE/N= T F RetVal/Mat= T F Init=T NMatP=  1 IDeriv=0 Min/MaxMlt=  0  4
 Entering OneElI...
 OneElI was handed   235799670 working-precision words.
 Multipole integrals L=0 to 4 MinM= 0 MaxM= 0.
 Requested accuracy = 0.1000D-12
 ShPair: Thresh= 1.00D-13 NBox=     0 BxSize= 0.00D+00 RnKept= 1.71D+01
         NSMCal=                 2926 NSMKep=                2538
 PrsmSu:  NPrtUS=   1 ThrOK=F IAlg=1 NPAlg=1 LenDen=           0.
 Prism:   IPart=     0 DynPar=F LinDyn=F Incr=          25.
 PRISM was handed   235571906 working-precision words and  2538 shell-pairs
 IPart=  0 NShTot=        2538 NBatch=          98 AvBLen=        25.9
 PrSmSu:  NxtVal=             26.
 Electronic moments (au):
       -102.00000000       -251.91561989        -85.53367776          9.42819076
      -3484.25804857       -834.87830335       -226.96656084        487.25408468
        -39.42623727        -18.26519093     -21620.05478797      -2155.12778687
       -104.93600556       -343.37365961       1982.03649052       -694.47300319
       -910.67819927       -128.96891692        286.40205930       -366.61405216
    -241325.13511227     -17217.26801685      -1763.40959720      32071.72339267
      -4351.62154062       8340.04157330        150.07849084       -971.36023229
       -240.92236509     -20680.02777568      -7938.03236166      -1280.72704450
      -4112.37470594       1630.12865898        -17.15616600
 Electronic spatial extent (au):  <R**2>=           4546.1029
 DipInt: DoE/N= F T RetVal/Mat= T F Init=T NMatP=  1 IDeriv=0 Min/MaxMlt=  0  4
 Nuclear    moments (au):
        102.00000000        250.92984552         87.73623034         -8.49776440
       3386.69999315        770.77816024        156.39890750       -478.60084185
         46.35529912         16.20784896      21092.17975334       2159.78694136
        141.48429220        182.40115972      -1900.09905276        759.11087631
        854.36324504         94.00819232       -269.04601751        343.94440567
     224356.92422338      14606.80112606       1018.32176426     -30566.54545122
       4771.59041035      -7997.55927701       -168.73560375       1042.27990839
        261.43084417      17814.05396395       5633.99168749        587.03331835
       3925.31245213      -1594.76377863        171.20665489
 Total      moments (au):
          0.00000000         -0.98577437          2.20255257          0.93042636
        -97.55805542        -64.10014311        -70.56765335          8.65324283
          6.92906185         -2.05734197       -527.87503464          4.65915450
         36.54828664       -160.97249989         81.93743776         64.63787313
        -56.31495423        -34.96072460         17.35604179        -22.66964648
     -16968.21088889      -2610.46689079       -745.08783295       1505.17794145
        419.96886973        342.48229630        -18.65711291         70.91967610
         20.50847909      -2865.97381173      -2304.04067417       -693.69372615
       -187.06225382         35.36488036        154.05048890
 Traceless Quadrup. (au):
        -20.14943813         13.30847418          6.84096395          8.65324283
          6.92906185         -2.05734197
 Charge=              0.0000 electrons
 Dipole moment (field-independent basis, Debye):
    X=             -2.5056    Y=              5.5983    Z=              2.3649  Tot=              6.5736
 Quadrupole moment (field-independent basis, Debye-Ang):
   XX=           -131.2189   YY=            -86.2169   ZZ=            -94.9159
   XY=             11.6389   XZ=              9.3198   YZ=             -2.7672
 Traceless Quadrupole moment (field-independent basis, Debye-Ang):
   XX=            -27.1017   YY=             17.9004   ZZ=              9.2013
   XY=             11.6389   XZ=              9.3198   YZ=             -2.7672
 Octapole moment (field-independent basis, Debye-Ang**2):
  XXX=           -375.7211  YYY=              3.3162  ZZZ=             26.0137  XYY=           -114.5740
  XXY=             58.3199  XXZ=             46.0067  XZZ=            -40.0828  YZZ=            -24.8837
  YYZ=             12.3534  XYZ=            -16.1354
 Hexadecapole moment (field-independent basis, Debye-Ang**3):
 XXXX=          -6391.0414 YYYY=           -983.2269 ZZZZ=           -280.6358 XXXY=            566.9222
 XXXZ=            158.1804 YYYX=            128.9952 YYYZ=             -7.0272 ZZZX=             26.7117
 ZZZY=              7.7245 XXYY=          -1079.4631 XXZZ=           -867.8121 YYZZ=           -261.2783
 XXYZ=            -70.4566 YYXZ=             13.3201 ZZXY=             58.0228
 N-N= 8.251551058918D+02 E-N=-3.138293474367D+03  KE= 6.279280509731D+02
 Entering OneElI...
 OneElI was handed   235829465 working-precision words.
 Calculate electrostatic properties
    NBasis =   210  MinDer = 0  MaxDer = 0
    NGrid  =    24  NMatD  =   1
 Requested accuracy = 0.1000D-12
 ShPair: Thresh= 1.00D-13 NBox=     0 BxSize= 0.00D+00 RnKept= 1.60D+01
         NSMCal=                 2926 NSMKep=                2350
 PrsmSu:  NPrtUS=   1 ThrOK=F IAlg=1 NPAlg=1 LenDen=           0.
 Prism:   IPart=     0 DynPar=F LinDyn=F Incr=         512.
 PRISM was handed   235619479 working-precision words and  2350 shell-pairs
 IPart=  0 NShTot=       56400 NBatch=        2350 AvBLen=        24.0
 PrSmSu:  NxtVal=            513.
 --------------------------------------------------------
       Center         ----      EFG at Nuclei      ----
                      3XX-RR        3YY-RR        3ZZ-RR
 --------------------------------------------------------
     1   Atom        0.089695      0.155793     -0.245488
     2   Atom        0.143916      0.184259     -0.328175
     3   Atom        0.125597      0.055382     -0.180980
     4   Atom       -0.041137      0.293761     -0.252625
     5   Atom        0.000053      0.023961     -0.024014
     6   Atom        0.145080      0.176012     -0.321092
     7   Atom       -0.558703     -1.021737      1.580440
     8   Atom       -0.028987     -0.014768      0.043754
     9   Atom       -0.039856      0.056493     -0.016637
    10   Atom        0.067711     -0.016488     -0.051223
    11   Atom        0.658685     -0.195688     -0.462997
    12   Atom        0.191645      0.087735     -0.279381
    13   Atom        1.682901     -0.817240     -0.865661
    14   Atom        0.052641     -0.565644      0.513003
    15   Atom        0.010332     -0.104069      0.093737
    16   Atom       -0.107376     -0.047129      0.154505
    17   Atom        0.122843     -0.291990      0.169147
    18   Atom        0.129228     -0.290578      0.161349
    19   Atom        0.140318     -0.074346     -0.065972
    20   Atom       -0.007832     -0.090112      0.097944
    21   Atom       -0.103430     -0.056477      0.159907
    22   Atom        0.215075      0.075647     -0.290722
    23   Atom        0.085386     -0.129700      0.044314
    24   Atom        0.193939     -0.444479      0.250539
 --------------------------------------------------------
                        XY            XZ            YZ
 --------------------------------------------------------
     1   Atom        0.011888     -0.060686      0.005766
     2   Atom       -0.027019     -0.102499      0.019047
     3   Atom       -0.020144     -0.067493      0.013476
     4   Atom        0.165243     -0.038016     -0.012247
     5   Atom       -0.274186     -0.018445      0.054450
     6   Atom        0.031848     -0.095345      0.018126
     7   Atom        0.866956      0.478888     -0.236796
     8   Atom       -0.068782      0.011649      0.010967
     9   Atom        0.041353     -0.023107      0.054032
    10   Atom        0.008721     -0.011664     -0.160830
    11   Atom        0.540695     -0.212111     -0.174905
    12   Atom       -0.123401     -0.125524      0.397606
    13   Atom        0.245614     -0.086657      0.025829
    14   Atom       -0.513544     -0.212630     -1.012726
    15   Atom       -0.181597      0.074917      0.101777
    16   Atom       -0.216727      0.050232      0.040245
    17   Atom        0.072247      0.011873     -0.028716
    18   Atom        0.066572      0.009465     -0.034457
    19   Atom       -0.007531     -0.011471     -0.216105
    20   Atom       -0.180541      0.085405      0.114005
    21   Atom        0.297583     -0.016085     -0.002836
    22   Atom        0.017687      0.005128      0.209174
    23   Atom        0.123487      0.088891     -0.217815
    24   Atom        0.005713      0.012192     -0.017585
 --------------------------------------------------------


 ---------------------------------------------------------------------------------
              Nuclear Quadrupole Coupling Constant in Principal Axis System
 ---------------------------------------------------------------------------------

       Atom             a.u.   MegaHertz   Gauss  10(-4) cm-1        Axes

              Baa    -0.0929   -15.498    -5.530    -5.169  0.7373  0.6654 -0.1163
     8 I(127) Bbb     0.0456     7.600     2.712     2.535  0.2151 -0.0681  0.9742
              Bcc     0.0473     7.897     2.818     2.634 -0.6404  0.7433  0.1934
 
              Baa    -0.5548     2.664     0.951     0.889 -0.1055  0.5594  0.8222
    11 N(14)  Bbb    -0.4157     1.996     0.712     0.666 -0.4612  0.7050 -0.5388
              Bcc     0.9705    -4.661    -1.663    -1.555  0.8810  0.4360 -0.1836
 

 ---------------------------------------------------------------------------------

 No NMR shielding tensors so no spin-rotation constants.
 Leave Link  601 at Fri Jan 17 11:56:46 2014, MaxMem=   235929600 cpu:         0.3
 FitSet:  NAtFit=    24 NAtPot=    24 NAtFrz=     0 MDM=    28 TotChg=   0.00000
 Merz-Kollman atomic radii used.
 Read replacement radii for each type of atom:
 Rad(53) =   2.700000000000D+00
 Atom Element Radius
    1     6    1.50
    2     6    1.50
    3     6    1.50
    4     6    1.50
    5     6    1.50
    6     6    1.50
    7     8    1.40
    8    53    2.70
    9     6    1.50
   10     6    1.50
   11     7    1.50
   12     6    1.50
   13     8    1.40
   14     8    1.40
   15     1    1.20
   16     1    1.20
   17     1    1.20
   18     1    1.20
   19     1    1.20
   20     1    1.20
   21     1    1.20
   22     1    1.20
   23     1    1.20
   24     1    1.20
 Generate VDW surfaces: Layer= 5 Dens= 2 Start= 1.400 Inc= 0.179

 **********************************************************************

            Electrostatic Properties Using The SCF Density

 **********************************************************************

       Atomic Center    1 is at   1.080646  0.772602 -0.609219
       Atomic Center    2 is at   0.832034  2.146188 -0.509925
       Atomic Center    3 is at  -0.447625  2.628615 -0.237569
       Atomic Center    4 is at  -1.520316  1.748249 -0.056484
       Atomic Center    5 is at  -1.278150  0.369487 -0.158412
       Atomic Center    6 is at  -0.000078 -0.105746 -0.431248
       Atomic Center    7 is at  -2.781482  2.177912  0.209930
       Atomic Center    8 is at  -2.886660 -1.009305  0.097757
       Atomic Center    9 is at   2.471194  0.236346 -0.874685
       Atomic Center   10 is at   3.145889 -0.371499  0.379842
       Atomic Center   11 is at   3.352292  0.653909  1.415219
       Atomic Center   12 is at   4.512699 -0.949227 -0.042813
       Atomic Center   13 is at   4.619226 -1.963799 -0.691007
       Atomic Center   14 is at   5.556648 -0.196041  0.336557
       Atomic Center   15 is at   2.535437 -1.216017  0.725053
       Atomic Center   16 is at   1.643502  2.853899 -0.662599
       Atomic Center   17 is at  -0.621527  3.701148 -0.170589
       Atomic Center   18 is at   0.161695 -1.176090 -0.514941
       Atomic Center   19 is at   2.449875 -0.548995 -1.637255
       Atomic Center   20 is at   3.112395  1.039935 -1.257923
       Atomic Center   21 is at   2.597346  1.337463  1.398326
       Atomic Center   22 is at   3.349397  0.234647  2.343097
       Atomic Center   23 is at   5.154203  0.547322  0.854555
       Atomic Center   24 is at  -2.788307  3.147801  0.233856
      ESP Fit Center   25 is at  -0.214529  1.152900 -2.217912
      ESP Fit Center   26 is at   1.439767  1.394618 -2.582573
      ESP Fit Center   27 is at   0.721525  1.394618 -2.582573
      ESP Fit Center   28 is at   0.362404  0.772602 -2.582573
      ESP Fit Center   29 is at   0.721525  0.150586 -2.582573
      ESP Fit Center   30 is at   1.080646  0.772602 -2.709219
      ESP Fit Center   31 is at   0.832034  2.146188  1.590075
      ESP Fit Center   32 is at   1.191155  2.768204  1.463430
      ESP Fit Center   33 is at   0.472913  1.524172  1.463430
      ESP Fit Center   34 is at   1.967604  2.875974  1.098768
      ESP Fit Center   35 is at   1.392784  3.374058  1.098768
      ESP Fit Center   36 is at   0.641933  3.954879 -1.559925
      ESP Fit Center   37 is at   2.181888  2.146188 -2.118618
      ESP Fit Center   38 is at   0.639930  3.482303 -2.118618
      ESP Fit Center   39 is at   1.550277  2.146188 -2.483279
      ESP Fit Center   40 is at   1.191155  2.768204 -2.483279
      ESP Fit Center   41 is at   0.472913  2.768204 -2.483279
      ESP Fit Center   42 is at   0.113792  2.146188 -2.483279
      ESP Fit Center   43 is at   0.472913  1.524172 -2.483279
      ESP Fit Center   44 is at   0.832034  2.146188 -2.609925
      ESP Fit Center   45 is at  -0.447625  2.628615  1.862431
      ESP Fit Center   46 is at   0.270618  2.628615  1.735786
      ESP Fit Center   47 is at  -0.088503  3.250631  1.735786
      ESP Fit Center   48 is at  -0.806746  3.250631  1.735786
      ESP Fit Center   49 is at  -0.088503  2.006599  1.735786
      ESP Fit Center   50 is at   0.687945  3.358401  1.371124
      ESP Fit Center   51 is at   0.113125  3.856486  1.371124
      ESP Fit Center   52 is at  -1.331591  3.648767  1.371124
      ESP Fit Center   53 is at   0.113125  1.400745  1.371124
      ESP Fit Center   54 is at   0.769292  3.980138  0.812431
      ESP Fit Center   55 is at  -1.918946  3.697593 -1.287569
      ESP Fit Center   56 is at   0.113125  3.856486 -1.846262
      ESP Fit Center   57 is at  -0.639729  3.964730 -1.846262
      ESP Fit Center   58 is at  -1.331591  3.648767 -1.846262
      ESP Fit Center   59 is at  -1.742800  3.008913 -1.846262
      ESP Fit Center   60 is at  -0.088503  3.250631 -2.210923
      ESP Fit Center   61 is at  -0.806746  3.250631 -2.210923
      ESP Fit Center   62 is at  -1.165867  2.628615 -2.210923
      ESP Fit Center   63 is at  -0.806746  2.006599 -2.210923
      ESP Fit Center   64 is at  -0.447625  2.628615 -2.337569
      ESP Fit Center   65 is at  -0.802073  1.748249  1.916871
      ESP Fit Center   66 is at  -1.161195  2.370265  1.916871
      ESP Fit Center   67 is at  -2.404282  2.768401 -1.665177
      ESP Fit Center   68 is at  -1.879437  2.370265 -2.029838
      ESP Fit Center   69 is at  -1.520316  1.748249 -2.156484
      ESP Fit Center   70 is at   0.718164 -0.105746  1.542107
      ESP Fit Center   71 is at   0.359043  0.516270  1.542107
      ESP Fit Center   72 is at  -0.359199  0.516270 -2.404602
      ESP Fit Center   73 is at   0.359043 -0.727762 -2.404602
      ESP Fit Center   74 is at  -0.000078 -0.105746 -2.531248
      ESP Fit Center   75 is at  -2.781482  2.177912  2.169930
      ESP Fit Center   76 is at  -2.031422  2.177912  2.020734
      ESP Fit Center   77 is at  -2.406452  2.827483  2.020734
      ESP Fit Center   78 is at  -3.156511  2.827483  2.020734
      ESP Fit Center   79 is at  -3.981732  2.870877  1.595859
      ESP Fit Center   80 is at  -4.552715  2.554400  0.959990
      ESP Fit Center   81 is at  -4.708109  2.538061  0.209930
      ESP Fit Center   82 is at  -4.552715  2.554400 -0.540130
      ESP Fit Center   83 is at  -3.981732  2.870877 -1.175999
      ESP Fit Center   84 is at  -3.156511  2.827483 -1.600874
      ESP Fit Center   85 is at  -2.886660 -1.009305  3.877757
      ESP Fit Center   86 is at  -2.149218 -1.009305  3.805125
      ESP Fit Center   87 is at  -2.517939 -0.370662  3.805125
      ESP Fit Center   88 is at  -3.255381 -0.370662  3.805125
      ESP Fit Center   89 is at  -3.624101 -1.009305  3.805125
      ESP Fit Center   90 is at  -3.255381 -1.647948  3.805125
      ESP Fit Center   91 is at  -2.517939 -1.647948  3.805125
      ESP Fit Center   92 is at  -1.440117 -1.009305  3.590022
      ESP Fit Center   93 is at  -1.633917 -0.286033  3.590022
      ESP Fit Center   94 is at  -2.163388  0.243439  3.590022
      ESP Fit Center   95 is at  -2.886660  0.437239  3.590022
      ESP Fit Center   96 is at  -3.609932  0.243439  3.590022
      ESP Fit Center   97 is at  -4.139403 -0.286033  3.590022
      ESP Fit Center   98 is at  -4.333203 -1.009305  3.590022
      ESP Fit Center   99 is at  -4.139403 -1.732576  3.590022
      ESP Fit Center  100 is at  -3.609932 -2.262048  3.590022
      ESP Fit Center  101 is at  -2.886660 -2.455848  3.590022
      ESP Fit Center  102 is at  -2.163388 -2.262048  3.590022
      ESP Fit Center  103 is at  -1.633917 -1.732576  3.590022
      ESP Fit Center  104 is at  -0.786604 -1.009305  3.240712
      ESP Fit Center  105 is at  -0.913253 -0.291043  3.240712
      ESP Fit Center  106 is at  -1.277924  0.340585  3.240712
      ESP Fit Center  107 is at  -1.836632  0.809397  3.240712
      ESP Fit Center  108 is at  -2.521989  1.058846  3.240712
      ESP Fit Center  109 is at  -3.251331  1.058846  3.240712
      ESP Fit Center  110 is at  -3.936688  0.809397  3.240712
      ESP Fit Center  111 is at  -4.495396  0.340585  3.240712
      ESP Fit Center  112 is at  -4.860067 -0.291043  3.240712
      ESP Fit Center  113 is at  -4.986715 -1.009305  3.240712
      ESP Fit Center  114 is at  -4.860067 -1.727566  3.240712
      ESP Fit Center  115 is at  -4.495396 -2.359194  3.240712
      ESP Fit Center  116 is at  -3.936688 -2.828006  3.240712
      ESP Fit Center  117 is at  -3.251331 -3.077456  3.240712
      ESP Fit Center  118 is at  -2.521989 -3.077456  3.240712
      ESP Fit Center  119 is at  -1.836632 -2.828006  3.240712
      ESP Fit Center  120 is at  -1.277924 -2.359194  3.240712
      ESP Fit Center  121 is at  -0.913253 -1.727566  3.240712
      ESP Fit Center  122 is at  -0.213796 -1.009305  2.770621
      ESP Fit Center  123 is at  -0.312913 -0.288175  2.770621
      ESP Fit Center  124 is at  -0.602913  0.379472  2.770621
      ESP Fit Center  125 is at  -1.062288  0.944120  2.770621
      ESP Fit Center  126 is at  -1.656969  1.363891  2.770621
      ESP Fit Center  127 is at  -2.342850  1.607654  2.770621
      ESP Fit Center  128 is at  -3.069063  1.657328  2.770621
      ESP Fit Center  129 is at  -3.781747  1.509230  2.770621
      ESP Fit Center  130 is at  -4.428048  1.174344  2.770621
      ESP Fit Center  131 is at  -4.960030  0.677507  2.770621
      ESP Fit Center  132 is at  -5.338241  0.055567  2.770621
      ESP Fit Center  133 is at  -5.534628 -0.645350  2.770621
      ESP Fit Center  134 is at  -5.534628 -1.373260  2.770621
      ESP Fit Center  135 is at  -5.338241 -2.074176  2.770621
      ESP Fit Center  136 is at  -4.960030 -2.696117  2.770621
      ESP Fit Center  137 is at  -4.428048 -3.192954  2.770621
      ESP Fit Center  138 is at  -3.781747 -3.527840  2.770621
      ESP Fit Center  139 is at  -3.069063 -3.675937  2.770621
      ESP Fit Center  140 is at  -2.342850 -3.626263  2.770621
      ESP Fit Center  141 is at  -1.656969 -3.382501  2.770621
      ESP Fit Center  142 is at  -1.062288 -2.962730  2.770621
      ESP Fit Center  143 is at  -0.602913 -2.398082  2.770621
      ESP Fit Center  144 is at  -0.312913 -1.730435  2.770621
      ESP Fit Center  145 is at   0.256295 -1.009305  2.197813
      ESP Fit Center  146 is at   0.171576 -0.284489  2.197813
      ESP Fit Center  147 is at  -0.078013  0.401251  2.197813
      ESP Fit Center  148 is at  -0.479017  1.010948  2.197813
      ESP Fit Center  149 is at  -1.009817  1.511733  2.197813
      ESP Fit Center  150 is at  -1.641799  1.876607  2.197813
      ESP Fit Center  151 is at  -2.340891  2.085902  2.197813
      ESP Fit Center  152 is at  -3.069406  2.128333  2.197813
      ESP Fit Center  153 is at  -3.788070  2.001613  2.197813
      ESP Fit Center  154 is at  -4.458137  1.712574  2.197813
      ESP Fit Center  155 is at  -5.043487  1.276798  2.197813
      ESP Fit Center  156 is at  -5.512561  0.717777  2.197813
      ESP Fit Center  157 is at  -5.840072  0.065649  2.197813
      ESP Fit Center  158 is at  -6.008363 -0.644430  2.197813
      ESP Fit Center  159 is at  -6.008363 -1.374179  2.197813
      ESP Fit Center  160 is at  -5.840072 -2.084259  2.197813
      ESP Fit Center  161 is at  -5.512561 -2.736387  2.197813
      ESP Fit Center  162 is at  -5.043487 -3.295407  2.197813
      ESP Fit Center  163 is at  -4.458137 -3.731184  2.197813
      ESP Fit Center  164 is at  -3.788070 -4.020223  2.197813
      ESP Fit Center  165 is at  -3.069406 -4.146942  2.197813
      ESP Fit Center  166 is at  -2.340891 -4.104511  2.197813
      ESP Fit Center  167 is at  -1.641799 -3.895217  2.197813
      ESP Fit Center  168 is at  -1.009817 -3.530342  2.197813
      ESP Fit Center  169 is at  -0.479017 -3.029557  2.197813
      ESP Fit Center  170 is at  -0.078013 -2.419860  2.197813
      ESP Fit Center  171 is at   0.171576 -1.734120  2.197813
      ESP Fit Center  172 is at   0.605605 -1.009305  1.544300
      ESP Fit Center  173 is at  -0.061358  1.043397  1.544300
      ESP Fit Center  174 is at  -4.632792  2.015085  1.544300
      ESP Fit Center  175 is at  -5.223441  1.585954  1.544300
      ESP Fit Center  176 is at  -5.711961  1.043397  1.544300
      ESP Fit Center  177 is at  -6.077002  0.411127  1.544300
      ESP Fit Center  178 is at  -6.302610 -0.283222  1.544300
      ESP Fit Center  179 is at  -6.378925 -1.009305  1.544300
      ESP Fit Center  180 is at  -6.302610 -1.735387  1.544300
      ESP Fit Center  181 is at  -6.077002 -2.429737  1.544300
      ESP Fit Center  182 is at  -5.711961 -3.062006  1.544300
      ESP Fit Center  183 is at  -5.223441 -3.604563  1.544300
      ESP Fit Center  184 is at  -4.632792 -4.033695  1.544300
      ESP Fit Center  185 is at  -3.965829 -4.330646  1.544300
      ESP Fit Center  186 is at  -3.251701 -4.482438  1.544300
      ESP Fit Center  187 is at  -2.521619 -4.482438  1.544300
      ESP Fit Center  188 is at  -1.807491 -4.330646  1.544300
      ESP Fit Center  189 is at  -1.140528 -4.033695  1.544300
      ESP Fit Center  190 is at  -0.549879 -3.604563  1.544300
      ESP Fit Center  191 is at  -0.061358 -3.062006  1.544300
      ESP Fit Center  192 is at   0.303683 -2.429737  1.544300
      ESP Fit Center  193 is at   0.529290 -1.735387  1.544300
      ESP Fit Center  194 is at  -4.946363  2.073259  0.835198
      ESP Fit Center  195 is at  -5.508165  1.612201  0.835198
      ESP Fit Center  196 is at  -5.969224  1.050399  0.835198
      ESP Fit Center  197 is at  -6.311822  0.409444  0.835198
      ESP Fit Center  198 is at  -6.522792 -0.286033  0.835198
      ESP Fit Center  199 is at  -6.594028 -1.009305  0.835198
      ESP Fit Center  200 is at  -6.522792 -1.732576  0.835198
      ESP Fit Center  201 is at  -6.311822 -2.428053  0.835198
      ESP Fit Center  202 is at  -5.969224 -3.069008  0.835198
      ESP Fit Center  203 is at  -5.508165 -3.630810  0.835198
      ESP Fit Center  204 is at  -4.946363 -4.091869  0.835198
      ESP Fit Center  205 is at  -4.305408 -4.434466  0.835198
      ESP Fit Center  206 is at  -3.609932 -4.645437  0.835198
      ESP Fit Center  207 is at  -2.886660 -4.716673  0.835198
      ESP Fit Center  208 is at  -2.163388 -4.645437  0.835198
      ESP Fit Center  209 is at  -1.467911 -4.434466  0.835198
      ESP Fit Center  210 is at  -0.826956 -4.091869  0.835198
      ESP Fit Center  211 is at  -0.265155 -3.630810  0.835198
      ESP Fit Center  212 is at   0.195904 -3.069008  0.835198
      ESP Fit Center  213 is at   0.538502 -2.428053  0.835198
      ESP Fit Center  214 is at  -4.776660  2.264271  0.097757
      ESP Fit Center  215 is at  -5.362033  1.847429  0.097757
      ESP Fit Center  216 is at  -5.857941  1.327336  0.097757
      ESP Fit Center  217 is at  -6.246458  0.722792  0.097757
      ESP Fit Center  218 is at  -6.513543  0.055644  0.097757
      ESP Fit Center  219 is at  -6.649544 -0.649993  0.097757
      ESP Fit Center  220 is at  -6.649544 -1.368616  0.097757
      ESP Fit Center  221 is at  -6.513543 -2.074254  0.097757
      ESP Fit Center  222 is at  -6.246458 -2.741401  0.097757
      ESP Fit Center  223 is at  -5.857941 -3.345946  0.097757
      ESP Fit Center  224 is at  -5.362033 -3.866038  0.097757
      ESP Fit Center  225 is at  -4.776660 -4.282881  0.097757
      ESP Fit Center  226 is at  -4.122977 -4.581408  0.097757
      ESP Fit Center  227 is at  -3.424610 -4.750830  0.097757
      ESP Fit Center  228 is at  -2.706800 -4.785023  0.097757
      ESP Fit Center  229 is at  -1.995491 -4.682752  0.097757
      ESP Fit Center  230 is at  -1.316391 -4.447714  0.097757
      ESP Fit Center  231 is at  -0.694045 -4.088402  0.097757
      ESP Fit Center  232 is at  -0.150945 -3.617803  0.097757
      ESP Fit Center  233 is at   0.293278 -3.052927  0.097757
      ESP Fit Center  234 is at  -4.946363  2.073259 -0.639684
      ESP Fit Center  235 is at  -5.508165  1.612201 -0.639684
      ESP Fit Center  236 is at  -5.969224  1.050399 -0.639684
      ESP Fit Center  237 is at  -6.311822  0.409444 -0.639684
      ESP Fit Center  238 is at  -6.522792 -0.286033 -0.639684
      ESP Fit Center  239 is at  -6.594028 -1.009305 -0.639684
      ESP Fit Center  240 is at  -6.522792 -1.732576 -0.639684
      ESP Fit Center  241 is at  -6.311822 -2.428053 -0.639684
      ESP Fit Center  242 is at  -5.969224 -3.069008 -0.639684
      ESP Fit Center  243 is at  -5.508165 -3.630810 -0.639684
      ESP Fit Center  244 is at  -4.946363 -4.091869 -0.639684
      ESP Fit Center  245 is at  -4.305408 -4.434466 -0.639684
      ESP Fit Center  246 is at  -3.609932 -4.645437 -0.639684
      ESP Fit Center  247 is at  -2.886660 -4.716673 -0.639684
      ESP Fit Center  248 is at  -2.163388 -4.645437 -0.639684
      ESP Fit Center  249 is at  -1.467911 -4.434466 -0.639684
      ESP Fit Center  250 is at  -0.826956 -4.091869 -0.639684
      ESP Fit Center  251 is at  -0.265155 -3.630810 -0.639684
      ESP Fit Center  252 is at   0.195904 -3.069008 -0.639684
      ESP Fit Center  253 is at  -3.965829  2.312036 -1.348786
      ESP Fit Center  254 is at  -4.632792  2.015085 -1.348786
      ESP Fit Center  255 is at  -5.223441  1.585954 -1.348786
      ESP Fit Center  256 is at  -5.711961  1.043397 -1.348786
      ESP Fit Center  257 is at  -6.077002  0.411127 -1.348786
      ESP Fit Center  258 is at  -6.302610 -0.283222 -1.348786
      ESP Fit Center  259 is at  -6.378925 -1.009305 -1.348786
      ESP Fit Center  260 is at  -6.302610 -1.735387 -1.348786
      ESP Fit Center  261 is at  -6.077002 -2.429737 -1.348786
      ESP Fit Center  262 is at  -5.711961 -3.062006 -1.348786
      ESP Fit Center  263 is at  -5.223441 -3.604563 -1.348786
      ESP Fit Center  264 is at  -4.632792 -4.033695 -1.348786
      ESP Fit Center  265 is at  -3.965829 -4.330646 -1.348786
      ESP Fit Center  266 is at  -3.251701 -4.482438 -1.348786
      ESP Fit Center  267 is at  -2.521619 -4.482438 -1.348786
      ESP Fit Center  268 is at  -1.807491 -4.330646 -1.348786
      ESP Fit Center  269 is at  -1.140528 -4.033695 -1.348786
      ESP Fit Center  270 is at  -0.549879 -3.604563 -1.348786
      ESP Fit Center  271 is at  -0.061358 -3.062006 -1.348786
      ESP Fit Center  272 is at  -2.340891  2.085902 -2.002298
      ESP Fit Center  273 is at  -3.069406  2.128333 -2.002298
      ESP Fit Center  274 is at  -3.788070  2.001613 -2.002298
      ESP Fit Center  275 is at  -4.458137  1.712574 -2.002298
      ESP Fit Center  276 is at  -5.043487  1.276798 -2.002298
      ESP Fit Center  277 is at  -5.512561  0.717777 -2.002298
      ESP Fit Center  278 is at  -5.840072  0.065649 -2.002298
      ESP Fit Center  279 is at  -6.008363 -0.644430 -2.002298
      ESP Fit Center  280 is at  -6.008363 -1.374179 -2.002298
      ESP Fit Center  281 is at  -5.840072 -2.084259 -2.002298
      ESP Fit Center  282 is at  -5.512561 -2.736387 -2.002298
      ESP Fit Center  283 is at  -5.043487 -3.295407 -2.002298
      ESP Fit Center  284 is at  -4.458137 -3.731184 -2.002298
      ESP Fit Center  285 is at  -3.788070 -4.020223 -2.002298
      ESP Fit Center  286 is at  -3.069406 -4.146942 -2.002298
      ESP Fit Center  287 is at  -2.340891 -4.104511 -2.002298
      ESP Fit Center  288 is at  -1.641799 -3.895217 -2.002298
      ESP Fit Center  289 is at  -1.009817 -3.530342 -2.002298
      ESP Fit Center  290 is at  -0.479017 -3.029557 -2.002298
      ESP Fit Center  291 is at  -0.078013 -2.419860 -2.002298
      ESP Fit Center  292 is at  -0.213796 -1.009305 -2.575107
      ESP Fit Center  293 is at  -0.312913 -0.288175 -2.575107
      ESP Fit Center  294 is at  -0.602913  0.379472 -2.575107
      ESP Fit Center  295 is at  -1.062288  0.944120 -2.575107
      ESP Fit Center  296 is at  -1.656969  1.363891 -2.575107
      ESP Fit Center  297 is at  -2.342850  1.607654 -2.575107
      ESP Fit Center  298 is at  -3.069063  1.657328 -2.575107
      ESP Fit Center  299 is at  -3.781747  1.509230 -2.575107
      ESP Fit Center  300 is at  -4.428048  1.174344 -2.575107
      ESP Fit Center  301 is at  -4.960030  0.677507 -2.575107
      ESP Fit Center  302 is at  -5.338241  0.055567 -2.575107
      ESP Fit Center  303 is at  -5.534628 -0.645350 -2.575107
      ESP Fit Center  304 is at  -5.534628 -1.373260 -2.575107
      ESP Fit Center  305 is at  -5.338241 -2.074176 -2.575107
      ESP Fit Center  306 is at  -4.960030 -2.696117 -2.575107
      ESP Fit Center  307 is at  -4.428048 -3.192954 -2.575107
      ESP Fit Center  308 is at  -3.781747 -3.527840 -2.575107
      ESP Fit Center  309 is at  -3.069063 -3.675937 -2.575107
      ESP Fit Center  310 is at  -2.342850 -3.626263 -2.575107
      ESP Fit Center  311 is at  -1.656969 -3.382501 -2.575107
      ESP Fit Center  312 is at  -1.062288 -2.962730 -2.575107
      ESP Fit Center  313 is at  -0.602913 -2.398082 -2.575107
      ESP Fit Center  314 is at  -0.312913 -1.730435 -2.575107
      ESP Fit Center  315 is at  -0.786604 -1.009305 -3.045198
      ESP Fit Center  316 is at  -0.913253 -0.291043 -3.045198
      ESP Fit Center  317 is at  -1.277924  0.340585 -3.045198
      ESP Fit Center  318 is at  -1.836632  0.809397 -3.045198
      ESP Fit Center  319 is at  -2.521989  1.058846 -3.045198
      ESP Fit Center  320 is at  -3.251331  1.058846 -3.045198
      ESP Fit Center  321 is at  -3.936688  0.809397 -3.045198
      ESP Fit Center  322 is at  -4.495396  0.340585 -3.045198
      ESP Fit Center  323 is at  -4.860067 -0.291043 -3.045198
      ESP Fit Center  324 is at  -4.986715 -1.009305 -3.045198
      ESP Fit Center  325 is at  -4.860067 -1.727566 -3.045198
      ESP Fit Center  326 is at  -4.495396 -2.359194 -3.045198
      ESP Fit Center  327 is at  -3.936688 -2.828006 -3.045198
      ESP Fit Center  328 is at  -3.251331 -3.077456 -3.045198
      ESP Fit Center  329 is at  -2.521989 -3.077456 -3.045198
      ESP Fit Center  330 is at  -1.836632 -2.828006 -3.045198
      ESP Fit Center  331 is at  -1.277924 -2.359194 -3.045198
      ESP Fit Center  332 is at  -0.913253 -1.727566 -3.045198
      ESP Fit Center  333 is at  -1.440117 -1.009305 -3.394508
      ESP Fit Center  334 is at  -1.633917 -0.286033 -3.394508
      ESP Fit Center  335 is at  -2.163388  0.243439 -3.394508
      ESP Fit Center  336 is at  -2.886660  0.437239 -3.394508
      ESP Fit Center  337 is at  -3.609932  0.243439 -3.394508
      ESP Fit Center  338 is at  -4.139403 -0.286033 -3.394508
      ESP Fit Center  339 is at  -4.333203 -1.009305 -3.394508
      ESP Fit Center  340 is at  -4.139403 -1.732576 -3.394508
      ESP Fit Center  341 is at  -3.609932 -2.262048 -3.394508
      ESP Fit Center  342 is at  -2.886660 -2.455848 -3.394508
      ESP Fit Center  343 is at  -2.163388 -2.262048 -3.394508
      ESP Fit Center  344 is at  -1.633917 -1.732576 -3.394508
      ESP Fit Center  345 is at  -2.149218 -1.009305 -3.609611
      ESP Fit Center  346 is at  -2.517939 -0.370662 -3.609611
      ESP Fit Center  347 is at  -3.255381 -0.370662 -3.609611
      ESP Fit Center  348 is at  -3.624101 -1.009305 -3.609611
      ESP Fit Center  349 is at  -3.255381 -1.647948 -3.609611
      ESP Fit Center  350 is at  -2.517939 -1.647948 -3.609611
      ESP Fit Center  351 is at  -2.886660 -1.009305 -3.682243
      ESP Fit Center  352 is at   2.112073  0.858362 -2.848039
      ESP Fit Center  353 is at   3.706639 -1.599369  1.988535
      ESP Fit Center  354 is at   4.487862  1.383695  3.023912
      ESP Fit Center  355 is at   3.913042  1.881779  3.023912
      ESP Fit Center  356 is at   3.160188  1.990023  3.023912
      ESP Fit Center  357 is at   5.013715  1.393622  2.465219
      ESP Fit Center  358 is at   4.569209  2.005432  2.465219
      ESP Fit Center  359 is at   3.914287  2.383551  2.465219
      ESP Fit Center  360 is at   1.573381  0.275790  2.465219
      ESP Fit Center  361 is at   5.013715 -0.085804  2.465219
      ESP Fit Center  362 is at   4.880634  2.047176  1.779880
      ESP Fit Center  363 is at   4.274122  2.505193  1.779880
      ESP Fit Center  364 is at   3.543112  2.713183  1.779880
      ESP Fit Center  365 is at   1.319409  0.273897  1.779880
      ESP Fit Center  366 is at   4.274122  2.505193  1.050558
      ESP Fit Center  367 is at   3.543112  2.713183  1.050558
      ESP Fit Center  368 is at   3.914287  2.383551  0.365219
      ESP Fit Center  369 is at   4.153578 -1.571243  1.930542
      ESP Fit Center  370 is at   4.871820 -1.571243  1.930542
      ESP Fit Center  371 is at   4.320595 -2.285342  1.565880
      ESP Fit Center  372 is at   5.073449 -2.177098  1.565880
      ESP Fit Center  373 is at   3.603372 -2.524227  1.007187
      ESP Fit Center  374 is at   5.729616 -2.300750  1.007187
      ESP Fit Center  375 is at   5.648269 -0.219441 -1.651506
      ESP Fit Center  376 is at   5.073449  0.278643 -1.651506
      ESP Fit Center  377 is at   4.871820 -0.327211 -2.016167
      ESP Fit Center  378 is at   4.153578 -0.327211 -2.016167
      ESP Fit Center  379 is at   3.418976 -2.656764  0.694922
      ESP Fit Center  380 is at   3.926261 -3.164049  0.694922
      ESP Fit Center  381 is at   4.619226 -3.349728  0.694922
      ESP Fit Center  382 is at   5.312191 -3.164049  0.694922
      ESP Fit Center  383 is at   5.819476 -2.656764  0.694922
      ESP Fit Center  384 is at   6.430030 -1.963799  0.059053
      ESP Fit Center  385 is at   3.154255 -3.028163  0.059053
      ESP Fit Center  386 is at   3.713824 -3.532001  0.059053
      ESP Fit Center  387 is at   4.429945 -3.764683  0.059053
      ESP Fit Center  388 is at   5.178795 -3.685976  0.059053
      ESP Fit Center  389 is at   5.830890 -3.309489  0.059053
      ESP Fit Center  390 is at   6.273478 -2.700319  0.059053
      ESP Fit Center  391 is at   6.579226 -1.963799 -0.691007
      ESP Fit Center  392 is at   2.692599 -2.323948 -0.691007
      ESP Fit Center  393 is at   2.952800 -2.995606 -0.691007
      ESP Fit Center  394 is at   3.438062 -3.527913 -0.691007
      ESP Fit Center  395 is at   4.082847 -3.848977 -0.691007
      ESP Fit Center  396 is at   4.800072 -3.915438 -0.691007
      ESP Fit Center  397 is at   5.492873 -3.718319 -0.691007
      ESP Fit Center  398 is at   6.067684 -3.284243 -0.691007
      ESP Fit Center  399 is at   6.446872 -2.671833 -0.691007
      ESP Fit Center  400 is at   6.430030 -1.963799 -1.441067
      ESP Fit Center  401 is at   6.273478 -1.227279 -1.441067
      ESP Fit Center  402 is at   2.847993 -2.340286 -1.441067
      ESP Fit Center  403 is at   3.154255 -3.028163 -1.441067
      ESP Fit Center  404 is at   3.713824 -3.532001 -1.441067
      ESP Fit Center  405 is at   4.429945 -3.764683 -1.441067
      ESP Fit Center  406 is at   5.178795 -3.685976 -1.441067
      ESP Fit Center  407 is at   5.830890 -3.309489 -1.441067
      ESP Fit Center  408 is at   6.273478 -2.700319 -1.441067
      ESP Fit Center  409 is at   6.005155 -1.963799 -2.076936
      ESP Fit Center  410 is at   5.819476 -1.270835 -2.076936
      ESP Fit Center  411 is at   5.312191 -0.763549 -2.076936
      ESP Fit Center  412 is at   3.418976 -2.656764 -2.076936
      ESP Fit Center  413 is at   3.926261 -3.164049 -2.076936
      ESP Fit Center  414 is at   4.619226 -3.349728 -2.076936
      ESP Fit Center  415 is at   5.312191 -3.164049 -2.076936
      ESP Fit Center  416 is at   5.819476 -2.656764 -2.076936
      ESP Fit Center  417 is at   5.369286 -1.963799 -2.501811
      ESP Fit Center  418 is at   4.994256 -1.314229 -2.501811
      ESP Fit Center  419 is at   4.244196 -1.314229 -2.501811
      ESP Fit Center  420 is at   3.869167 -1.963799 -2.501811
      ESP Fit Center  421 is at   4.244196 -2.613370 -2.501811
      ESP Fit Center  422 is at   4.994256 -2.613370 -2.501811
      ESP Fit Center  423 is at   4.619226 -1.963799 -2.651007
      ESP Fit Center  424 is at   6.306708 -0.196041  2.147361
      ESP Fit Center  425 is at   5.181618 -0.845612  2.147361
      ESP Fit Center  426 is at   5.931678 -0.845612  2.147361
      ESP Fit Center  427 is at   6.942577 -0.196041  1.722486
      ESP Fit Center  428 is at   6.756898  0.496923  1.722486
      ESP Fit Center  429 is at   5.556648 -1.581971  1.722486
      ESP Fit Center  430 is at   6.249613 -1.396291  1.722486
      ESP Fit Center  431 is at   6.756898 -0.889006  1.722486
      ESP Fit Center  432 is at   7.367452 -0.196041  1.086617
      ESP Fit Center  433 is at   7.210900  0.540479  1.086617
      ESP Fit Center  434 is at   6.768312  1.149648  1.086617
      ESP Fit Center  435 is at   6.116217 -1.918218  1.086617
      ESP Fit Center  436 is at   6.768312 -1.541731  1.086617
      ESP Fit Center  437 is at   7.210900 -0.932562  1.086617
      ESP Fit Center  438 is at   7.516648 -0.196041  0.336557
      ESP Fit Center  439 is at   7.384294  0.511992  0.336557
      ESP Fit Center  440 is at   7.005106  1.124402  0.336557
      ESP Fit Center  441 is at   6.430295  1.558479  0.336557
      ESP Fit Center  442 is at   6.430295 -1.950561  0.336557
      ESP Fit Center  443 is at   7.005106 -1.516485  0.336557
      ESP Fit Center  444 is at   7.384294 -0.904075  0.336557
      ESP Fit Center  445 is at   7.367452 -0.196041 -0.413503
      ESP Fit Center  446 is at   7.210900  0.540479 -0.413503
      ESP Fit Center  447 is at   6.768312  1.149648 -0.413503
      ESP Fit Center  448 is at   6.116217  1.526136 -0.413503
      ESP Fit Center  449 is at   6.768312 -1.541731 -0.413503
      ESP Fit Center  450 is at   7.210900 -0.932562 -0.413503
      ESP Fit Center  451 is at   6.942577 -0.196041 -1.049372
      ESP Fit Center  452 is at   6.756898  0.496923 -1.049372
      ESP Fit Center  453 is at   6.249613  1.004209 -1.049372
      ESP Fit Center  454 is at   5.556648  1.189888 -1.049372
      ESP Fit Center  455 is at   4.863684  1.004209 -1.049372
      ESP Fit Center  456 is at   6.756898 -0.889006 -1.049372
      ESP Fit Center  457 is at   6.306708 -0.196041 -1.474247
      ESP Fit Center  458 is at   5.931678  0.453529 -1.474247
      ESP Fit Center  459 is at   5.181618  0.453529 -1.474247
      ESP Fit Center  460 is at   1.806512 -1.216017  2.238681
      ESP Fit Center  461 is at   2.170975 -1.847284  2.238681
      ESP Fit Center  462 is at   2.899899 -1.847284  2.238681
      ESP Fit Center  463 is at   1.472812 -0.443975  1.772516
      ESP Fit Center  464 is at   1.221960 -1.216017  1.772516
      ESP Fit Center  465 is at   1.472812 -1.988059  1.772516
      ESP Fit Center  466 is at   2.129550 -2.465208  1.772516
      ESP Fit Center  467 is at   2.941324 -2.465208  1.772516
      ESP Fit Center  468 is at   3.598062 -1.988059  1.772516
      ESP Fit Center  469 is at   0.945152 -1.607987  1.098888
      ESP Fit Center  470 is at   1.309467 -2.302132  1.098888
      ESP Fit Center  471 is at   1.954637 -2.747460  1.098888
      ESP Fit Center  472 is at   2.732862 -2.841954  1.098888
      ESP Fit Center  473 is at   3.465858 -2.563965  1.098888
      ESP Fit Center  474 is at   1.309467 -2.302132  0.351218
      ESP Fit Center  475 is at   1.954637 -2.747460  0.351218
      ESP Fit Center  476 is at   2.732862 -2.841954  0.351218
      ESP Fit Center  477 is at   2.129550 -2.465208 -0.322410
      ESP Fit Center  478 is at   2.007965  3.485166  0.851029
      ESP Fit Center  479 is at   2.956979  2.853899  0.384864
      ESP Fit Center  480 is at   2.706128  3.625941  0.384864
      ESP Fit Center  481 is at   2.049389  4.103090  0.384864
      ESP Fit Center  482 is at   1.237616  4.103090  0.384864
      ESP Fit Center  483 is at   3.281381  2.853899 -0.288764
      ESP Fit Center  484 is at   3.093772  3.615059 -0.288764
      ESP Fit Center  485 is at   2.573924  4.201847 -0.288764
      ESP Fit Center  486 is at   1.840927  4.479836 -0.288764
      ESP Fit Center  487 is at   1.062703  4.385342 -0.288764
      ESP Fit Center  488 is at   3.281381  2.853899 -1.036434
      ESP Fit Center  489 is at   3.093772  3.615059 -1.036434
      ESP Fit Center  490 is at   2.573924  4.201847 -1.036434
      ESP Fit Center  491 is at   1.840927  4.479836 -1.036434
      ESP Fit Center  492 is at   1.062703  4.385342 -1.036434
      ESP Fit Center  493 is at   2.956979  2.853899 -1.710062
      ESP Fit Center  494 is at   2.706128  3.625941 -1.710062
      ESP Fit Center  495 is at   2.049389  4.103090 -1.710062
      ESP Fit Center  496 is at   1.237616  4.103090 -1.710062
      ESP Fit Center  497 is at   2.372427  2.853899 -2.176227
      ESP Fit Center  498 is at   2.007965  3.485166 -2.176227
      ESP Fit Center  499 is at   1.279040  3.485166 -2.176227
      ESP Fit Center  500 is at   1.643502  2.853899 -2.342599
      ESP Fit Center  501 is at  -0.257064  4.332415  1.343039
      ESP Fit Center  502 is at  -0.985989  4.332415  1.343039
      ESP Fit Center  503 is at  -1.350451  3.701148  1.343039
      ESP Fit Center  504 is at   0.441099  4.473191  0.876874
      ESP Fit Center  505 is at  -0.215640  4.950339  0.876874
      ESP Fit Center  506 is at  -1.027413  4.950339  0.876874
      ESP Fit Center  507 is at  -1.684152  4.473191  0.876874
      ESP Fit Center  508 is at   0.828743  4.462308  0.203246
      ESP Fit Center  509 is at   0.308895  5.049096  0.203246
      ESP Fit Center  510 is at  -0.424102  5.327085  0.203246
      ESP Fit Center  511 is at  -1.202326  5.232592  0.203246
      ESP Fit Center  512 is at  -1.847497  4.787263  0.203246
      ESP Fit Center  513 is at   0.828743  4.462308 -0.544424
      ESP Fit Center  514 is at   0.308895  5.049096 -0.544424
      ESP Fit Center  515 is at  -0.424102  5.327085 -0.544424
      ESP Fit Center  516 is at  -1.202326  5.232592 -0.544424
      ESP Fit Center  517 is at  -1.847497  4.787263 -0.544424
      ESP Fit Center  518 is at   0.441099  4.473191 -1.218052
      ESP Fit Center  519 is at  -0.215640  4.950339 -1.218052
      ESP Fit Center  520 is at  -1.027413  4.950339 -1.218052
      ESP Fit Center  521 is at  -1.684152  4.473191 -1.218052
      ESP Fit Center  522 is at  -0.257064  4.332415 -1.684217
      ESP Fit Center  523 is at  -0.985989  4.332415 -1.684217
      ESP Fit Center  524 is at   1.092116 -2.524038 -0.141106
      ESP Fit Center  525 is at   0.359120 -2.802027 -0.888776
      ESP Fit Center  526 is at   1.092116 -2.524038 -0.888776
      ESP Fit Center  527 is at   1.611965 -1.937250 -0.888776
      ESP Fit Center  528 is at   0.567582 -2.425281 -1.562404
      ESP Fit Center  529 is at   1.224320 -1.948132 -1.562404
      ESP Fit Center  530 is at   0.890620 -1.176090 -2.028569
      ESP Fit Center  531 is at   0.526157 -1.807357 -2.028569
      ESP Fit Center  532 is at   1.869075 -2.080438 -1.263420
      ESP Fit Center  533 is at   2.647300 -2.174932 -1.263420
      ESP Fit Center  534 is at   1.223905 -1.635110 -2.011090
      ESP Fit Center  535 is at   1.869075 -2.080438 -2.011090
      ESP Fit Center  536 is at   2.647300 -2.174932 -2.011090
      ESP Fit Center  537 is at   3.763352 -0.548995 -2.684718
      ESP Fit Center  538 is at   1.387250  0.223047 -2.684718
      ESP Fit Center  539 is at   1.136398 -0.548995 -2.684718
      ESP Fit Center  540 is at   1.387250 -1.321037 -2.684718
      ESP Fit Center  541 is at   2.043988 -1.798186 -2.684718
      ESP Fit Center  542 is at   2.855762 -1.798186 -2.684718
[...]
 3507 Fit      -0.002797
 3508 Fit      -0.002841
 3509 Fit      -0.002852
 3510 Fit      -0.002420
 3511 Fit       0.009964
 3512 Fit       0.004266
 3513 Fit       0.000956
 3514 Fit      -0.000936
 3515 Fit      -0.001978
 3516 Fit      -0.002494
 3517 Fit      -0.002673
 3518 Fit      -0.002633
 3519 Fit      -0.002455
 3520 Fit      -0.002198
 3521 Fit      -0.001910
 3522 Fit      -0.001631
 3523 Fit      -0.001392
 3524 Fit      -0.001217
 3525 Fit      -0.001122
 3526 Fit      -0.001115
 3527 Fit      -0.001196
 3528 Fit      -0.001355
 3529 Fit      -0.001577
 3530 Fit      -0.001843
 3531 Fit      -0.002129
 3532 Fit      -0.002413
 3533 Fit      -0.002676
 3534 Fit      -0.002909
 3535 Fit      -0.003120
 3536 Fit      -0.003341
 3537 Fit      -0.003651
 3538 Fit      -0.004196
 3539 Fit      -0.005214
 3540 Fit      -0.006960
 3541 Fit       0.015732
 3542 Fit       0.008233
 3543 Fit       0.003476
 3544 Fit       0.000581
 3545 Fit      -0.001134
 3546 Fit      -0.002106
 3547 Fit      -0.002603
 3548 Fit      -0.002786
 3549 Fit      -0.002763
 3550 Fit      -0.002606
 3551 Fit      -0.002372
 3552 Fit      -0.002106
 3553 Fit      -0.001848
 3554 Fit      -0.001626
 3555 Fit      -0.001464
 3556 Fit      -0.001378
 3557 Fit      -0.001376
 3558 Fit      -0.001457
 3559 Fit      -0.001614
 3560 Fit      -0.001833
 3561 Fit      -0.002095
 3562 Fit      -0.002380
 3563 Fit      -0.002668
 3564 Fit      -0.002944
 3565 Fit      -0.003205
 3566 Fit      -0.003465
 3567 Fit      -0.003771
 3568 Fit      -0.004221
 3569 Fit      -0.005003
 3570 Fit      -0.006438
 3571 Fit      -0.008972
 3572 Fit       0.013730
 3573 Fit       0.007664
 3574 Fit       0.003395
 3575 Fit       0.000618
 3576 Fit      -0.001105
 3577 Fit      -0.002121
 3578 Fit      -0.002664
 3579 Fit      -0.002890
 3580 Fit      -0.002902
 3581 Fit      -0.002774
 3582 Fit      -0.002566
 3583 Fit      -0.002324
 3584 Fit      -0.002088
 3585 Fit      -0.001889
 3586 Fit      -0.001752
 3587 Fit      -0.001691
 3588 Fit      -0.001713
 3589 Fit      -0.001817
 3590 Fit      -0.001993
 3591 Fit      -0.002225
 3592 Fit      -0.002494
 3593 Fit      -0.002778
 3594 Fit      -0.003061
 3595 Fit      -0.003334
 3596 Fit      -0.003604
 3597 Fit      -0.003903
 3598 Fit      -0.004307
 3599 Fit      -0.004950
 3600 Fit      -0.006032
 3601 Fit      -0.007716
 3602 Fit       0.017722
 3603 Fit       0.014848
 3604 Fit       0.010558
 3605 Fit       0.006317
 3606 Fit       0.002911
 3607 Fit       0.000477
 3608 Fit      -0.001139
 3609 Fit      -0.002146
 3610 Fit      -0.002717
 3611 Fit      -0.002983
 3612 Fit      -0.003036
 3613 Fit      -0.002948
 3614 Fit      -0.002776
 3615 Fit      -0.002569
 3616 Fit      -0.002365
 3617 Fit      -0.002198
 3618 Fit      -0.002089
 3619 Fit      -0.002054
 3620 Fit      -0.002099
 3621 Fit      -0.002219
 3622 Fit      -0.002403
 3623 Fit      -0.002635
 3624 Fit      -0.002893
 3625 Fit      -0.003158
 3626 Fit      -0.003416
 3627 Fit      -0.003664
 3628 Fit      -0.003916
 3629 Fit      -0.004208
 3630 Fit      -0.004603
 3631 Fit      -0.005153
 3632 Fit      -0.005755
 3633 Fit      -0.005633
 3634 Fit       0.009797
 3635 Fit       0.010366
 3636 Fit       0.009053
 3637 Fit       0.006579
 3638 Fit       0.003841
 3639 Fit       0.001448
 3640 Fit      -0.000377
 3641 Fit      -0.001646
 3642 Fit      -0.002457
 3643 Fit      -0.002919
 3644 Fit      -0.003125
 3645 Fit      -0.003150
 3646 Fit      -0.003060
 3647 Fit      -0.002906
 3648 Fit      -0.002734
 3649 Fit      -0.002582
 3650 Fit      -0.002478
 3651 Fit      -0.002440
 3652 Fit      -0.002476
 3653 Fit      -0.002584
 3654 Fit      -0.002752
 3655 Fit      -0.002963
 3656 Fit      -0.003195
 3657 Fit      -0.003429
 3658 Fit      -0.003648
 3659 Fit      -0.003847
 3660 Fit      -0.004032
 3661 Fit      -0.004211
 3662 Fit      -0.004367
 3663 Fit      -0.004341
 3664 Fit      -0.003587
 3665 Fit       0.002461
 3666 Fit       0.003995
 3667 Fit       0.005313
 3668 Fit       0.005648
 3669 Fit       0.004817
 3670 Fit       0.003213
 3671 Fit       0.001395
 3672 Fit      -0.000230
 3673 Fit      -0.001489
 3674 Fit      -0.002363
 3675 Fit      -0.002905
 3676 Fit      -0.003185
 3677 Fit      -0.003274
 3678 Fit      -0.003236
 3679 Fit      -0.003128
 3680 Fit      -0.002999
 3681 Fit      -0.002888
 3682 Fit      -0.002826
 3683 Fit      -0.002829
 3684 Fit      -0.002900
 3685 Fit      -0.003032
 3686 Fit      -0.003208
 3687 Fit      -0.003404
 3688 Fit      -0.003597
 3689 Fit      -0.003765
 3690 Fit      -0.003891
 3691 Fit      -0.003959
 3692 Fit      -0.003934
 3693 Fit      -0.003700
 3694 Fit      -0.002966
 3695 Fit      -0.001226
 3696 Fit       0.001144
 3697 Fit       0.001628
 3698 Fit       0.001263
 3699 Fit       0.000765
 3700 Fit       0.000663
 3701 Fit       0.001085
 3702 Fit       0.001847
 3703 Fit       0.002531
 3704 Fit       0.002669
 3705 Fit       0.002091
 3706 Fit       0.001000
 3707 Fit      -0.000252
 3708 Fit      -0.001384
 3709 Fit      -0.002263
 3710 Fit      -0.002861
 3711 Fit      -0.003210
 3712 Fit      -0.003365
 3713 Fit      -0.003386
 3714 Fit      -0.003329
 3715 Fit      -0.003248
 3716 Fit      -0.003183
 3717 Fit      -0.003163
 3718 Fit      -0.003200
 3719 Fit      -0.003293
 3720 Fit      -0.003427
 3721 Fit      -0.003578
 3722 Fit      -0.003718
 3723 Fit      -0.003817
 3724 Fit      -0.003847
 3725 Fit      -0.003768
 3726 Fit      -0.003507
 3727 Fit      -0.002923
 3728 Fit      -0.001838
 3729 Fit      -0.000278
 3730 Fit      -0.000631
 3731 Fit      -0.000219
 3732 Fit      -0.000192
 3733 Fit      -0.000185
 3734 Fit       0.000039
 3735 Fit       0.000433
 3736 Fit       0.000731
 3737 Fit       0.000642
 3738 Fit       0.000084
 3739 Fit      -0.000775
 3740 Fit      -0.001680
 3741 Fit      -0.002445
 3742 Fit      -0.002991
 3743 Fit      -0.003319
 3744 Fit      -0.003470
 3745 Fit      -0.003503
 3746 Fit      -0.003479
 3747 Fit      -0.003448
 3748 Fit      -0.003446
 3749 Fit      -0.003490
 3750 Fit      -0.003575
 3751 Fit      -0.003679
 3752 Fit      -0.003770
 3753 Fit      -0.003809
 3754 Fit      -0.003755
 3755 Fit      -0.003554
 3756 Fit      -0.003133
 3757 Fit      -0.002425
 3758 Fit      -0.001485
 3759 Fit      -0.001635
 3760 Fit      -0.001256
 3761 Fit      -0.001063
 3762 Fit      -0.000883
 3763 Fit      -0.000673
 3764 Fit      -0.000578
 3765 Fit      -0.000778
 3766 Fit      -0.001294
 3767 Fit      -0.001972
 3768 Fit      -0.002617
 3769 Fit      -0.003108
 3770 Fit      -0.003413
 3771 Fit      -0.003563
 3772 Fit      -0.003614
 3773 Fit      -0.003627
 3774 Fit      -0.003646
 3775 Fit      -0.003690
 3776 Fit      -0.003749
 3777 Fit      -0.003793
 3778 Fit      -0.003776
 3779 Fit      -0.003648
 3780 Fit      -0.003357
 3781 Fit      -0.002870
 3782 Fit      -0.002235
 3783 Fit      -0.002269
 3784 Fit      -0.001908
 3785 Fit      -0.001678
 3786 Fit      -0.001542
 3787 Fit      -0.001589
 3788 Fit      -0.001912
 3789 Fit      -0.002433
 3790 Fit      -0.002961
 3791 Fit      -0.003351
 3792 Fit      -0.003575
 3793 Fit      -0.003678
 3794 Fit      -0.003727
 3795 Fit      -0.003763
 3796 Fit      -0.003782
 3797 Fit      -0.003738
 3798 Fit      -0.003573
 3799 Fit      -0.003240
 3800 Fit      -0.002761
 3801 Fit      -0.002705
 3802 Fit      -0.002383
 3803 Fit      -0.002256
 3804 Fit      -0.002397
 3805 Fit      -0.002791
 3806 Fit      -0.003230
 3807 Fit      -0.003529
 3808 Fit      -0.003674
 3809 Fit      -0.003722
 3810 Fit      -0.003681
 3811 Fit      -0.003495
 3812 Fit      -0.003135
 3813 Fit      -0.003023
 3814 Fit      -0.002825
 3815 Fit      -0.003061
 3816 Fit      -0.003424
 3817 Fit      -0.003555
 3818 Fit      -0.003396
 3819 Fit      -0.003257
 3820 Fit      -0.002989
 3821 Fit      -0.000193
 3822 Fit       0.004026
 3823 Fit       0.007563
 3824 Fit       0.005738
 3825 Fit       0.001990
 3826 Fit       0.004653
 3827 Fit       0.004759
 3828 Fit       0.003752
 3829 Fit       0.018828
 3830 Fit       0.018497
 3831 Fit       0.020575
 3832 Fit       0.022977
 3833 Fit       0.015206
 3834 Fit       0.014207
 3835 Fit       0.014142
 3836 Fit       0.015471
 3837 Fit       0.018116
 3838 Fit       0.021162
 3839 Fit       0.023307
 3840 Fit       0.023846
 3841 Fit       0.023451
 3842 Fit       0.011487
 3843 Fit       0.011529
 3844 Fit       0.011275
 3845 Fit       0.011794
 3846 Fit       0.013816
 3847 Fit       0.017162
 3848 Fit       0.020906
 3849 Fit       0.011484
 3850 Fit       0.010576
 3851 Fit       0.010028
 3852 Fit       0.010778
 3853 Fit       0.013257
 3854 Fit       0.017093
 3855 Fit       0.021373
 3856 Fit       0.009998
 3857 Fit       0.011754
 3858 Fit       0.015436
 3859 Fit       0.020251
 3860 Fit       0.010599
 3861 Fit       0.011842
 3862 Fit       0.015468
 3863 Fit       0.020723
 3864 Fit       0.011836
 3865 Fit       0.013900
 3866 Fit       0.018698
 3867 Fit       0.014059
 3868 Fit       0.018240
 3869 Fit       0.010744
 3870 Fit       0.004712
 3871 Fit       0.007263
 3872 Fit       0.000533
 3873 Fit      -0.004202
 3874 Fit      -0.007794
 3875 Fit      -0.002496
 3876 Fit      -0.008579
 3877 Fit      -0.012615
 3878 Fit      -0.015458
 3879 Fit      -0.025256
 3880 Fit      -0.023820
 3881 Fit      -0.004914
 3882 Fit      -0.018438
 3883 Fit      -0.008672
 3884 Fit      -0.004119
 3885 Fit      -0.011461
 3886 Fit      -0.016137
 3887 Fit      -0.019124
 3888 Fit      -0.021140
 3889 Fit      -0.012747
 3890 Fit      -0.018037
 3891 Fit      -0.021635
 3892 Fit      -0.024186
 3893 Fit      -0.026101
 3894 Fit      -0.027802
 3895 Fit      -0.010726
 3896 Fit      -0.017362
 3897 Fit      -0.021836
 3898 Fit      -0.024990
 3899 Fit      -0.027341
 3900 Fit      -0.029192
 3901 Fit      -0.030746
 3902 Fit      -0.032272
 3903 Fit      -0.034423
 3904 Fit      -0.009427
 3905 Fit      -0.017203
 3906 Fit      -0.022342
 3907 Fit      -0.025875
 3908 Fit      -0.028452
 3909 Fit      -0.030462
 3910 Fit      -0.032113
 3911 Fit      -0.033519
 3912 Fit      -0.034825
 3913 Fit      -0.036420
 3914 Fit      -0.038270
 3915 Fit      -0.012996
 3916 Fit      -0.020006
 3917 Fit      -0.024663
 3918 Fit      -0.027883
 3919 Fit      -0.030254
 3920 Fit      -0.032124
 3921 Fit      -0.033665
 3922 Fit      -0.034936
 3923 Fit      -0.035979
 3924 Fit      -0.036948
 3925 Fit      -0.036565
 3926 Fit      -0.012594
 3927 Fit      -0.019932
 3928 Fit      -0.024852
 3929 Fit      -0.028229
 3930 Fit      -0.030668
 3931 Fit      -0.032544
 3932 Fit      -0.034041
 3933 Fit      -0.035205
 3934 Fit      -0.036007
 3935 Fit      -0.036438
 3936 Fit      -0.034465
 3937 Fit      -0.032713
 3938 Fit      -0.013332
 3939 Fit      -0.020668
 3940 Fit      -0.025595
 3941 Fit      -0.028949
 3942 Fit      -0.031326
 3943 Fit      -0.033080
 3944 Fit      -0.034341
 3945 Fit      -0.035075
 3946 Fit      -0.035166
 3947 Fit      -0.032066
 3948 Fit      -0.029175
 3949 Fit      -0.024052
 3950 Fit      -0.018351
 3951 Fit      -0.024175
 3952 Fit      -0.028080
 3953 Fit      -0.030697
 3954 Fit      -0.032417
 3955 Fit      -0.033335
 3956 Fit      -0.033313
 3957 Fit      -0.029390
 3958 Fit      -0.025560
 3959 Fit      -0.019492
 3960 Fit      -0.012920
 3961 Fit      -0.019743
 3962 Fit      -0.025158
 3963 Fit      -0.028654
 3964 Fit      -0.030552
 3965 Fit      -0.030907
 3966 Fit      -0.026397
 3967 Fit      -0.021328
 3968 Fit      -0.016762
 3969 Fit      -0.018635
 3970 Fit      -0.024224
 3971 Fit      -0.027405
 3972 Fit      -0.022934
 3973 Fit       0.004188
 3974 Fit       0.005304
 3975 Fit      -0.003061
 3976 Fit       0.002247
 3977 Fit       0.004712
 3978 Fit      -0.002832
 3979 Fit      -0.005121
 3980 Fit      -0.009060
 3981 Fit      -0.004134
 3982 Fit       0.002284
 3983 Fit      -0.009807
 3984 Fit      -0.012312
 3985 Fit      -0.011914
 3986 Fit      -0.014058
 3987 Fit      -0.009463
 3988 Fit      -0.003589
 3989 Fit      -0.016399
 3990 Fit      -0.018560
 3991 Fit      -0.018717
 3992 Fit      -0.017178
 3993 Fit      -0.018167
 3994 Fit      -0.013886
 3995 Fit      -0.008565
 3996 Fit      -0.002371
 3997 Fit      -0.025206
 3998 Fit      -0.024771
 3999 Fit      -0.023527
 4000 Fit      -0.021366
 4001 Fit      -0.021458
 4002 Fit      -0.017276
 4003 Fit      -0.012200
 4004 Fit      -0.006302
 4005 Fit       0.000182
 4006 Fit      -0.029881
 4007 Fit      -0.027473
 4008 Fit      -0.024794
 4009 Fit      -0.023965
 4010 Fit      -0.019846
 4011 Fit      -0.014973
 4012 Fit      -0.009347
 4013 Fit      -0.003105
 4014 Fit       0.003410
 4015 Fit      -0.034565
 4016 Fit      -0.030752
 4017 Fit      -0.027475
 4018 Fit      -0.025693
 4019 Fit      -0.021544
 4020 Fit      -0.016773
 4021 Fit      -0.011308
 4022 Fit      -0.005207
 4023 Fit       0.001375
 4024 Fit       0.008276
 4025 Fit      -0.033585
 4026 Fit      -0.029493
 4027 Fit      -0.026607
 4028 Fit      -0.022068
 4029 Fit      -0.016969
 4030 Fit      -0.011136
 4031 Fit      -0.004533
 4032 Fit       0.002927
 4033 Fit      -0.036710
 4034 Fit      -0.031093
 4035 Fit      -0.026620
 4036 Fit      -0.021377
 4037 Fit      -0.015586
 4038 Fit      -0.008909
 4039 Fit      -0.001133
 4040 Fit      -0.032197
 4041 Fit      -0.025551
 4042 Fit      -0.019075
 4043 Fit      -0.011906
 4044 Fit      -0.003738
 4045 Fit       0.015980
 4046 Fit       0.017434
 4047 Fit       0.010037
 4048 Fit       0.009420
 4049 Fit       0.004391
 4050 Fit       0.001132
 4051 Fit      -0.003317
 4052 Fit       0.023123
 4053 Fit       0.023810
 4054 Fit       0.021594
 4055 Fit       0.022433
 4056 Fit       0.023568
 4057 Fit       0.025629
 4058 Fit       0.020503
 4059 Fit       0.020888
 4060 Fit       0.021582
 4061 Fit       0.022629
 4062 Fit       0.024458
 4063 Fit       0.020380
 4064 Fit       0.020263
 4065 Fit       0.020749
 4066 Fit       0.021612
 4067 Fit       0.023085
 4068 Fit       0.019713
 4069 Fit       0.019395
 4070 Fit       0.019703
 4071 Fit       0.020323
 4072 Fit       0.021307
 4073 Fit       0.018301
 4074 Fit       0.018113
 4075 Fit       0.018315
 4076 Fit       0.018555
 4077 Fit       0.016315
 4078 Fit       0.016102
 4079 Fit       0.023465
 4080 Fit       0.025908
 4081 Fit       0.029917
 4082 Fit       0.023957
 4083 Fit       0.024639
 4084 Fit       0.026485
 4085 Fit       0.030020
 4086 Fit       0.024943
 4087 Fit       0.025408
 4088 Fit       0.026992
 4089 Fit       0.030055
 4090 Fit       0.035782
 4091 Fit       0.025446
 4092 Fit       0.025265
 4093 Fit       0.026327
 4094 Fit       0.028706
 4095 Fit       0.033212
 4096 Fit       0.025238
 4097 Fit       0.024725
 4098 Fit       0.025520
 4099 Fit       0.027520
 4100 Fit       0.031266
 4101 Fit       0.023877
 4102 Fit       0.023543
 4103 Fit       0.024338
 4104 Fit       0.026146
 4105 Fit       0.029284
 4106 Fit       0.021476
 4107 Fit       0.022052
 4108 Fit       0.023423
 4109 Fit       0.025406
 4110 Fit       0.019110
 4111 Fit      -0.011617
 4112 Fit      -0.010335
 4113 Fit      -0.001253
 4114 Fit      -0.007582
 4115 Fit      -0.015089
 4116 Fit      -0.005214
 4117 Fit       0.001072
 4118 Fit      -0.002907
 4119 Fit      -0.007661
 4120 Fit      -0.009139
 4121 Fit      -0.001530
 4122 Fit       0.002192
 4123 Fit       0.003281
 4124 Fit       0.002381
 4125 Fit       0.000244
 4126 Fit      -0.002644
 4127 Fit       0.000942
 4128 Fit       0.016055
 4129 Fit       0.009129
 4130 Fit       0.014269
 4131 Fit       0.019277
 4132 Fit       0.003126
 4133 Fit       0.008577
 4134 Fit       0.012999
 4135 Fit       0.016981
 4136 Fit      -0.000126
 4137 Fit       0.004962
 4138 Fit       0.009423
 4139 Fit       0.012978
 4140 Fit       0.015355
 4141 Fit       0.002186
 4142 Fit       0.006511
 4143 Fit       0.009965
 4144 Fit       0.011409
 4145 Fit       0.004087
 4146 Fit       0.007303
 4147 Fit       0.023970
 4148 Fit       0.023536
 4149 Fit       0.022861
 4150 Fit       0.022609
 4151 Fit       0.024090
 4152 Fit       0.023335
 4153 Fit       0.022351
 4154 Fit       0.020820
 4155 Fit       0.021411
 4156 Fit       0.022843
 4157 Fit       0.023202
 4158 Fit       0.022727
 4159 Fit       0.021658
 4160 Fit       0.018632
 4161 Fit       0.018795
 4162 Fit       0.020124
 4163 Fit       0.022334
 4164 Fit       0.023770
 4165 Fit       0.023663
 4166 Fit       0.023148
 4167 Fit       0.022826
 4168 Fit       0.022130
 4169 Fit       0.020817
 4170 Fit       0.019401
 4171 Fit       0.015905
 4172 Fit       0.022909
 4173 Fit       0.022436
 4174 Fit       0.022503
 4175 Fit       0.022235
 4176 Fit       0.021220
 4177 Fit       0.019600
 4178 Fit       0.017766
 4179 Fit       0.016376
 4180 Fit       0.022448
 4181 Fit       0.021980
 4182 Fit       0.020567
 4183 Fit       0.018575
 4184 Fit       0.016167
 4185 Fit       0.013720
 4186 Fit       0.008660
 4187 Fit       0.003635
 4188 Fit       0.008103
 4189 Fit       0.010303
 4190 Fit       0.003982
 4191 Fit       0.008178
 4192 Fit       0.010225
 4193 Fit       0.005955
 4194 Fit       0.009575
 4195 Fit       0.008553
 4196 Fit       0.011801
 4197 Fit       0.007788
 4198 Fit       0.012931
 4199 Fit       0.026032
 4200 Fit       0.024177
 4201 Fit       0.019183
 4202 Fit       0.031559
 4203 Fit       0.029599
 4204 Fit       0.026156
 4205 Fit       0.021129
 4206 Fit       0.035499
 4207 Fit       0.032797
 4208 Fit       0.029556
 4209 Fit       0.025444
 4210 Fit       0.020110
 4211 Fit       0.035396
 4212 Fit       0.031943
 4213 Fit       0.028009
 4214 Fit       0.023104
 4215 Fit       0.035650
 4216 Fit       0.031963
 4217 Fit       0.027921
 4218 Fit       0.022939
 4219 Fit       0.033152
 4220 Fit       0.029462
 4221 Fit       0.025099
 4222 Fit       0.019553
 4223 Fit       0.029758
 4224 Fit       0.025809
 4225 Fit       0.020439
 4226 Fit       0.023736
 -----------------------------------------------------------------
 Leave Link  602 at Fri Jan 17 11:56:48 2014, MaxMem=   235929600 cpu:         1.5

 Test job not archived.
 1\1\GINC-G29\SP\RHF\Gen\C9H10I1N1O3\KOLAR\17-Jan-2014\0\\# hf/gen pseu
 do=read pop=(mk, readradii) iop(6/33=2,6/41=5,6/42=2)\\na resp\\0,1\C,
 0,1.080646,0.772602,-0.609219\C,0,0.832034,2.146188,-0.509925\C,0,-0.4
 47625,2.628615,-0.237569\C,0,-1.520316,1.748249,-0.056484\C,0,-1.27815
 ,0.369487,-0.158412\C,0,-0.000078,-0.105746,-0.431248\O,0,-2.781482,2.
 177912,0.20993\I,0,-2.88666,-1.009305,0.097757\C,0,2.471194,0.236346,-
 0.874685\C,0,3.145889,-0.371499,0.379842\N,0,3.352292,0.653909,1.41521
 9\C,0,4.512699,-0.949227,-0.042813\O,0,4.619226,-1.963799,-0.691007\O,
 0,5.556648,-0.196041,0.336557\H,0,2.535437,-1.216017,0.725053\H,0,1.64
 3502,2.853899,-0.662599\H,0,-0.621527,3.701148,-0.170589\H,0,0.161695,
 -1.17609,-0.514941\H,0,2.449875,-0.548995,-1.637255\H,0,3.112395,1.039
 935,-1.257923\H,0,2.597346,1.337463,1.398326\H,0,3.349397,0.234647,2.3
 43097\H,0,5.154203,0.547322,0.854555\H,0,-2.788307,3.147801,0.233856\\
 Version=AM64L-G09RevD.01\State=1-A\HF=-636.8205324\RMSD=5.368e-09\Dipo
 le=-0.9857745,2.2025525,0.9304264\Quadrupole=-20.1494394,13.3084754,6.
 8409639,8.6532405,6.929062,-2.0573415\PG=C01 [X(C9H10I1N1O3)]\\@


 GOD GAVE US TWO ENDS... ONE TO SIT ON...    
 AND THE OTHER TO THINK WITH...              
 YOUR SUCCESS DEPENDS UPON WHICH END YOU     
 USE THE MOST...                             
                                             
 IT'S A CASE OF HEADS YOU WIN TAILS YOU LOSE.
          SOURCE UNKNOWN(IT'S JUST AS WELL.) 
 Job cpu time:       0 days  0 hours  2 minutes 15.9 seconds.
 File lengths (MBytes):  RWF=     26 Int=      0 D2E=      0 Chk=      3 Scr=      1
 Normal termination of Gaussian 09 at Fri Jan 17 11:56:48 2014.
135.44user 0.42system 2:16.58elapsed 99%CPU (0avgtext+0avgdata 603440maxresident)k
8inputs+100264outputs (0major+170269minor)pagefaults 0swaps
