Linux g33 2.6.38.6-client #1 SMP Tue Jun 12 11:27:21 CEST 2012 x86_64 GNU/Linux
Thu Jan 16 22:36:46 CET 2014

 Entering Gaussian System, Link 0=/usr/local/programs/common/gaussian/gaussian09_d01/arch/amd64-pgi_10.4.0-acml/g09/g09
 Initial command:
 /usr/local/programs/common/gaussian/gaussian09_d01/arch/amd64-pgi_10.4.0-acml/g09/l1.exe "/scratch/kolar/g09_26141/Gau-1894.inp" -scrdir="/scratch/kolar/g09_26141/"
 Entering Link 1 = /usr/local/programs/common/gaussian/gaussian09_d01/arch/amd64-pgi_10.4.0-acml/g09/l1.exe PID=      1905.
  
 Copyright (c) 1988,1990,1992,1993,1995,1998,2003,2009,2013,
            Gaussian, Inc.  All Rights Reserved.
  
 This is part of the Gaussian(R) 09 program.  It is based on
 the Gaussian(R) 03 system (copyright 2003, Gaussian, Inc.),
 the Gaussian(R) 98 system (copyright 1998, Gaussian, Inc.),
 the Gaussian(R) 94 system (copyright 1995, Gaussian, Inc.),
 the Gaussian 92(TM) system (copyright 1992, Gaussian, Inc.),
 the Gaussian 90(TM) system (copyright 1990, Gaussian, Inc.),
 the Gaussian 88(TM) system (copyright 1988, Gaussian, Inc.),
 the Gaussian 86(TM) system (copyright 1986, Carnegie Mellon
 University), and the Gaussian 82(TM) system (copyright 1983,
 Carnegie Mellon University). Gaussian is a federally registered
 trademark of Gaussian, Inc.
  
 This software contains proprietary and confidential information,
 including trade secrets, belonging to Gaussian, Inc.
  
 This software is provided under written license and may be
 used, copied, transmitted, or stored only in accord with that
 written license.
  
 The following legend is applicable only to US Government
 contracts under FAR:
  
                    RESTRICTED RIGHTS LEGEND
  
 Use, reproduction and disclosure by the US Government is
 subject to restrictions as set forth in subparagraphs (a)
 and (c) of the Commercial Computer Software - Restricted
 Rights clause in FAR 52.227-19.
  
 Gaussian, Inc.
 340 Quinnipiac St., Bldg. 40, Wallingford CT 06492
  
  
 ---------------------------------------------------------------
 Warning -- This program may not be used in any manner that
 competes with the business of Gaussian, Inc. or will provide
 assistance to any competitor of Gaussian, Inc.  The licensee
 of this program is prohibited from giving any competitor of
 Gaussian, Inc. access to this program.  By using this program,
 the user acknowledges that Gaussian, Inc. is engaged in the
 business of creating and licensing software in the field of
 computational chemistry and represents and warrants to the
 licensee that it is not a competitor of Gaussian, Inc. and that
 it will not use this program in any manner prohibited above.
 ---------------------------------------------------------------
  

 Cite this work as:
 Gaussian 09, Revision D.01,
 M. J. Frisch, G. W. Trucks, H. B. Schlegel, G. E. Scuseria, 
 M. A. Robb, J. R. Cheeseman, G. Scalmani, V. Barone, B. Mennucci, 
 G. A. Petersson, H. Nakatsuji, M. Caricato, X. Li, H. P. Hratchian, 
 A. F. Izmaylov, J. Bloino, G. Zheng, J. L. Sonnenberg, M. Hada, 
 M. Ehara, K. Toyota, R. Fukuda, J. Hasegawa, M. Ishida, T. Nakajima, 
 Y. Honda, O. Kitao, H. Nakai, T. Vreven, J. A. Montgomery, Jr., 
 J. E. Peralta, F. Ogliaro, M. Bearpark, J. J. Heyd, E. Brothers, 
 K. N. Kudin, V. N. Staroverov, T. Keith, R. Kobayashi, J. Normand, 
 K. Raghavachari, A. Rendell, J. C. Burant, S. S. Iyengar, J. Tomasi, 
 M. Cossi, N. Rega, J. M. Millam, M. Klene, J. E. Knox, J. B. Cross, 
 V. Bakken, C. Adamo, J. Jaramillo, R. Gomperts, R. E. Stratmann, 
 O. Yazyev, A. J. Austin, R. Cammi, C. Pomelli, J. W. Ochterski, 
 R. L. Martin, K. Morokuma, V. G. Zakrzewski, G. A. Voth, 
 P. Salvador, J. J. Dannenberg, S. Dapprich, A. D. Daniels, 
 O. Farkas, J. B. Foresman, J. V. Ortiz, J. Cioslowski, 
 and D. J. Fox, Gaussian, Inc., Wallingford CT, 2013.
 
 ******************************************
 Gaussian 09:  AM64L-G09RevD.01 24-Apr-2013
                16-Jan-2014 
 ******************************************
 %mem=1800mb
 -----------------------------------------
 # hf/gen pop=mk iop(6/33=2,6/41=5,6/42=2)
 -----------------------------------------
 1/38=1/1;
 2/12=2,17=6,18=5,40=1/2;
 3/5=7,11=9,16=1,25=1,30=1/1,2,3;
 4//1;
 5/5=2,38=5/2;
 6/7=2,8=2,9=2,10=2,15=8,20=1,28=1,33=2,41=5,42=2/1,2;
 99/5=1,9=1/99;
 -------
 na resp
 -------
 Symbolic Z-matrix:
 Charge =  0 Multiplicity = 1
 6                    -3.60706   1.82559   0.0002 
 8                    -3.14359   0.48291  -0.00021 
 6                    -1.8168    0.23991  -0.00015 
 6                    -0.85358   1.25781  -0.00022 
 6                     0.51506   0.95412  -0.00017 
 6                     0.92062  -0.39384  -0.00006 
 6                    -0.03303  -1.39422  -0.00001 
 6                    -1.40861  -1.11781  -0.00005 
 6                    -2.32726  -2.27272   0.00007 
 8                    -3.54232  -2.25189   0.00012 
 35                    2.77395  -0.8311    0.00004 
 8                     1.49193   1.88677  -0.00026 
 6                     1.13733   3.26391   0.00028 
 1                    -4.69557   1.75745   0.00051 
 1                    -3.27614   2.36566  -0.89625 
 1                    -3.2756    2.36528   0.89667 
 1                    -1.16569   2.29232  -0.00041 
 1                     0.2904   -2.43131   0.00008 
 1                    -1.78212  -3.24599   0.00019 
 1                     2.08212   3.80881   0.00062 
 1                     0.56333   3.52906  -0.89625 
 1                     0.56309   3.5283    0.89687 
 
                          Input orientation:                          
 ---------------------------------------------------------------------
 Center     Atomic      Atomic             Coordinates (Angstroms)
 Number     Number       Type             X           Y           Z
 ---------------------------------------------------------------------
      1          6           0       -3.607056    1.825593    0.000201
      2          8           0       -3.143591    0.482905   -0.000214
      3          6           0       -1.816802    0.239906   -0.000148
      4          6           0       -0.853577    1.257814   -0.000217
      5          6           0        0.515062    0.954122   -0.000166
      6          6           0        0.920620   -0.393840   -0.000060
      7          6           0       -0.033031   -1.394215   -0.000014
      8          6           0       -1.408610   -1.117808   -0.000046
      9          6           0       -2.327261   -2.272719    0.000071
     10          8           0       -3.542324   -2.251892    0.000118
     11         35           0        2.773945   -0.831098    0.000041
     12          8           0        1.491929    1.886771   -0.000259
     13          6           0        1.137326    3.263911    0.000275
     14          1           0       -4.695566    1.757453    0.000508
     15          1           0       -3.276138    2.365656   -0.896247
     16          1           0       -3.275595    2.365279    0.896671
     17          1           0       -1.165693    2.292318   -0.000408
     18          1           0        0.290396   -2.431314    0.000084
     19          1           0       -1.782124   -3.245985    0.000185
     20          1           0        2.082116    3.808810    0.000618
     21          1           0        0.563326    3.529060   -0.896253
     22          1           0        0.563093    3.528301    0.896872
 ---------------------------------------------------------------------
                    Distance matrix (angstroms):
                    1          2          3          4          5
     1  C    0.000000
     2  O    1.420426   0.000000
     3  C    2.391529   1.348858   0.000000
     4  C    2.811409   2.417571   1.401406   0.000000
     5  C    4.213231   3.688873   2.438789   1.401928   0.000000
     6  C    5.042394   4.157703   2.809824   2.423992   1.407650
     7  C    4.810490   3.633065   2.419130   2.776068   2.411450
     8  C    3.673796   2.360602   1.417748   2.439599   2.827262
     9  C    4.293488   2.873997   2.563953   3.825756   4.300152
    10  O    4.077999   2.763712   3.030921   4.421244   5.171161
    11  Br   6.911959   6.061669   4.714022   4.185985   2.879160
    12  O    5.099352   4.843437   3.695925   2.428371   1.350594
    13  C    4.957612   5.104924   4.227467   2.826326   2.392141
    14  H    1.090641   2.008258   3.254264   3.874341   5.272190
    15  H    1.097631   2.089305   2.729738   2.810513   4.143499
    16  H    1.097627   2.089296   2.729390   2.810170   4.143038
    17  H    2.485576   2.680682   2.153216   1.080562   2.148419
    18  H    5.771602   4.503880   3.402308   3.862427   3.392883
    19  H    5.389924   3.969662   3.486064   4.598522   4.787271
    20  H    6.024934   6.194325   5.285701   3.889200   3.256517
    21  H    4.593203   4.880899   4.157709   2.822951   2.726831
    22  H    4.592753   4.880441   4.157173   2.822558   2.726423
                    6          7          8          9         10
     6  C    0.000000
     7  C    1.382100   0.000000
     8  C    2.439148   1.403075   0.000000
     9  C    3.752188   2.456677   1.475716   0.000000
    10  O    4.834276   3.612582   2.416378   1.215241   0.000000
    11  Br   1.904208   2.862903   4.192370   5.300997   6.474095
    12  O    2.351081   3.618062   4.176197   5.646908   6.517073
    13  C    3.664165   4.802903   5.067667   6.531281   7.233478
    14  H    6.014117   5.627810   4.367059   4.674522   4.171908
    15  H    5.102034   5.045553   4.052821   4.818535   4.711271
    16  H    5.101479   5.045004   4.052361   4.818117   4.710968
    17  H    3.401198   3.856611   3.418767   4.710499   5.128179
    18  H    2.132717   1.086361   2.147538   2.622457   3.836917
    19  H    3.929320   2.547230   2.160706   1.115536   2.021516
    20  H    4.360200   5.616522   6.037941   7.511831   8.268400
    21  H    4.039798   5.039595   5.126900   6.543663   7.146975
    22  H    4.039245   5.038942   5.126247   6.542953   7.146275
                   11         12         13         14         15
    11  Br   0.000000
    12  O    3.005059   0.000000
    13  C    4.409946   1.422061   0.000000
    14  H    7.905327   6.188846   6.024288   0.000000
    15  H    6.901165   4.875099   4.592306   1.785737   0.000000
    16  H    6.900558   4.874704   4.591834   1.785743   1.792918
    17  H    5.027572   2.688387   2.499578   3.570166   2.293880
    18  H    2.954439   4.482136   5.757854   6.511957   6.044377
    19  H    5.156495   6.088071   7.134559   5.789865   5.875898
    20  H    4.691202   2.010611   1.090662   7.081316   5.621205
    21  H    4.970026   2.088593   1.097061   5.621274   4.011857
    22  H    4.969561   2.088588   1.097056   5.620753   4.393941
                   16         17         18         19         20
    16  H    0.000000
    17  H    2.293853   0.000000
    18  H    6.043796   4.942964   0.000000
    19  H    5.875409   5.572503   2.226888   0.000000
    20  H    5.620655   3.584412   6.492258   8.043785   0.000000
    21  H    4.393891   2.306854   6.033570   7.225370   1.785878
    22  H    4.011003   2.306830   6.032877   7.224614   1.785886
                   21         22
    21  H    0.000000
    22  H    1.793125   0.000000
 Stoichiometry    C9H9BrO3
 Framework group  C1[X(C9H9BrO3)]
 Deg. of freedom    60
 Full point group                 C1      NOp   1
 Largest Abelian subgroup         C1      NOp   1
 Largest concise Abelian subgroup C1      NOp   1
                         Standard orientation:                         
 ---------------------------------------------------------------------
 Center     Atomic      Atomic             Coordinates (Angstroms)
 Number     Number       Type             X           Y           Z
 ---------------------------------------------------------------------
      1          6           0       -3.607056    1.825593    0.000201
      2          8           0       -3.143591    0.482905   -0.000214
      3          6           0       -1.816802    0.239906   -0.000148
      4          6           0       -0.853577    1.257814   -0.000217
      5          6           0        0.515062    0.954122   -0.000166
      6          6           0        0.920620   -0.393840   -0.000060
      7          6           0       -0.033031   -1.394215   -0.000014
      8          6           0       -1.408610   -1.117808   -0.000046
      9          6           0       -2.327261   -2.272719    0.000071
     10          8           0       -3.542324   -2.251892    0.000118
     11         35           0        2.773945   -0.831098    0.000041
     12          8           0        1.491929    1.886771   -0.000259
     13          6           0        1.137326    3.263911    0.000275
     14          1           0       -4.695566    1.757453    0.000508
     15          1           0       -3.276138    2.365656   -0.896247
     16          1           0       -3.275595    2.365279    0.896671
     17          1           0       -1.165693    2.292318   -0.000408
     18          1           0        0.290396   -2.431314    0.000084
     19          1           0       -1.782124   -3.245985    0.000185
     20          1           0        2.082116    3.808810    0.000618
     21          1           0        0.563326    3.529060   -0.896253
     22          1           0        0.563093    3.528301    0.896872
 ---------------------------------------------------------------------
 Rotational constants (GHZ):      0.8801890      0.3674109      0.2600750
 General basis read from cards:  (5D, 7F)
 There are   228 symmetry adapted cartesian basis functions of A   symmetry.
 There are   214 symmetry adapted basis functions of A   symmetry.
   214 basis functions,   455 primitive gaussians,   228 cartesian basis functions
    61 alpha electrons       61 beta electrons
       nuclear repulsion energy      1070.7144893949 Hartrees.
 NAtoms=   22 NActive=   22 NUniq=   22 SFac= 1.00D+00 NAtFMM=   60 NAOKFM=F Big=F
 Integral buffers will be    131072 words long.
 Raffenetti 1 integral format.
 Two-electron integral symmetry is turned on.
 One-electron integrals computed using PRISM.
 NBasis=   214 RedAO= T EigKep=  4.04D-04  NBF=   214
 NBsUse=   214 1.00D-06 EigRej= -1.00D+00 NBFU=   214
 ExpMin= 1.43D-01 ExpMax= 5.74D+05 ExpMxC= 5.74D+03 IAcc=2 IRadAn=         4 AccDes= 0.00D+00
 Harris functional with IExCor=  205 and IRadAn=       4 diagonalized for initial guess.
 HarFok:  IExCor=  205 AccDes= 0.00D+00 IRadAn=         4 IDoV= 1 UseB2=F ITyADJ=14
 ICtDFT=  3500011 ScaDFX=  1.000000  1.000000  1.000000  1.000000
 FoFCou: FMM=F IPFlag=           0 FMFlag=      100000 FMFlg1=           0
         NFxFlg=           0 DoJE=T BraDBF=F KetDBF=T FulRan=T
         wScrn=  0.000000 ICntrl=     500 IOpCl=  0 I1Cent=   200000004 NGrid=           0
         NMat0=    1 NMatS0=      1 NMatT0=    0 NMatD0=    1 NMtDS0=    0 NMtDT0=    0
 Petite list used in FoFCou.
 Requested convergence on RMS density matrix=1.00D-08 within 128 cycles.
 Requested convergence on MAX density matrix=1.00D-06.
 Requested convergence on             energy=1.00D-06.
 No special actions if energy rises.
 Integral accuracy reduced to 1.0D-05 until final iterations.
 Initial convergence to 1.0D-05 achieved.  Increase integral accuracy.
 SCF Done:  E(RHF) =  -3140.18607900     A.U. after   16 cycles
            NFock= 16  Conv=0.71D-08     -V/T= 1.9991

 **********************************************************************

            Population analysis using the SCF density.

 **********************************************************************

 Orbital symmetries:
 BldTbl:  Degeneracy threshold= 1.00D-02
       Occupied  (A) (A) (A) (A) (A) (A) (A) (A) (A) (A) (A) (A)
                 (A) (A) (A) (A) (A) (A) (A) (A) (A) (A) (A) (A)
                 (A) (A) (A) (A) (A) (A) (A) (A) (A) (A) (A) (A)
                 (A) (A) (A) (A) (A) (A) (A) (A) (A) (A) (A) (A)
                 (A) (A) (A) (A) (A) (A) (A) (A) (A) (A) (A) (A)
                 (A)
       Virtual   (A) (A) (A) (A) (A) (A) (A) (A) (A) (A) (A) (A)
                 (A) (A) (A) (A) (A) (A) (A) (A) (A) (A) (A) (A)
                 (A) (A) (A) (A) (A) (A) (A) (A) (A) (A) (A) (A)
                 (A) (A) (A) (A) (A) (A) (A) (A) (A) (A) (A) (A)
                 (A) (A) (A) (A) (A) (A) (A) (A) (A) (A) (A) (A)
                 (A) (A) (A) (A) (A) (A) (A) (A) (A) (A) (A) (A)
                 (A) (A) (A) (A) (A) (A) (A) (A) (A) (A) (A) (A)
                 (A) (A) (A) (A) (A) (A) (A) (A) (A) (A) (A) (A)
                 (A) (A) (A) (A) (A) (A) (A) (A) (A) (A) (A) (A)
                 (A) (A) (A) (A) (A) (A) (A) (A) (A) (A) (A) (A)
                 (A) (A) (A) (A) (A) (A) (A) (A) (A) (A) (A) (A)
                 (A) (A) (A) (A) (A) (A) (A) (A) (A) (A) (A) (A)
                 (A) (A) (A) (A) (A) (A) (A) (A) (A)
 The electronic state is 1-A.
 Alpha  occ. eigenvalues -- -489.84285 -64.38635 -58.55330 -58.55145 -58.55135
 Alpha  occ. eigenvalues --  -20.61755 -20.60726 -20.54740 -11.34755 -11.34216
 Alpha  occ. eigenvalues --  -11.32972 -11.30559 -11.29839 -11.29475 -11.27738
 Alpha  occ. eigenvalues --  -11.25297 -11.24851  -9.66373  -7.47959  -7.47042
 Alpha  occ. eigenvalues --   -7.47040  -3.22288  -3.21849  -3.21842  -3.20777
 Alpha  occ. eigenvalues --   -3.20776  -1.44095  -1.43223  -1.37229  -1.17959
 Alpha  occ. eigenvalues --   -1.07554  -1.05812  -0.99168  -0.98511  -0.93882
 Alpha  occ. eigenvalues --   -0.87489  -0.84526  -0.78550  -0.74721  -0.71741
 Alpha  occ. eigenvalues --   -0.67943  -0.67696  -0.66838  -0.66771  -0.64653
 Alpha  occ. eigenvalues --   -0.62542  -0.61489  -0.58892  -0.56777  -0.56572
 Alpha  occ. eigenvalues --   -0.54003  -0.53381  -0.51461  -0.50882  -0.50194
 Alpha  occ. eigenvalues --   -0.47719  -0.42272  -0.41417  -0.40593  -0.35492
 Alpha  occ. eigenvalues --   -0.31339
 Alpha virt. eigenvalues --    0.08724   0.12640   0.16626   0.21361   0.21791
 Alpha virt. eigenvalues --    0.24750   0.25986   0.27306   0.28371   0.28857
 Alpha virt. eigenvalues --    0.29495   0.29924   0.32211   0.33612   0.33856
 Alpha virt. eigenvalues --    0.36791   0.39799   0.42110   0.43369   0.47666
 Alpha virt. eigenvalues --    0.51758   0.53065   0.56854   0.58634   0.61855
 Alpha virt. eigenvalues --    0.64564   0.64772   0.65531   0.66385   0.66712
 Alpha virt. eigenvalues --    0.68405   0.68864   0.70671   0.72119   0.72848
 Alpha virt. eigenvalues --    0.73150   0.75040   0.75072   0.76955   0.78183
 Alpha virt. eigenvalues --    0.78351   0.78889   0.82763   0.85914   0.86940
 Alpha virt. eigenvalues --    0.88083   0.88975   0.90113   0.91586   0.96524
 Alpha virt. eigenvalues --    0.98092   0.99702   1.00585   1.03543   1.05204
 Alpha virt. eigenvalues --    1.05483   1.06922   1.08933   1.10051   1.11073
 Alpha virt. eigenvalues --    1.11641   1.11658   1.12998   1.15997   1.16627
 Alpha virt. eigenvalues --    1.18451   1.19613   1.21263   1.23945   1.24811
 Alpha virt. eigenvalues --    1.27161   1.30285   1.30548   1.33308   1.33538
 Alpha virt. eigenvalues --    1.33956   1.37377   1.38709   1.41081   1.46218
 Alpha virt. eigenvalues --    1.47387   1.49825   1.54650   1.55506   1.56551
 Alpha virt. eigenvalues --    1.59535   1.61634   1.63705   1.64550   1.68801
 Alpha virt. eigenvalues --    1.69222   1.74109   1.76008   1.77944   1.80399
 Alpha virt. eigenvalues --    1.80778   1.82574   1.93164   1.98154   2.00676
 Alpha virt. eigenvalues --    2.03231   2.05785   2.08357   2.09995   2.12301
 Alpha virt. eigenvalues --    2.14490   2.18644   2.19327   2.20454   2.20527
 Alpha virt. eigenvalues --    2.22907   2.29051   2.31597   2.33304   2.34812
 Alpha virt. eigenvalues --    2.36688   2.39762   2.40642   2.41831   2.42035
 Alpha virt. eigenvalues --    2.43504   2.45160   2.50309   2.55498   2.56844
 Alpha virt. eigenvalues --    2.57916   2.59305   2.64096   2.65045   2.69090
 Alpha virt. eigenvalues --    2.69407   2.72051   2.74702   2.80517   2.87861
 Alpha virt. eigenvalues --    2.89823   2.92324   2.95706   2.96224   3.01672
 Alpha virt. eigenvalues --    3.02257   3.05711   3.07043   3.12254   3.22539
 Alpha virt. eigenvalues --    3.26719   3.33318   3.35529   3.40198   3.46680
 Alpha virt. eigenvalues --    3.65849   3.78128   9.18016
          Condensed to atoms (all electrons):
               1          2          3          4          5          6
     1  C    4.871785   0.198889  -0.046363  -0.009441  -0.000502   0.000016
     2  O    0.198889   8.399576   0.279731  -0.053719   0.003014   0.000006
     3  C   -0.046363   0.279731   4.330805   0.471265  -0.002434  -0.022654
     4  C   -0.009441  -0.053719   0.471265   5.359982   0.473479  -0.061871
     5  C   -0.000502   0.003014  -0.002434   0.473479   4.378962   0.522788
     6  C    0.000016   0.000006  -0.022654  -0.061871   0.522788   4.961493
     7  C   -0.000081   0.002341  -0.036889  -0.043110  -0.039636   0.531652
     8  C    0.003070  -0.057520   0.540220  -0.061910  -0.021612  -0.051263
     9  C   -0.000122  -0.000818  -0.029679   0.004848  -0.000582   0.003864
    10  O    0.000093  -0.005638  -0.000138   0.000148  -0.000007  -0.000056
    11  Br   0.000000   0.000000   0.000112   0.003390  -0.061622   0.292425
    12  O    0.000002  -0.000007   0.002987  -0.050374   0.278657  -0.062773
    13  C   -0.000031   0.000002  -0.000531  -0.008530  -0.045762   0.003083
    14  H    0.402322  -0.030402   0.001825   0.000390   0.000017   0.000000
    15  H    0.385345  -0.035635  -0.002594   0.000893  -0.000228  -0.000002
    16  H    0.385340  -0.035635  -0.002596   0.000899  -0.000228  -0.000002
    17  H    0.002028  -0.004770  -0.024232   0.378222  -0.026269   0.001405
    18  H    0.000001  -0.000035   0.001722   0.000014   0.002386  -0.024753
    19  H    0.000003  -0.000094   0.000751   0.000092  -0.000067   0.001017
    20  H    0.000000   0.000000   0.000017   0.000407   0.001687   0.000089
    21  H   -0.000003   0.000001  -0.000237   0.000670  -0.002177  -0.000270
    22  H   -0.000003   0.000001  -0.000237   0.000677  -0.002178  -0.000269
               7          8          9         10         11         12
     1  C   -0.000081   0.003070  -0.000122   0.000093   0.000000   0.000002
     2  O    0.002341  -0.057520  -0.000818  -0.005638   0.000000  -0.000007
     3  C   -0.036889   0.540220  -0.029679  -0.000138   0.000112   0.002987
     4  C   -0.043110  -0.061910   0.004848   0.000148   0.003390  -0.050374
     5  C   -0.039636  -0.021612  -0.000582  -0.000007  -0.061622   0.278657
     6  C    0.531652  -0.051263   0.003864  -0.000056   0.292425  -0.062773
     7  C    4.971947   0.477817  -0.020453   0.001987  -0.067107   0.002059
     8  C    0.477817   5.356420   0.231814  -0.069764   0.002437   0.000015
     9  C   -0.020453   0.231814   4.445149   0.571627  -0.000069  -0.000001
    10  O    0.001987  -0.069764   0.571627   8.071090   0.000000   0.000000
    11  Br  -0.067107   0.002437  -0.000069   0.000000  34.942334  -0.004229
    12  O    0.002059   0.000015  -0.000001   0.000000  -0.004229   8.419365
    13  C   -0.000065   0.000018   0.000000   0.000000   0.000111   0.195413
    14  H    0.000004   0.000123  -0.000038   0.000043   0.000000   0.000000
    15  H   -0.000011  -0.000343   0.000015  -0.000010   0.000000   0.000001
    16  H   -0.000011  -0.000343   0.000015  -0.000010   0.000000   0.000001
    17  H    0.000340   0.001837  -0.000040   0.000004  -0.000088  -0.004687
    18  H    0.374661  -0.030727  -0.001483   0.000086  -0.000465  -0.000036
    19  H    0.011931  -0.141830   0.431426  -0.047810  -0.000002   0.000000
    20  H    0.000004   0.000000   0.000000   0.000000   0.000000  -0.030107
    21  H   -0.000010  -0.000001   0.000000   0.000000  -0.000008  -0.035609
    22  H   -0.000010  -0.000001   0.000000   0.000000  -0.000008  -0.035608
              13         14         15         16         17         18
     1  C   -0.000031   0.402322   0.385345   0.385340   0.002028   0.000001
     2  O    0.000002  -0.030402  -0.035635  -0.035635  -0.004770  -0.000035
     3  C   -0.000531   0.001825  -0.002594  -0.002596  -0.024232   0.001722
     4  C   -0.008530   0.000390   0.000893   0.000899   0.378222   0.000014
     5  C   -0.045762   0.000017  -0.000228  -0.000228  -0.026269   0.002386
     6  C    0.003083   0.000000  -0.000002  -0.000002   0.001405  -0.024753
     7  C   -0.000065   0.000004  -0.000011  -0.000011   0.000340   0.374661
     8  C    0.000018   0.000123  -0.000343  -0.000343   0.001837  -0.030727
     9  C    0.000000  -0.000038   0.000015   0.000015  -0.000040  -0.001483
    10  O    0.000000   0.000043  -0.000010  -0.000010   0.000004   0.000086
    11  Br   0.000111   0.000000   0.000000   0.000000  -0.000088  -0.000465
    12  O    0.195413   0.000000   0.000001   0.000001  -0.004687  -0.000036
    13  C    4.871260   0.000000  -0.000004  -0.000004   0.001890   0.000001
    14  H    0.000000   0.464581  -0.026653  -0.026645   0.000063   0.000000
    15  H   -0.000004  -0.026653   0.554112  -0.042659  -0.000316   0.000000
    16  H   -0.000004  -0.026645  -0.042659   0.554107  -0.000319   0.000000
    17  H    0.001890   0.000063  -0.000316  -0.000319   0.441047   0.000009
    18  H    0.000001   0.000000   0.000000   0.000000   0.000009   0.424584
    19  H    0.000000   0.000000   0.000000   0.000000   0.000002   0.003024
    20  H    0.401263   0.000000   0.000000   0.000000   0.000062   0.000000
    21  H    0.386892   0.000000   0.000045  -0.000009  -0.000198   0.000000
    22  H    0.386886   0.000000  -0.000009   0.000045  -0.000201   0.000000
              19         20         21         22
     1  C    0.000003   0.000000  -0.000003  -0.000003
     2  O   -0.000094   0.000000   0.000001   0.000001
     3  C    0.000751   0.000017  -0.000237  -0.000237
     4  C    0.000092   0.000407   0.000670   0.000677
     5  C   -0.000067   0.001687  -0.002177  -0.002178
     6  C    0.001017   0.000089  -0.000270  -0.000269
     7  C    0.011931   0.000004  -0.000010  -0.000010
     8  C   -0.141830   0.000000  -0.000001  -0.000001
     9  C    0.431426   0.000000   0.000000   0.000000
    10  O   -0.047810   0.000000   0.000000   0.000000
    11  Br  -0.000002   0.000000  -0.000008  -0.000008
    12  O    0.000000  -0.030107  -0.035609  -0.035608
    13  C    0.000000   0.401263   0.386892   0.386886
    14  H    0.000000   0.000000   0.000000   0.000000
    15  H    0.000000   0.000000   0.000045  -0.000009
    16  H    0.000000   0.000000  -0.000009   0.000045
    17  H    0.000002   0.000062  -0.000198  -0.000201
    18  H    0.003024   0.000000   0.000000   0.000000
    19  H    0.589188   0.000000   0.000000   0.000000
    20  H    0.000000   0.468246  -0.026498  -0.026488
    21  H    0.000000  -0.026498   0.544665  -0.041368
    22  H    0.000000  -0.026488  -0.041368   0.544657
 Mulliken charges:
               1
     1  C   -0.192349
     2  O   -0.659287
     3  C    0.539152
     4  C   -0.406420
     5  C    0.542316
     6  C   -0.093927
     7  C   -0.167361
     8  C   -0.178458
     9  C    0.364526
    10  O   -0.521645
    11  Br  -0.107210
    12  O   -0.675068
    13  C   -0.191894
    14  H    0.214370
    15  H    0.168055
    16  H    0.168055
    17  H    0.234214
    18  H    0.251011
    19  H    0.152369
    20  H    0.211320
    21  H    0.174113
    22  H    0.174116
 Sum of Mulliken charges =   0.00000
 Mulliken charges with hydrogens summed into heavy atoms:
               1
     1  C    0.358131
     2  O   -0.659287
     3  C    0.539152
     4  C   -0.172206
     5  C    0.542316
     6  C   -0.093927
     7  C    0.083651
     8  C   -0.178458
     9  C    0.516896
    10  O   -0.521645
    11  Br  -0.107210
    12  O   -0.675068
    13  C    0.367656
 DipInt: DoE/N= T F RetVal/Mat= T F Init=T NMatP=  1 IDeriv=0 Min/MaxMlt=  0  4
 Entering OneElI...
 OneElI was handed   235793971 working-precision words.
 Multipole integrals L=0 to 4 MinM= 0 MaxM= 0.
 Requested accuracy = 0.1000D-12
 ShPair: Thresh= 1.00D-13 NBox=     0 BxSize= 0.00D+00 RnKept= 1.56D+01
         NSMCal=                 3081 NSMKep=                2688
 PrsmSu:  NPrtUS=   1 ThrOK=F IAlg=1 NPAlg=1 LenDen=           0.
 Prism:   IPart=     0 DynPar=F LinDyn=F Incr=          26.
 PRISM was handed   235549707 working-precision words and  2688 shell-pairs
 IPart=  0 NShTot=        2688 NBatch=         124 AvBLen=        21.7
 PrSmSu:  NxtVal=             27.
 Electronic moments (au):
       -122.00000000          0.29493691          1.97411920          0.00042732
      -2508.59886043      -1198.95998669        -78.32619100        -10.18694880
         -0.00020976          0.00166191       2872.36505176      -1644.57365543
         -0.01429194       1114.58543980       1350.42759432         -0.20156860
         58.86461127        -71.49991996         -0.21348842         -0.02856200
     -86739.01656390     -29729.91317818       -309.43407153       5446.60141217
          0.78768072      -9273.86506135         -0.70839423          0.03303966
         -0.09302275     -22540.60369468      -1517.18488570      -1092.71055105
          0.02670941          0.19489386         82.82170982
 Electronic spatial extent (au):  <R**2>=           3785.8850
 DipInt: DoE/N= F T RetVal/Mat= T F Init=T NMatP=  1 IDeriv=0 Min/MaxMlt=  0  4
 Nuclear    moments (au):
        122.00000000          0.00000000          0.00000000          0.00000000
       2431.01355877       1145.51911216         11.48072231          0.00000000
          0.00015469          0.00002208      -2709.61513158       1677.71736289
          0.01697106      -1064.22302857      -1260.59257443          0.21411963
        -29.42129581         63.93943605          0.22087845          0.02905376
      79051.40305590      26147.17238400         32.95169127      -6337.54294304
         -0.82650141       9107.08164388          0.73113066         -0.02913435
          0.08756490      20568.21951230        226.46092420        369.96558201
          0.02758006         -0.15387143       -118.08439578
 Total      moments (au):
          0.00000000          0.29493691          1.97411920          0.00042732
        -77.58530165        -53.44087453        -66.84546870        -10.18694880
         -0.00005507          0.00168399        162.74992018         33.14370746
          0.00267911         50.36241123         89.83501989          0.01255103
         29.44331546         -7.56048391          0.00739003          0.00049177
      -7687.61350800      -3582.74079417       -276.48238026       -890.94153088
         -0.03882068       -166.78341747          0.02273642          0.00390531
         -0.00545785      -1972.38418238      -1290.72396151       -722.74496905
          0.05428947          0.04102243        -35.26268595
 Traceless Quadrup. (au):
        -11.62808669         12.51634043         -0.88825374        -10.18694880
         -0.00005507          0.00168399
 Charge=              0.0000 electrons
 Dipole moment (field-independent basis, Debye):
    X=              0.7497    Y=              5.0177    Z=              0.0011  Tot=              5.0734
 Quadrupole moment (field-independent basis, Debye-Ang):
   XX=           -104.3549   YY=            -71.8798   ZZ=            -89.9094
   XY=            -13.7018   XZ=             -0.0001   YZ=              0.0023
 Traceless Quadrupole moment (field-independent basis, Debye-Ang):
   XX=            -15.6402   YY=             16.8349   ZZ=             -1.1947
   XY=            -13.7018   XZ=             -0.0001   YZ=              0.0023
 Octapole moment (field-independent basis, Debye-Ang**2):
  XXX=            115.8391  YYY=             23.5904  ZZZ=              0.0019  XYY=             35.8460
  XXY=             63.9411  XXZ=              0.0089  XZZ=             20.9566  YZZ=             -5.3813
  YYZ=              0.0053  XYZ=              0.0004
 Hexadecapole moment (field-independent basis, Debye-Ang**3):
 XXXX=          -2895.5237 YYYY=          -1349.4319 ZZZZ=           -104.1365 XXXY=           -335.5713
 XXXZ=             -0.0146 YYYX=            -62.8186 YYYZ=              0.0086 ZZZX=              0.0015
 ZZZY=             -0.0021 XXYY=           -742.8944 XXZZ=           -486.1485 YYZZ=           -272.2204
 XXYZ=              0.0204 YYXZ=              0.0155 ZZXY=            -13.2816
 N-N= 1.070714489395D+03 E-N=-9.630242166549D+03  KE= 3.142936750698D+03
 Entering OneElI...
 OneElI was handed   235825501 working-precision words.
 Calculate electrostatic properties
    NBasis =   214  MinDer = 0  MaxDer = 0
    NGrid  =    22  NMatD  =   1
 Requested accuracy = 0.1000D-12
 ShPair: Thresh= 1.00D-13 NBox=     0 BxSize= 0.00D+00 RnKept= 1.56D+01
         NSMCal=                 3081 NSMKep=                2391
 PrsmSu:  NPrtUS=   1 ThrOK=F IAlg=1 NPAlg=1 LenDen=           0.
 Prism:   IPart=     0 DynPar=F LinDyn=F Incr=         512.
 PRISM was handed   235605469 working-precision words and  2391 shell-pairs
 IPart=  0 NShTot=       52602 NBatch=        2399 AvBLen=        21.9
 PrSmSu:  NxtVal=            513.
 --------------------------------------------------------
       Center         ----      EFG at Nuclei      ----
                      3XX-RR        3YY-RR        3ZZ-RR
 --------------------------------------------------------
     1   Atom        0.145920     -0.335901      0.189981
     2   Atom       -1.002380     -0.515440      1.517820
     3   Atom       -0.031178      0.402302     -0.371123
     4   Atom        0.027042      0.050444     -0.077487
     5   Atom        0.194489      0.146826     -0.341315
     6   Atom       -0.272247      0.190328      0.081919
     7   Atom        0.240720      0.194731     -0.435451
     8   Atom        0.071919      0.024097     -0.096016
     9   Atom        0.306719      0.265011     -0.571731
    10   Atom       -0.659563      2.080317     -1.420754
    11   Atom       -6.570978      2.961119      3.609859
    12   Atom        0.103383     -1.664157      1.560774
    13   Atom        0.204220     -0.404938      0.200718
    14   Atom       -0.292695      0.135456      0.157239
    15   Atom        0.104205      0.032214     -0.136419
    16   Atom        0.104074      0.032356     -0.136431
    17   Atom        0.096119     -0.279618      0.183499
    18   Atom        0.101784     -0.263841      0.162057
    19   Atom        0.030236     -0.162456      0.132219
    20   Atom       -0.181340      0.023433      0.157907
    21   Atom        0.031101      0.105885     -0.136986
    22   Atom        0.031009      0.106020     -0.137028
 --------------------------------------------------------
                        XY            XZ            YZ
 --------------------------------------------------------
     1   Atom        0.221048      0.000070     -0.000182
     2   Atom        1.116974      0.000024     -0.000721
     3   Atom        0.099996     -0.000024     -0.000048
     4   Atom        0.005174     -0.000010      0.000018
     5   Atom       -0.233483      0.000040     -0.000020
     6   Atom        0.160156     -0.000027      0.000006
     7   Atom       -0.008337      0.000015     -0.000054
     8   Atom        0.005032     -0.000002     -0.000004
     9   Atom       -0.006895     -0.000022     -0.000090
    10   Atom       -0.005067      0.000003     -0.000394
    11   Atom        2.693890     -0.000623      0.000140
    12   Atom       -0.653088      0.000483     -0.000782
    13   Atom        0.136232      0.000051     -0.000250
    14   Atom       -0.020134      0.000128      0.000001
    15   Atom       -0.055961      0.110158      0.171344
    16   Atom       -0.056016     -0.110329     -0.171241
    17   Atom        0.124365     -0.000024      0.000080
    18   Atom        0.123069     -0.000012      0.000040
    19   Atom        0.159046     -0.000018      0.000033
    20   Atom       -0.188676     -0.000119     -0.000080
    21   Atom        0.054632     -0.186727      0.081463
    22   Atom        0.054497      0.186820     -0.081245
 --------------------------------------------------------


 ---------------------------------------------------------------------------------
              Nuclear Quadrupole Coupling Constant in Principal Axis System
 ---------------------------------------------------------------------------------

       Atom             a.u.   MegaHertz   Gauss  10(-4) cm-1        Axes

              Baa    -7.2796   535.372   191.034   178.581  0.9671 -0.2544  0.0001
    11 Br(79) Bbb     3.6099  -265.483   -94.731   -88.556  0.0000  0.0004  1.0000
              Bcc     3.6698  -269.889   -96.303   -90.025  0.2544  0.9671 -0.0004
 

 ---------------------------------------------------------------------------------

 No NMR shielding tensors so no spin-rotation constants.
 Leave Link  601 at Thu Jan 16 22:39:23 2014, MaxMem=   235929600 cpu:         0.3
 FitSet:  NAtFit=    22 NAtPot=    22 NAtFrz=     0 MDM=    26 TotChg=   0.00000
 Merz-Kollman atomic radii used.
 Atom Element Radius
    1     6    1.50
    2     8    1.40
    3     6    1.50
    4     6    1.50
    5     6    1.50
    6     6    1.50
    7     6    1.50
    8     6    1.50
    9     6    1.50
   10     8    1.40
   11    35    2.30
   12     8    1.40
   13     6    1.50
   14     1    1.20
   15     1    1.20
   16     1    1.20
   17     1    1.20
   18     1    1.20
   19     1    1.20
   20     1    1.20
   21     1    1.20
   22     1    1.20
 Generate VDW surfaces: Layer= 5 Dens= 2 Start= 1.400 Inc= 0.179

 **********************************************************************

            Electrostatic Properties Using The SCF Density

 **********************************************************************

       Atomic Center    1 is at  -3.607056  1.825593  0.000201
       Atomic Center    2 is at  -3.143591  0.482905 -0.000214
       Atomic Center    3 is at  -1.816802  0.239906 -0.000148
       Atomic Center    4 is at  -0.853577  1.257814 -0.000217
       Atomic Center    5 is at   0.515062  0.954122 -0.000166
       Atomic Center    6 is at   0.920620 -0.393840 -0.000060
       Atomic Center    7 is at  -0.033031 -1.394215 -0.000014
       Atomic Center    8 is at  -1.408610 -1.117808 -0.000046
       Atomic Center    9 is at  -2.327261 -2.272719  0.000071
       Atomic Center   10 is at  -3.542324 -2.251892  0.000118
       Atomic Center   11 is at   2.773945 -0.831098  0.000041
       Atomic Center   12 is at   1.491929  1.886771 -0.000259
       Atomic Center   13 is at   1.137326  3.263911  0.000275
       Atomic Center   14 is at  -4.695566  1.757453  0.000508
       Atomic Center   15 is at  -3.276138  2.365656 -0.896247
       Atomic Center   16 is at  -3.275595  2.365279  0.896671
       Atomic Center   17 is at  -1.165693  2.292318 -0.000408
       Atomic Center   18 is at   0.290396 -2.431314  0.000084
       Atomic Center   19 is at  -1.782124 -3.245985  0.000185
       Atomic Center   20 is at   2.082116  3.808810  0.000618
       Atomic Center   21 is at   0.563326  3.529060 -0.896253
       Atomic Center   22 is at   0.563093  3.528301  0.896872
      ESP Fit Center   23 is at  -3.966177  1.203577  1.973555
      ESP Fit Center   24 is at  -4.902232  2.205891  1.608894
      ESP Fit Center   25 is at  -4.491023  0.805441  1.608894
      ESP Fit Center   26 is at  -4.173018  3.814741  0.364862
      ESP Fit Center   27 is at  -4.853363  3.475970  0.364862
      ESP Fit Center   28 is at  -4.173018  3.814741 -0.364460
      ESP Fit Center   29 is at  -4.853363  3.475970 -0.364460
      ESP Fit Center   30 is at  -4.902232  2.205891 -1.608492
      ESP Fit Center   31 is at  -4.491023  0.805441 -1.608492
      ESP Fit Center   32 is at  -3.966177  1.203577 -1.973154
      ESP Fit Center   33 is at  -3.143591  0.482905  1.959786
      ESP Fit Center   34 is at  -3.893651  0.482905  1.810590
      ESP Fit Center   35 is at  -3.518621 -0.166666  1.810590
      ESP Fit Center   36 is at  -4.529521  0.482905  1.385715
      ESP Fit Center   37 is at  -4.343841 -0.210060  1.385715
      ESP Fit Center   38 is at  -3.836556 -0.717345  1.385715
      ESP Fit Center   39 is at  -3.143591 -0.903024  1.385715
      ESP Fit Center   40 is at  -4.914825  0.106418  0.749846
      ESP Fit Center   41 is at  -4.608562 -0.581459  0.749846
      ESP Fit Center   42 is at  -4.810017 -0.548902 -0.000214
      ESP Fit Center   43 is at  -4.914825  0.106418 -0.750274
      ESP Fit Center   44 is at  -4.608562 -0.581459 -0.750274
      ESP Fit Center   45 is at  -4.529521  0.482905 -1.386143
      ESP Fit Center   46 is at  -4.343841 -0.210060 -1.386143
      ESP Fit Center   47 is at  -3.836556 -0.717345 -1.386143
      ESP Fit Center   48 is at  -3.143591 -0.903024 -1.386143
      ESP Fit Center   49 is at  -3.893651  0.482905 -1.811018
      ESP Fit Center   50 is at  -3.518621 -0.166666 -1.811018
      ESP Fit Center   51 is at  -3.143591  0.482905 -1.960214
      ESP Fit Center   52 is at  -1.816802  0.239906  2.099852
      ESP Fit Center   53 is at  -1.098560  0.239906  1.973206
      ESP Fit Center   54 is at  -1.457681  0.861922  1.973206
      ESP Fit Center   55 is at  -2.175923  0.861922  1.973206
      ESP Fit Center   56 is at  -2.535045  0.239906  1.973206
      ESP Fit Center   57 is at  -2.175923 -0.382110  1.973206
      ESP Fit Center   58 is at  -1.457681 -0.382110  1.973206
      ESP Fit Center   59 is at  -1.098560  0.239906 -1.973503
      ESP Fit Center   60 is at  -1.457681  0.861922 -1.973503
      ESP Fit Center   61 is at  -2.175923  0.861922 -1.973503
      ESP Fit Center   62 is at  -2.535045  0.239906 -1.973503
      ESP Fit Center   63 is at  -2.175923 -0.382110 -1.973503
      ESP Fit Center   64 is at  -1.457681 -0.382110 -1.973503
      ESP Fit Center   65 is at  -1.816802  0.239906 -2.100148
      ESP Fit Center   66 is at  -0.853577  1.257814  2.099783
      ESP Fit Center   67 is at  -0.494456  1.879830  1.973137
      ESP Fit Center   68 is at  -1.212698  1.879830  1.973137
      ESP Fit Center   69 is at  -1.571820  1.257814  1.973137
      ESP Fit Center   70 is at  -1.212698  0.635798  1.973137
      ESP Fit Center   71 is at  -0.494456  0.635798  1.973137
      ESP Fit Center   72 is at  -1.737544  2.277966  1.608476
      ESP Fit Center   73 is at  -1.737544  2.277966 -1.608910
      ESP Fit Center   74 is at  -0.494456  1.879830 -1.973572
      ESP Fit Center   75 is at  -1.212698  1.879830 -1.973572
      ESP Fit Center   76 is at  -1.571820  1.257814 -1.973572
      ESP Fit Center   77 is at  -1.212698  0.635798 -1.973572
      ESP Fit Center   78 is at  -0.494456  0.635798 -1.973572
      ESP Fit Center   79 is at  -0.853577  1.257814 -2.100217
      ESP Fit Center   80 is at   0.515062  0.954122  2.099834
      ESP Fit Center   81 is at   0.874183  1.576138  1.973188
      ESP Fit Center   82 is at   0.155941  1.576138  1.973188
      ESP Fit Center   83 is at   0.155941  0.332106  1.973188
      ESP Fit Center   84 is at   0.874183  1.576138 -1.973521
      ESP Fit Center   85 is at   0.155941  1.576138 -1.973521
      ESP Fit Center   86 is at   0.155941  0.332106 -1.973521
      ESP Fit Center   87 is at   0.515062  0.954122 -2.100166
      ESP Fit Center   88 is at   0.202377 -0.393840  1.973294
      ESP Fit Center   89 is at   0.202377 -0.393840 -1.973415
      ESP Fit Center   90 is at  -0.033031 -1.394215  2.099986
      ESP Fit Center   91 is at  -0.392152 -0.772199  1.973340
      ESP Fit Center   92 is at  -0.392152 -2.016231  1.973340
      ESP Fit Center   93 is at   0.326090 -2.016231  1.973340
      ESP Fit Center   94 is at  -0.916998 -2.414367  1.608679
      ESP Fit Center   95 is at  -0.225136 -2.730329  1.608679
      ESP Fit Center   96 is at  -0.916998 -2.414367 -1.608707
      ESP Fit Center   97 is at  -0.225136 -2.730329 -1.608707
      ESP Fit Center   98 is at  -0.392152 -0.772199 -1.973369
      ESP Fit Center   99 is at  -0.392152 -2.016231 -1.973369
      ESP Fit Center  100 is at   0.326090 -2.016231 -1.973369
      ESP Fit Center  101 is at  -0.033031 -1.394215 -2.100014
      ESP Fit Center  102 is at  -1.408610 -1.117808  2.099954
      ESP Fit Center  103 is at  -1.049489 -0.495792  1.973308
      ESP Fit Center  104 is at  -1.767731 -0.495792  1.973308
      ESP Fit Center  105 is at  -2.126853 -1.117808  1.973308
      ESP Fit Center  106 is at  -1.767731 -1.739824  1.973308
      ESP Fit Center  107 is at  -1.049489 -1.739824  1.973308
      ESP Fit Center  108 is at  -1.049489 -0.495792 -1.973401
      ESP Fit Center  109 is at  -1.767731 -0.495792 -1.973401
      ESP Fit Center  110 is at  -2.126853 -1.117808 -1.973401
      ESP Fit Center  111 is at  -1.767731 -1.739824 -1.973401
      ESP Fit Center  112 is at  -1.049489 -1.739824 -1.973401
      ESP Fit Center  113 is at  -1.408610 -1.117808 -2.100046
      ESP Fit Center  114 is at  -2.327261 -2.272719  2.100071
      ESP Fit Center  115 is at  -1.609019 -2.272719  1.973425
      ESP Fit Center  116 is at  -1.968140 -1.650703  1.973425
      ESP Fit Center  117 is at  -2.686382 -1.650703  1.973425
      ESP Fit Center  118 is at  -3.045504 -2.272719  1.973425
      ESP Fit Center  119 is at  -2.686382 -2.894735  1.973425
      ESP Fit Center  120 is at  -1.968140 -2.894735  1.973425
      ESP Fit Center  121 is at  -2.519366 -3.608833  1.608764
      ESP Fit Center  122 is at  -1.191692 -3.002505  1.608764
      ESP Fit Center  123 is at  -2.519366 -3.608833 -1.608622
      ESP Fit Center  124 is at  -1.191692 -3.002505 -1.608622
      ESP Fit Center  125 is at  -1.609019 -2.272719 -1.973284
      ESP Fit Center  126 is at  -1.968140 -1.650703 -1.973284
      ESP Fit Center  127 is at  -2.686382 -1.650703 -1.973284
      ESP Fit Center  128 is at  -3.045504 -2.272719 -1.973284
      ESP Fit Center  129 is at  -2.686382 -2.894735 -1.973284
      ESP Fit Center  130 is at  -1.968140 -2.894735 -1.973284
      ESP Fit Center  131 is at  -2.327261 -2.272719 -2.099929
      ESP Fit Center  132 is at  -3.542324 -2.251892  1.960118
      ESP Fit Center  133 is at  -3.167295 -1.602321  1.810922
      ESP Fit Center  134 is at  -3.917354 -1.602321  1.810922
      ESP Fit Center  135 is at  -4.292384 -2.251892  1.810922
      ESP Fit Center  136 is at  -3.917354 -2.901463  1.810922
      ESP Fit Center  137 is at  -3.542324 -0.865963  1.386047
      ESP Fit Center  138 is at  -4.235289 -1.051642  1.386047
      ESP Fit Center  139 is at  -4.742574 -1.558927  1.386047
      ESP Fit Center  140 is at  -4.928254 -2.251892  1.386047
      ESP Fit Center  141 is at  -4.742574 -2.944857  1.386047
      ESP Fit Center  142 is at  -4.235289 -3.452142  1.386047
      ESP Fit Center  143 is at  -3.542324 -3.637821  1.386047
      ESP Fit Center  144 is at  -5.007295 -1.187528  0.750178
      ESP Fit Center  145 is at  -5.313558 -1.875405  0.750178
      ESP Fit Center  146 is at  -5.313558 -2.628379  0.750178
      ESP Fit Center  147 is at  -5.007295 -3.316256  0.750178
      ESP Fit Center  148 is at  -4.447726 -3.820094  0.750178
      ESP Fit Center  149 is at  -3.731605 -4.052776  0.750178
      ESP Fit Center  150 is at  -4.723488 -0.687778  0.000118
      ESP Fit Center  151 is at  -5.208750 -1.220085  0.000118
      ESP Fit Center  152 is at  -5.468952 -1.891743  0.000118
      ESP Fit Center  153 is at  -5.468952 -2.612041  0.000118
      ESP Fit Center  154 is at  -5.208750 -3.283699  0.000118
      ESP Fit Center  155 is at  -4.723488 -3.816006  0.000118
      ESP Fit Center  156 is at  -4.078704 -4.137070  0.000118
      ESP Fit Center  157 is at  -3.361478 -4.203531  0.000118
      ESP Fit Center  158 is at  -5.007295 -1.187528 -0.749942
      ESP Fit Center  159 is at  -5.313558 -1.875405 -0.749942
      ESP Fit Center  160 is at  -5.313558 -2.628379 -0.749942
      ESP Fit Center  161 is at  -5.007295 -3.316256 -0.749942
      ESP Fit Center  162 is at  -4.447726 -3.820094 -0.749942
      ESP Fit Center  163 is at  -3.731605 -4.052776 -0.749942
      ESP Fit Center  164 is at  -3.542324 -0.865963 -1.385811
      ESP Fit Center  165 is at  -4.235289 -1.051642 -1.385811
      ESP Fit Center  166 is at  -4.742574 -1.558927 -1.385811
      ESP Fit Center  167 is at  -4.928254 -2.251892 -1.385811
      ESP Fit Center  168 is at  -4.742574 -2.944857 -1.385811
      ESP Fit Center  169 is at  -4.235289 -3.452142 -1.385811
      ESP Fit Center  170 is at  -3.542324 -3.637821 -1.385811
      ESP Fit Center  171 is at  -3.167295 -1.602321 -1.810686
      ESP Fit Center  172 is at  -3.917354 -1.602321 -1.810686
      ESP Fit Center  173 is at  -4.292384 -2.251892 -1.810686
      ESP Fit Center  174 is at  -3.917354 -2.901463 -1.810686
      ESP Fit Center  175 is at  -3.542324 -2.251892 -1.959882
      ESP Fit Center  176 is at   2.773945 -0.831098  3.220041
      ESP Fit Center  177 is at   3.490462 -0.831098  3.139309
      ESP Fit Center  178 is at   3.132203 -0.210576  3.139309
      ESP Fit Center  179 is at   2.415686 -0.210576  3.139309
      ESP Fit Center  180 is at   2.057427 -0.831098  3.139309
      ESP Fit Center  181 is at   2.415686 -1.451620  3.139309
      ESP Fit Center  182 is at   3.132203 -1.451620  3.139309
      ESP Fit Center  183 is at   4.171050 -0.831098  2.901161
      ESP Fit Center  184 is at   3.983874 -0.132545  2.901161
      ESP Fit Center  185 is at   3.472498  0.378831  2.901161
      ESP Fit Center  186 is at   2.773945  0.566008  2.901161
      ESP Fit Center  187 is at   2.075392  0.378831  2.901161
      ESP Fit Center  188 is at   1.564016 -0.132545  2.901161
      ESP Fit Center  189 is at   1.376839 -0.831098  2.901161
      ESP Fit Center  190 is at   1.564016 -1.529651  2.901161
      ESP Fit Center  191 is at   2.075392 -2.041027  2.901161
      ESP Fit Center  192 is at   2.773945 -2.228204  2.901161
      ESP Fit Center  193 is at   3.472498 -2.041027  2.901161
      ESP Fit Center  194 is at   3.983874 -1.529651  2.901161
      ESP Fit Center  195 is at   4.781582 -0.831098  2.517538
      ESP Fit Center  196 is at   4.646011 -0.105856  2.517538
      ESP Fit Center  197 is at   4.257607  0.521438  2.517538
      ESP Fit Center  198 is at   3.668826  0.966065  2.517538
      ESP Fit Center  199 is at   2.959186  1.167975  2.517538
      ESP Fit Center  200 is at   2.224529  1.099899  2.517538
      ESP Fit Center  201 is at   1.564073  0.771031  2.517538
      ESP Fit Center  202 is at   1.067017  0.225787  2.517538
      ESP Fit Center  203 is at   0.800491 -0.462196  2.517538
      ESP Fit Center  204 is at   0.800491 -1.200000  2.517538
      ESP Fit Center  205 is at   1.067017 -1.887983  2.517538
      ESP Fit Center  206 is at   1.564073 -2.433227  2.517538
      ESP Fit Center  207 is at   2.224529 -2.762095  2.517538
      ESP Fit Center  208 is at   2.959186 -2.830171  2.517538
      ESP Fit Center  209 is at   3.668826 -2.628261  2.517538
      ESP Fit Center  210 is at   4.257607 -2.183635  2.517538
      ESP Fit Center  211 is at   4.646011 -1.556340  2.517538
      ESP Fit Center  212 is at   5.291442 -0.831098  2.007678
      ESP Fit Center  213 is at   5.179597 -0.089053  2.007678
      ESP Fit Center  214 is at   4.853999  0.587059  2.007678
      ESP Fit Center  215 is at   4.343579  1.137161  2.007678
      ESP Fit Center  216 is at   3.693690  1.512374  2.007678
      ESP Fit Center  217 is at   2.962078  1.679360  2.007678
      ESP Fit Center  218 is at   2.213749  1.623280  2.007678
      ESP Fit Center  219 is at   1.515196  1.349119  2.007678
      ESP Fit Center  220 is at   0.505758  0.261203  2.007678
      ESP Fit Center  221 is at   0.284566 -0.455885  2.007678
      ESP Fit Center  222 is at   0.505758 -1.923399  2.007678
      ESP Fit Center  223 is at   0.928489 -2.543431  2.007678
      ESP Fit Center  224 is at   1.515196 -3.011315  2.007678
      ESP Fit Center  225 is at   2.213749 -3.285477  2.007678
      ESP Fit Center  226 is at   2.962078 -3.341556  2.007678
      ESP Fit Center  227 is at   3.693690 -3.174570  2.007678
      ESP Fit Center  228 is at   4.343579 -2.799357  2.007678
      ESP Fit Center  229 is at   4.853999 -2.249255  2.007678
      ESP Fit Center  230 is at   5.179597 -1.573143  2.007678
      ESP Fit Center  231 is at   5.675065 -0.831098  1.397147
      ESP Fit Center  232 is at   5.583920 -0.109619  1.397147
      ESP Fit Center  233 is at   5.316215  0.566527  1.397147
      ESP Fit Center  234 is at   4.888770  1.154855  1.397147
      ESP Fit Center  235 is at   4.328442  1.618398  1.397147
      ESP Fit Center  236 is at   3.670440  1.928031  1.397147
      ESP Fit Center  237 is at   2.956108  2.064297  1.397147
      ESP Fit Center  238 is at   1.538708 -3.456110  1.397147
      ESP Fit Center  239 is at   2.230329 -3.680831  1.397147
      ESP Fit Center  240 is at   2.956108 -3.726493  1.397147
      ESP Fit Center  241 is at   3.670440 -3.590227  1.397147
      ESP Fit Center  242 is at   4.328442 -3.280595  1.397147
      ESP Fit Center  243 is at   4.888770 -2.817051  1.397147
      ESP Fit Center  244 is at   5.316215 -2.228723  1.397147
      ESP Fit Center  245 is at   5.583920 -1.552577  1.397147
      ESP Fit Center  246 is at   5.913213 -0.831098  0.716558
      ESP Fit Center  247 is at   5.828593 -0.107133  0.716558
      ESP Fit Center  248 is at   5.579297  0.577803  0.716558
      ESP Fit Center  249 is at   5.178763  1.186784  0.716558
      ESP Fit Center  250 is at   4.648586  1.686981  0.716558
      ESP Fit Center  251 is at   4.017345  2.051428  0.716558
      ESP Fit Center  252 is at   3.319073  2.260477  0.716558
      ESP Fit Center  253 is at   1.873593 -3.838484  0.716558
      ESP Fit Center  254 is at   2.591413 -3.965055  0.716558
      ESP Fit Center  255 is at   3.319073 -3.922673  0.716558
      ESP Fit Center  256 is at   4.017345 -3.713624  0.716558
      ESP Fit Center  257 is at   4.648586 -3.349178  0.716558
      ESP Fit Center  258 is at   5.178763 -2.848981  0.716558
      ESP Fit Center  259 is at   5.579297 -2.239999  0.716558
      ESP Fit Center  260 is at   5.828593 -1.555063  0.716558
      ESP Fit Center  261 is at   5.993945 -0.831098  0.000041
      ESP Fit Center  262 is at   5.913213 -0.114581  0.000041
      ESP Fit Center  263 is at   5.675065  0.566008  0.000041
      ESP Fit Center  264 is at   5.291442  1.176539  0.000041
      ESP Fit Center  265 is at   4.781582  1.686399  0.000041
      ESP Fit Center  266 is at   4.171050  2.070022  0.000041
      ESP Fit Center  267 is at   3.490462  2.308170  0.000041
      ESP Fit Center  268 is at   1.376839 -3.732218  0.000041
      ESP Fit Center  269 is at   2.057427 -3.970366  0.000041
      ESP Fit Center  270 is at   2.773945 -4.051098  0.000041
      ESP Fit Center  271 is at   3.490462 -3.970366  0.000041
      ESP Fit Center  272 is at   4.171050 -3.732218  0.000041
      ESP Fit Center  273 is at   4.781582 -3.348595  0.000041
      ESP Fit Center  274 is at   5.291442 -2.838735  0.000041
      ESP Fit Center  275 is at   5.675065 -2.228204  0.000041
      ESP Fit Center  276 is at   5.913213 -1.547616  0.000041
      ESP Fit Center  277 is at   5.913213 -0.831098 -0.716476
      ESP Fit Center  278 is at   5.828593 -0.107133 -0.716476
      ESP Fit Center  279 is at   5.579297  0.577803 -0.716476
      ESP Fit Center  280 is at   5.178763  1.186784 -0.716476
      ESP Fit Center  281 is at   4.648586  1.686981 -0.716476
      ESP Fit Center  282 is at   4.017345  2.051428 -0.716476
      ESP Fit Center  283 is at   3.319073  2.260477 -0.716476
      ESP Fit Center  284 is at   1.873593 -3.838484 -0.716476
      ESP Fit Center  285 is at   2.591413 -3.965055 -0.716476
      ESP Fit Center  286 is at   3.319073 -3.922673 -0.716476
      ESP Fit Center  287 is at   4.017345 -3.713624 -0.716476
      ESP Fit Center  288 is at   4.648586 -3.349178 -0.716476
      ESP Fit Center  289 is at   5.178763 -2.848981 -0.716476
      ESP Fit Center  290 is at   5.579297 -2.239999 -0.716476
      ESP Fit Center  291 is at   5.828593 -1.555063 -0.716476
      ESP Fit Center  292 is at   5.675065 -0.831098 -1.397065
      ESP Fit Center  293 is at   5.583920 -0.109619 -1.397065
      ESP Fit Center  294 is at   5.316215  0.566527 -1.397065
      ESP Fit Center  295 is at   4.888770  1.154855 -1.397065
      ESP Fit Center  296 is at   4.328442  1.618398 -1.397065
      ESP Fit Center  297 is at   3.670440  1.928031 -1.397065
      ESP Fit Center  298 is at   2.956108  2.064297 -1.397065
      ESP Fit Center  299 is at   1.538708 -3.456110 -1.397065
      ESP Fit Center  300 is at   2.230329 -3.680831 -1.397065
      ESP Fit Center  301 is at   2.956108 -3.726493 -1.397065
      ESP Fit Center  302 is at   3.670440 -3.590227 -1.397065
      ESP Fit Center  303 is at   4.328442 -3.280595 -1.397065
      ESP Fit Center  304 is at   4.888770 -2.817051 -1.397065
      ESP Fit Center  305 is at   5.316215 -2.228723 -1.397065
      ESP Fit Center  306 is at   5.583920 -1.552577 -1.397065
      ESP Fit Center  307 is at   5.291442 -0.831098 -2.007596
      ESP Fit Center  308 is at   5.179597 -0.089053 -2.007596
      ESP Fit Center  309 is at   4.853999  0.587059 -2.007596
      ESP Fit Center  310 is at   4.343579  1.137161 -2.007596
      ESP Fit Center  311 is at   3.693690  1.512374 -2.007596
      ESP Fit Center  312 is at   2.962078  1.679360 -2.007596
      ESP Fit Center  313 is at   2.213749  1.623280 -2.007596
      ESP Fit Center  314 is at   1.515196  1.349119 -2.007596
      ESP Fit Center  315 is at   0.505758  0.261203 -2.007596
      ESP Fit Center  316 is at   0.284566 -0.455885 -2.007596
      ESP Fit Center  317 is at   0.505758 -1.923399 -2.007596
      ESP Fit Center  318 is at   0.928489 -2.543431 -2.007596
      ESP Fit Center  319 is at   1.515196 -3.011315 -2.007596
      ESP Fit Center  320 is at   2.213749 -3.285477 -2.007596
      ESP Fit Center  321 is at   2.962078 -3.341556 -2.007596
      ESP Fit Center  322 is at   3.693690 -3.174570 -2.007596
      ESP Fit Center  323 is at   4.343579 -2.799357 -2.007596
      ESP Fit Center  324 is at   4.853999 -2.249255 -2.007596
      ESP Fit Center  325 is at   5.179597 -1.573143 -2.007596
      ESP Fit Center  326 is at   4.781582 -0.831098 -2.517456
      ESP Fit Center  327 is at   4.646011 -0.105856 -2.517456
      ESP Fit Center  328 is at   4.257607  0.521438 -2.517456
      ESP Fit Center  329 is at   3.668826  0.966065 -2.517456
      ESP Fit Center  330 is at   2.959186  1.167975 -2.517456
      ESP Fit Center  331 is at   2.224529  1.099899 -2.517456
      ESP Fit Center  332 is at   1.564073  0.771031 -2.517456
      ESP Fit Center  333 is at   1.067017  0.225787 -2.517456
      ESP Fit Center  334 is at   0.800491 -0.462196 -2.517456
      ESP Fit Center  335 is at   0.800491 -1.200000 -2.517456
      ESP Fit Center  336 is at   1.067017 -1.887983 -2.517456
      ESP Fit Center  337 is at   1.564073 -2.433227 -2.517456
      ESP Fit Center  338 is at   2.224529 -2.762095 -2.517456
      ESP Fit Center  339 is at   2.959186 -2.830171 -2.517456
      ESP Fit Center  340 is at   3.668826 -2.628261 -2.517456
      ESP Fit Center  341 is at   4.257607 -2.183635 -2.517456
      ESP Fit Center  342 is at   4.646011 -1.556340 -2.517456
      ESP Fit Center  343 is at   4.171050 -0.831098 -2.901079
      ESP Fit Center  344 is at   3.983874 -0.132545 -2.901079
      ESP Fit Center  345 is at   3.472498  0.378831 -2.901079
      ESP Fit Center  346 is at   2.773945  0.566008 -2.901079
      ESP Fit Center  347 is at   2.075392  0.378831 -2.901079
      ESP Fit Center  348 is at   1.564016 -0.132545 -2.901079
      ESP Fit Center  349 is at   1.376839 -0.831098 -2.901079
      ESP Fit Center  350 is at   1.564016 -1.529651 -2.901079
      ESP Fit Center  351 is at   2.075392 -2.041027 -2.901079
      ESP Fit Center  352 is at   2.773945 -2.228204 -2.901079
      ESP Fit Center  353 is at   3.472498 -2.041027 -2.901079
      ESP Fit Center  354 is at   3.983874 -1.529651 -2.901079
      ESP Fit Center  355 is at   3.490462 -0.831098 -3.139227
      ESP Fit Center  356 is at   3.132203 -0.210576 -3.139227
      ESP Fit Center  357 is at   2.415686 -0.210576 -3.139227
      ESP Fit Center  358 is at   2.057427 -0.831098 -3.139227
      ESP Fit Center  359 is at   2.415686 -1.451620 -3.139227
      ESP Fit Center  360 is at   3.132203 -1.451620 -3.139227
      ESP Fit Center  361 is at   2.773945 -0.831098 -3.219959
      ESP Fit Center  362 is at   1.491929  1.886771  1.959741
      ESP Fit Center  363 is at   2.241988  1.886771  1.810545
      ESP Fit Center  364 is at   2.692179  2.579736  1.385670
      ESP Fit Center  365 is at   3.146180  2.623291  0.749801
      ESP Fit Center  366 is at   3.319574  2.594805 -0.000259
      ESP Fit Center  367 is at   3.146180  2.623291 -0.750319
      ESP Fit Center  368 is at   2.692179  2.579736 -1.386188
      ESP Fit Center  369 is at   2.241988  1.886771 -1.811063
      ESP Fit Center  370 is at   1.491929  1.886771 -1.960259
      ESP Fit Center  371 is at   1.855568  3.263911  1.973629
      ESP Fit Center  372 is at   2.487180  3.263911  1.608968
      ESP Fit Center  373 is at   1.328146  5.323185  0.364936
      ESP Fit Center  374 is at   0.571364  5.253059  0.364936
      ESP Fit Center  375 is at   1.328146  5.323185 -0.364386
      ESP Fit Center  376 is at   0.571364  5.253059 -0.364386
      ESP Fit Center  377 is at   2.487180  3.263911 -1.608418
      ESP Fit Center  378 is at   1.855568  3.263911 -1.973080
      ESP Fit Center  379 is at  -5.060029  2.388720  1.514136
      ESP Fit Center  380 is at  -5.424491  1.757453  1.514136
      ESP Fit Center  381 is at  -5.060029  1.126186  1.514136
      ESP Fit Center  382 is at  -5.101453  3.006644  1.047971
      ESP Fit Center  383 is at  -5.758191  2.529495  1.047971
      ESP Fit Center  384 is at  -6.009043  1.757453  1.047971
      ESP Fit Center  385 is at  -5.758191  0.985411  1.047971
      ESP Fit Center  386 is at  -5.101453  0.508262  1.047971
      ESP Fit Center  387 is at  -5.276366  3.288896  0.374343
      ESP Fit Center  388 is at  -5.921536  2.843568  0.374343
      ESP Fit Center  389 is at  -6.285851  2.149423  0.374343
      ESP Fit Center  390 is at  -6.285851  1.365483  0.374343
      ESP Fit Center  391 is at  -5.921536  0.671338  0.374343
      ESP Fit Center  392 is at  -5.276366  0.226010  0.374343
      ESP Fit Center  393 is at  -5.276366  3.288896 -0.373327
      ESP Fit Center  394 is at  -5.921536  2.843568 -0.373327
      ESP Fit Center  395 is at  -6.285851  2.149423 -0.373327
      ESP Fit Center  396 is at  -6.285851  1.365483 -0.373327
      ESP Fit Center  397 is at  -5.921536  0.671338 -0.373327
      ESP Fit Center  398 is at  -5.276366  0.226010 -0.373327
      ESP Fit Center  399 is at  -5.101453  3.006644 -1.046955
      ESP Fit Center  400 is at  -5.758191  2.529495 -1.046955
      ESP Fit Center  401 is at  -6.009043  1.757453 -1.046955
      ESP Fit Center  402 is at  -5.758191  0.985411 -1.046955
      ESP Fit Center  403 is at  -5.101453  0.508262 -1.046955
      ESP Fit Center  404 is at  -5.060029  2.388720 -1.513120
      ESP Fit Center  405 is at  -5.424491  1.757453 -1.513120
      ESP Fit Center  406 is at  -5.060029  1.126186 -1.513120
      ESP Fit Center  407 is at  -2.345717  3.713604 -0.522412
      ESP Fit Center  408 is at  -3.078714  3.991593 -0.522412
      ESP Fit Center  409 is at  -3.856938  3.897099 -0.522412
      ESP Fit Center  410 is at  -2.345717  3.713604 -1.270082
      ESP Fit Center  411 is at  -3.078714  3.991593 -1.270082
      ESP Fit Center  412 is at  -3.856938  3.897099 -1.270082
      ESP Fit Center  413 is at  -4.502108  3.451771 -1.270082
      ESP Fit Center  414 is at  -1.962661  2.365656 -1.943710
      ESP Fit Center  415 is at  -2.213513  3.137698 -1.943710
      ESP Fit Center  416 is at  -2.870251  3.614847 -1.943710
      ESP Fit Center  417 is at  -3.682025  3.614847 -1.943710
      ESP Fit Center  418 is at  -4.338763  3.137698 -1.943710
      ESP Fit Center  419 is at  -4.589615  2.365656 -1.943710
      ESP Fit Center  420 is at  -2.870251  1.116465 -1.943710
      ESP Fit Center  421 is at  -2.213513  1.593614 -1.943710
      ESP Fit Center  422 is at  -2.547213  2.365656 -2.409875
      ESP Fit Center  423 is at  -2.911676  2.996923 -2.409875
      ESP Fit Center  424 is at  -3.640601  2.996923 -2.409875
      ESP Fit Center  425 is at  -4.005063  2.365656 -2.409875
      ESP Fit Center  426 is at  -3.640601  1.734389 -2.409875
      ESP Fit Center  427 is at  -2.911676  1.734389 -2.409875
      ESP Fit Center  428 is at  -3.276138  2.365656 -2.576247
      ESP Fit Center  429 is at  -3.275595  2.365279  2.576671
      ESP Fit Center  430 is at  -2.546670  2.365279  2.410299
      ESP Fit Center  431 is at  -2.911133  2.996546  2.410299
      ESP Fit Center  432 is at  -3.640058  2.996546  2.410299
      ESP Fit Center  433 is at  -4.004520  2.365279  2.410299
      ESP Fit Center  434 is at  -3.640058  1.734012  2.410299
      ESP Fit Center  435 is at  -2.911133  1.734012  2.410299
      ESP Fit Center  436 is at  -1.962118  2.365279  1.944134
      ESP Fit Center  437 is at  -2.212970  3.137321  1.944134
      ESP Fit Center  438 is at  -2.869708  3.614470  1.944134
      ESP Fit Center  439 is at  -3.681482  3.614470  1.944134
      ESP Fit Center  440 is at  -4.338220  3.137321  1.944134
      ESP Fit Center  441 is at  -4.589072  2.365279  1.944134
      ESP Fit Center  442 is at  -2.869708  1.116088  1.944134
      ESP Fit Center  443 is at  -2.212970  1.593237  1.944134
      ESP Fit Center  444 is at  -2.345174  3.713227  1.270506
      ESP Fit Center  445 is at  -3.078171  3.991216  1.270506
      ESP Fit Center  446 is at  -3.856395  3.896722  1.270506
      ESP Fit Center  447 is at  -4.501565  3.451394  1.270506
      ESP Fit Center  448 is at  -2.345174  3.713227  0.522836
      ESP Fit Center  449 is at  -3.078171  3.991216  0.522836
      ESP Fit Center  450 is at  -3.856395  3.896722  0.522836
      ESP Fit Center  451 is at  -1.530156  2.923585  1.513220
      ESP Fit Center  452 is at  -1.571580  3.541509  1.047055
      ESP Fit Center  453 is at  -1.746493  3.823761  0.373427
      ESP Fit Center  454 is at  -1.746493  3.823761 -0.374243
      ESP Fit Center  455 is at  -1.571580  3.541509 -1.047871
      ESP Fit Center  456 is at  -1.530156  2.923585 -1.514036
      ESP Fit Center  457 is at  -0.074067 -3.062581  1.513712
      ESP Fit Center  458 is at   0.654858 -3.062581  1.513712
      ESP Fit Center  459 is at  -0.115491 -3.680505  1.047547
      ESP Fit Center  460 is at   0.696282 -3.680505  1.047547
      ESP Fit Center  461 is at  -0.290404 -3.962757  0.373919
      ESP Fit Center  462 is at   0.487820 -4.057251  0.373919
      ESP Fit Center  463 is at   1.220817 -3.779262  0.373919
      ESP Fit Center  464 is at  -0.290404 -3.962757 -0.373751
      ESP Fit Center  465 is at   0.487820 -4.057251 -0.373751
      ESP Fit Center  466 is at   1.220817 -3.779262 -0.373751
      ESP Fit Center  467 is at  -0.115491 -3.680505 -1.047379
      ESP Fit Center  468 is at   0.696282 -3.680505 -1.047379
      ESP Fit Center  469 is at  -0.074067 -3.062581 -1.513544
      ESP Fit Center  470 is at   0.654858 -3.062581 -1.513544
      ESP Fit Center  471 is at  -1.053200 -3.245985  1.513813
      ESP Fit Center  472 is at  -2.146587 -3.877252  1.513813
      ESP Fit Center  473 is at  -1.417662 -3.877252  1.513813
      ESP Fit Center  474 is at  -2.844749 -4.018027  1.047648
      ESP Fit Center  475 is at  -2.188011 -4.495176  1.047648
      ESP Fit Center  476 is at  -1.376238 -4.495176  1.047648
      ESP Fit Center  477 is at  -0.719499 -4.018027  1.047648
      ESP Fit Center  478 is at  -3.008094 -4.332100  0.374020
      ESP Fit Center  479 is at  -2.362924 -4.777428  0.374020
      ESP Fit Center  480 is at  -1.584700 -4.871922  0.374020
      ESP Fit Center  481 is at  -0.851703 -4.593933  0.374020
      ESP Fit Center  482 is at  -0.331855 -4.007145  0.374020
      ESP Fit Center  483 is at  -3.008094 -4.332100 -0.373650
      ESP Fit Center  484 is at  -2.362924 -4.777428 -0.373650
      ESP Fit Center  485 is at  -1.584700 -4.871922 -0.373650
      ESP Fit Center  486 is at  -0.851703 -4.593933 -0.373650
      ESP Fit Center  487 is at  -0.331855 -4.007145 -0.373650
      ESP Fit Center  488 is at  -2.844749 -4.018027 -1.047278
      ESP Fit Center  489 is at  -2.188011 -4.495176 -1.047278
      ESP Fit Center  490 is at  -1.376238 -4.495176 -1.047278
      ESP Fit Center  491 is at  -0.719499 -4.018027 -1.047278
      ESP Fit Center  492 is at  -1.053200 -3.245985 -1.513443
      ESP Fit Center  493 is at  -2.146587 -3.877252 -1.513443
      ESP Fit Center  494 is at  -1.417662 -3.877252 -1.513443
      ESP Fit Center  495 is at   2.811041  3.808810  1.514246
      ESP Fit Center  496 is at   2.446578  4.440077  1.514246
      ESP Fit Center  497 is at   3.395593  3.808810  1.048081
      ESP Fit Center  498 is at   3.144741  4.580852  1.048081
      ESP Fit Center  499 is at   2.488003  5.058001  1.048081
      ESP Fit Center  500 is at   1.676229  5.058001  1.048081
      ESP Fit Center  501 is at   3.144741  3.036768  1.048081
      ESP Fit Center  502 is at   3.719995  3.808810  0.374453
      ESP Fit Center  503 is at   3.532386  4.569970  0.374453
      ESP Fit Center  504 is at   3.012537  5.156758  0.374453
      ESP Fit Center  505 is at   2.279540  5.434747  0.374453
      ESP Fit Center  506 is at   1.501316  5.340253  0.374453
      ESP Fit Center  507 is at   3.532386  3.047650  0.374453
      ESP Fit Center  508 is at   3.719995  3.808810 -0.373217
      ESP Fit Center  509 is at   3.532386  4.569970 -0.373217
      ESP Fit Center  510 is at   3.012537  5.156758 -0.373217
      ESP Fit Center  511 is at   2.279540  5.434747 -0.373217
      ESP Fit Center  512 is at   1.501316  5.340253 -0.373217
      ESP Fit Center  513 is at   3.532386  3.047650 -0.373217
      ESP Fit Center  514 is at   3.395593  3.808810 -1.046845
      ESP Fit Center  515 is at   3.144741  4.580852 -1.046845
      ESP Fit Center  516 is at   2.488003  5.058001 -1.046845
      ESP Fit Center  517 is at   1.676229  5.058001 -1.046845
      ESP Fit Center  518 is at   3.144741  3.036768 -1.046845
      ESP Fit Center  519 is at   2.811041  3.808810 -1.513010
      ESP Fit Center  520 is at   2.446578  4.440077 -1.513010
      ESP Fit Center  521 is at  -0.017474  5.060503 -0.522418
      ESP Fit Center  522 is at  -0.662644  4.615175 -0.522418
      ESP Fit Center  523 is at  -1.026959  3.921030 -0.522418
      ESP Fit Center  524 is at   0.760750  5.154997 -1.270088
      ESP Fit Center  525 is at  -0.017474  5.060503 -1.270088
      ESP Fit Center  526 is at  -0.662644  4.615175 -1.270088
      ESP Fit Center  527 is at  -1.026959  3.921030 -1.270088
      ESP Fit Center  528 is at   1.625951  4.301102 -1.943716
      ESP Fit Center  529 is at   0.969213  4.778251 -1.943716
      ESP Fit Center  530 is at   0.157439  4.778251 -1.943716
      ESP Fit Center  531 is at  -0.499299  4.301102 -1.943716
      ESP Fit Center  532 is at  -0.750151  3.529060 -1.943716
      ESP Fit Center  533 is at  -0.499299  2.757018 -1.943716
      ESP Fit Center  534 is at   0.157439  2.279869 -1.943716
      ESP Fit Center  535 is at   0.969213  2.279869 -1.943716
      ESP Fit Center  536 is at   1.292251  3.529060 -2.409881
      ESP Fit Center  537 is at   0.927788  4.160327 -2.409881
      ESP Fit Center  538 is at   0.198864  4.160327 -2.409881
      ESP Fit Center  539 is at  -0.165599  3.529060 -2.409881
      ESP Fit Center  540 is at   0.198864  2.897793 -2.409881
      ESP Fit Center  541 is at   0.927788  2.897793 -2.409881
      ESP Fit Center  542 is at   0.563326  3.529060 -2.576253
      ESP Fit Center  543 is at   0.563093  3.528301  2.576872
      ESP Fit Center  544 is at   1.292018  3.528301  2.410500
      ESP Fit Center  545 is at   0.927555  4.159568  2.410500
      ESP Fit Center  546 is at   0.198631  4.159568  2.410500
      ESP Fit Center  547 is at  -0.165832  3.528301  2.410500
      ESP Fit Center  548 is at   0.198631  2.897034  2.410500
      ESP Fit Center  549 is at   0.927555  2.897034  2.410500
      ESP Fit Center  550 is at   1.625718  4.300343  1.944335
      ESP Fit Center  551 is at   0.968980  4.777492  1.944335
      ESP Fit Center  552 is at   0.157206  4.777492  1.944335
      ESP Fit Center  553 is at  -0.499532  4.300343  1.944335
      ESP Fit Center  554 is at  -0.750384  3.528301  1.944335
      ESP Fit Center  555 is at  -0.499532  2.756259  1.944335
      ESP Fit Center  556 is at   0.157206  2.279110  1.944335
      ESP Fit Center  557 is at   0.968980  2.279110  1.944335
      ESP Fit Center  558 is at   0.760517  5.154238  1.270707
      ESP Fit Center  559 is at  -0.017707  5.059744  1.270707
      ESP Fit Center  560 is at  -0.662877  4.614416  1.270707
      ESP Fit Center  561 is at  -1.027192  3.920271  1.270707
      ESP Fit Center  562 is at  -0.017707  5.059744  0.523037
      ESP Fit Center  563 is at  -0.662877  4.614416  0.523037
      ESP Fit Center  564 is at  -1.027192  3.920271  0.523037
      ESP Fit Center  565 is at  -3.972983  1.191789  2.252615
      ESP Fit Center  566 is at  -4.942736  2.217784  1.916219
      ESP Fit Center  567 is at  -4.942736  1.433402  1.916219
      ESP Fit Center  568 is at  -4.518667  0.773538  1.916219
      ESP Fit Center  569 is at  -4.961885  3.180422  1.392269
      ESP Fit Center  570 is at  -4.961885  0.470764  1.392269
      ESP Fit Center  571 is at  -4.511841  3.888294  0.732055
      ESP Fit Center  572 is at  -5.132575  3.482748  0.732055
      ESP Fit Center  573 is at  -2.875203  4.078007  0.000201
      ESP Fit Center  574 is at  -3.607056  4.193921  0.000201
      ESP Fit Center  575 is at  -4.338910  4.078007  0.000201
      ESP Fit Center  576 is at  -4.999125  3.741611  0.000201
      ESP Fit Center  577 is at  -4.511841  3.888294 -0.731653
      ESP Fit Center  578 is at  -5.132575  3.482748 -0.731653
      ESP Fit Center  579 is at  -4.961885  3.180422 -1.391867
      ESP Fit Center  580 is at  -4.961885  0.470764 -1.391867
      ESP Fit Center  581 is at  -4.942736  2.217784 -1.915817
      ESP Fit Center  582 is at  -4.942736  1.433402 -1.915817
      ESP Fit Center  583 is at  -4.518667  0.773538 -1.915817
      ESP Fit Center  584 is at  -3.972983  1.191789 -2.252213
      ESP Fit Center  585 is at  -3.143591  0.482905  2.210226
      ESP Fit Center  586 is at  -3.899606  0.482905  2.076920
      ESP Fit Center  587 is at  -3.521599 -0.171823  2.076920
      ESP Fit Center  588 is at  -4.374078 -0.227517  1.693081
      ESP Fit Center  589 is at  -3.854013 -0.747581  1.693081
      ESP Fit Center  590 is at  -4.912171 -0.249665  1.105006
      ESP Fit Center  591 is at  -5.189169 -0.261624  0.383625
      ESP Fit Center  592 is at  -5.189169 -0.261624 -0.384053
      ESP Fit Center  593 is at  -4.912171 -0.249665 -1.105434
      ESP Fit Center  594 is at  -4.374078 -0.227517 -1.693509
      ESP Fit Center  595 is at  -3.854013 -0.747581 -1.693509
      ESP Fit Center  596 is at  -3.899606  0.482905 -2.077348
      ESP Fit Center  597 is at  -3.521599 -0.171823 -2.077348
      ESP Fit Center  598 is at  -3.143591  0.482905 -2.210654
      ESP Fit Center  599 is at  -1.816802  0.239906  2.368180
      ESP Fit Center  600 is at  -1.084949  0.239906  2.252266
      ESP Fit Center  601 is at  -2.182729  0.873710  2.252266
      ESP Fit Center  602 is at  -2.548656  0.239906  2.252266
      ESP Fit Center  603 is at  -2.182729 -0.393898  2.252266
      ESP Fit Center  604 is at  -1.084949  0.239906 -2.252562
      ESP Fit Center  605 is at  -2.182729  0.873710 -2.252562
      ESP Fit Center  606 is at  -2.548656  0.239906 -2.252562
      ESP Fit Center  607 is at  -2.182729 -0.393898 -2.252562
      ESP Fit Center  608 is at  -1.816802  0.239906 -2.368476
      ESP Fit Center  609 is at  -0.853577  1.257814  2.368111
      ESP Fit Center  610 is at  -0.487650  1.891618  2.252197
      ESP Fit Center  611 is at  -1.219504  1.891618  2.252197
      ESP Fit Center  612 is at  -1.585431  1.257814  2.252197
      ESP Fit Center  613 is at  -0.487650  0.624010  2.252197
      ESP Fit Center  614 is at  -1.051689  2.635713  1.915801
      ESP Fit Center  615 is at  -1.051689  2.635713 -1.916235
      ESP Fit Center  616 is at  -0.487650  1.891618 -2.252631
      ESP Fit Center  617 is at  -1.219504  1.891618 -2.252631
      ESP Fit Center  618 is at  -1.585431  1.257814 -2.252631
      ESP Fit Center  619 is at  -0.487650  0.624010 -2.252631
      ESP Fit Center  620 is at  -0.853577  1.257814 -2.368545
      ESP Fit Center  621 is at   0.515062  0.954122  2.368162
      ESP Fit Center  622 is at   0.880989  1.587926  2.252248
      ESP Fit Center  623 is at   0.149135  1.587926  2.252248
      ESP Fit Center  624 is at   0.149135  0.320318  2.252248
      ESP Fit Center  625 is at   0.880989  1.587926 -2.252580
      ESP Fit Center  626 is at   0.149135  1.587926 -2.252580
      ESP Fit Center  627 is at   0.149135  0.320318 -2.252580
      ESP Fit Center  628 is at   0.515062  0.954122 -2.368494
      ESP Fit Center  629 is at  -0.033031 -1.394215  2.368314
      ESP Fit Center  630 is at  -0.398958 -0.760411  2.252400
      ESP Fit Center  631 is at  -0.398958 -2.028019  2.252400
      ESP Fit Center  632 is at  -0.944642 -2.446270  1.916004
      ESP Fit Center  633 is at  -0.231143 -2.772114  1.916004
      ESP Fit Center  634 is at  -0.944642 -2.446270 -1.916032
      ESP Fit Center  635 is at  -0.231143 -2.772114 -1.916032
      ESP Fit Center  636 is at  -0.398958 -0.760411 -2.252428
      ESP Fit Center  637 is at  -0.398958 -2.028019 -2.252428
      ESP Fit Center  638 is at  -0.033031 -1.394215 -2.368342
      ESP Fit Center  639 is at  -1.408610 -1.117808  2.368282
      ESP Fit Center  640 is at  -1.042683 -0.484004  2.252368
      ESP Fit Center  641 is at  -2.140464 -1.117808  2.252368
      ESP Fit Center  642 is at  -1.774537 -1.751612  2.252368
      ESP Fit Center  643 is at  -1.042683 -1.751612  2.252368
      ESP Fit Center  644 is at  -1.042683 -0.484004 -2.252460
      ESP Fit Center  645 is at  -2.140464 -1.117808 -2.252460
      ESP Fit Center  646 is at  -1.774537 -1.751612 -2.252460
      ESP Fit Center  647 is at  -1.042683 -1.751612 -2.252460
      ESP Fit Center  648 is at  -1.408610 -1.117808 -2.368374
      ESP Fit Center  649 is at  -2.327261 -2.272719  2.368399
      ESP Fit Center  650 is at  -1.595408 -2.272719  2.252485
      ESP Fit Center  651 is at  -1.961334 -1.638915  2.252485
      ESP Fit Center  652 is at  -2.693188 -1.638915  2.252485
      ESP Fit Center  653 is at  -3.059115 -2.272719  2.252485
      ESP Fit Center  654 is at  -2.693188 -2.906523  2.252485
      ESP Fit Center  655 is at  -1.961334 -2.906523  2.252485
      ESP Fit Center  656 is at  -3.238872 -3.324774  1.916089
      ESP Fit Center  657 is at  -2.525373 -3.650618  1.916089
      ESP Fit Center  658 is at  -1.748975 -3.538989  1.916089
      ESP Fit Center  659 is at  -1.156179 -3.025328  1.916089
      ESP Fit Center  660 is at  -3.060490 -4.042889  1.392139
      ESP Fit Center  661 is at  -3.232046 -4.335420  0.731925
      ESP Fit Center  662 is at  -3.232046 -4.335420 -0.731783
      ESP Fit Center  663 is at  -3.060490 -4.042889 -1.391997
      ESP Fit Center  664 is at  -3.238872 -3.324774 -1.915947
      ESP Fit Center  665 is at  -2.525373 -3.650618 -1.915947
      ESP Fit Center  666 is at  -1.748975 -3.538989 -1.915947
      ESP Fit Center  667 is at  -1.156179 -3.025328 -1.915947
      ESP Fit Center  668 is at  -1.595408 -2.272719 -2.252343
[...]
 2822 Fit      -0.029159
 2823 Fit      -0.026150
 2824 Fit      -0.021397
 2825 Fit      -0.028505
 2826 Fit      -0.029937
 2827 Fit      -0.030726
 2828 Fit      -0.030941
 2829 Fit      -0.030510
 2830 Fit      -0.029202
 2831 Fit      -0.026681
 2832 Fit      -0.022576
 2833 Fit      -0.016564
 2834 Fit      -0.028377
 2835 Fit      -0.029332
 2836 Fit      -0.029701
 2837 Fit      -0.029358
 2838 Fit      -0.028061
 2839 Fit      -0.025452
 2840 Fit      -0.021162
 2841 Fit      -0.025277
 2842 Fit      -0.026644
 2843 Fit      -0.027590
 2844 Fit      -0.027795
 2845 Fit      -0.026997
 2846 Fit      -0.024842
 2847 Fit      -0.020948
 2848 Fit      -0.018483
 2849 Fit      -0.022360
 2850 Fit      -0.024468
 2851 Fit      -0.025228
 2852 Fit      -0.024450
 2853 Fit      -0.021718
 2854 Fit      -0.016838
 2855 Fit      -0.019888
 2856 Fit      -0.021745
 2857 Fit      -0.019489
 2858 Fit      -0.017214
 2859 Fit      -0.004399
 2860 Fit      -0.004650
 2861 Fit      -0.004251
 2862 Fit      -0.003860
 2863 Fit      -0.004043
 2864 Fit      -0.004411
 2865 Fit      -0.004683
 2866 Fit      -0.004761
 2867 Fit      -0.004501
 2868 Fit      -0.004001
 2869 Fit      -0.003361
 2870 Fit      -0.002978
 2871 Fit      -0.003173
 2872 Fit      -0.003648
 2873 Fit      -0.003977
 2874 Fit      -0.004235
 2875 Fit      -0.004539
 2876 Fit      -0.004771
 2877 Fit      -0.004842
 2878 Fit      -0.004724
 2879 Fit      -0.004568
 2880 Fit      -0.004243
 2881 Fit      -0.003670
 2882 Fit      -0.002871
 2883 Fit      -0.002053
 2884 Fit      -0.001620
 2885 Fit      -0.001884
 2886 Fit      -0.002642
 2887 Fit      -0.003320
 2888 Fit      -0.003584
 2889 Fit      -0.003634
 2890 Fit      -0.003804
 2891 Fit      -0.004142
 2892 Fit      -0.004488
 2893 Fit      -0.004713
 2894 Fit      -0.004799
 2895 Fit      -0.004791
 2896 Fit      -0.004552
 2897 Fit      -0.004475
 2898 Fit      -0.004292
 2899 Fit      -0.003913
 2900 Fit      -0.003264
 2901 Fit      -0.002324
 2902 Fit      -0.001186
 2903 Fit      -0.000112
 2904 Fit       0.000440
 2905 Fit       0.000082
 2906 Fit      -0.001052
 2907 Fit      -0.002353
 2908 Fit      -0.003206
 2909 Fit      -0.003340
 2910 Fit      -0.003050
 2911 Fit      -0.002865
 2912 Fit      -0.003035
 2913 Fit      -0.003468
 2914 Fit      -0.003953
 2915 Fit      -0.004332
 2916 Fit      -0.004549
 2917 Fit      -0.004627
 2918 Fit      -0.004624
 2919 Fit      -0.004593
 2920 Fit      -0.004278
 2921 Fit      -0.004258
 2922 Fit      -0.004169
 2923 Fit      -0.003925
 2924 Fit      -0.003431
 2925 Fit      -0.002604
 2926 Fit      -0.001408
 2927 Fit       0.000112
 2928 Fit       0.001790
 2929 Fit       0.003201
 2930 Fit       0.003609
 2931 Fit       0.002563
 2932 Fit       0.000537
 2933 Fit      -0.001571
 2934 Fit      -0.003121
 2935 Fit      -0.003592
 2936 Fit      -0.002959
 2937 Fit      -0.002017
 2938 Fit      -0.001527
 2939 Fit      -0.001672
 2940 Fit      -0.002251
 2941 Fit      -0.002970
 2942 Fit      -0.003605
 2943 Fit      -0.004052
 2944 Fit      -0.004296
 2945 Fit      -0.004379
 2946 Fit      -0.004367
 2947 Fit      -0.004324
 2948 Fit      -0.004291
 2949 Fit      -0.003945
 2950 Fit      -0.003971
 2951 Fit      -0.003951
 2952 Fit      -0.003801
 2953 Fit      -0.003417
 2954 Fit      -0.002684
 2955 Fit      -0.001500
 2956 Fit       0.000188
 2957 Fit       0.002346
 2958 Fit       0.004873
 2959 Fit       0.007725
 2960 Fit      -0.001964
 2961 Fit      -0.002785
 2962 Fit      -0.000618
 2963 Fit       0.000581
 2964 Fit       0.000635
 2965 Fit      -0.000103
 2966 Fit      -0.001177
 2967 Fit      -0.002235
 2968 Fit      -0.003083
 2969 Fit      -0.003660
 2970 Fit      -0.003979
 2971 Fit      -0.004097
 2972 Fit      -0.004087
 2973 Fit      -0.004021
 2974 Fit      -0.003958
 2975 Fit      -0.003931
 2976 Fit      -0.003599
 2977 Fit      -0.003661
 2978 Fit      -0.003696
 2979 Fit      -0.003626
 2980 Fit      -0.003350
 2981 Fit      -0.002741
 2982 Fit      -0.001645
 2983 Fit       0.000099
 2984 Fit       0.002585
 2985 Fit       0.004400
 2986 Fit       0.003267
 2987 Fit       0.001610
 2988 Fit      -0.000065
 2989 Fit      -0.001482
 2990 Fit      -0.002544
 2991 Fit      -0.003251
 2992 Fit      -0.003651
 2993 Fit      -0.003816
 2994 Fit      -0.003822
 2995 Fit      -0.003744
 2996 Fit      -0.003647
 2997 Fit      -0.003579
 2998 Fit      -0.003563
 2999 Fit      -0.003290
 3000 Fit      -0.003378
 3001 Fit      -0.003451
 3002 Fit      -0.003434
 3003 Fit      -0.003229
 3004 Fit      -0.002700
 3005 Fit      -0.001658
 3006 Fit       0.000168
 3007 Fit       0.003132
 3008 Fit       0.006829
 3009 Fit       0.003982
 3010 Fit       0.001530
 3011 Fit      -0.000388
 3012 Fit      -0.001782
 3013 Fit      -0.002715
 3014 Fit      -0.003272
 3015 Fit      -0.003539
 3016 Fit      -0.003601
 3017 Fit      -0.003539
 3018 Fit      -0.003423
 3019 Fit      -0.003310
 3020 Fit      -0.003241
 3021 Fit      -0.003235
 3022 Fit      -0.003058
 3023 Fit      -0.003166
 3024 Fit      -0.003264
 3025 Fit      -0.003273
 3026 Fit      -0.003085
 3027 Fit      -0.002545
 3028 Fit      -0.001412
 3029 Fit       0.000725
 3030 Fit       0.004628
 3031 Fit       0.009071
 3032 Fit       0.004987
 3033 Fit       0.001959
 3034 Fit      -0.000208
 3035 Fit      -0.001689
 3036 Fit      -0.002634
 3037 Fit      -0.003168
 3038 Fit      -0.003399
 3039 Fit      -0.003425
 3040 Fit      -0.003331
 3041 Fit      -0.003191
 3042 Fit      -0.003064
 3043 Fit      -0.002991
 3044 Fit      -0.002990
 3045 Fit      -0.002934
 3046 Fit      -0.003051
 3047 Fit      -0.003161
 3048 Fit      -0.003187
 3049 Fit      -0.003022
 3050 Fit      -0.002506
 3051 Fit      -0.001387
 3052 Fit       0.000802
 3053 Fit       0.009346
 3054 Fit       0.004879
 3055 Fit       0.001772
 3056 Fit      -0.000365
 3057 Fit      -0.001785
 3058 Fit      -0.002665
 3059 Fit      -0.003142
 3060 Fit      -0.003329
 3061 Fit      -0.003323
 3062 Fit      -0.003209
 3063 Fit      -0.003059
 3064 Fit      -0.002929
 3065 Fit      -0.002857
 3066 Fit      -0.002860
 3067 Fit      -0.002934
 3068 Fit      -0.003052
 3069 Fit      -0.003162
 3070 Fit      -0.003188
 3071 Fit      -0.003022
 3072 Fit      -0.002507
 3073 Fit      -0.001388
 3074 Fit       0.000800
 3075 Fit       0.009345
 3076 Fit       0.004879
 3077 Fit       0.001772
 3078 Fit      -0.000365
 3079 Fit      -0.001785
 3080 Fit      -0.002665
 3081 Fit      -0.003142
 3082 Fit      -0.003329
 3083 Fit      -0.003323
 3084 Fit      -0.003209
 3085 Fit      -0.003059
 3086 Fit      -0.002929
 3087 Fit      -0.002857
 3088 Fit      -0.002860
 3089 Fit      -0.003059
 3090 Fit      -0.003167
 3091 Fit      -0.003265
 3092 Fit      -0.003274
 3093 Fit      -0.003087
 3094 Fit      -0.002547
 3095 Fit      -0.001414
 3096 Fit       0.000721
 3097 Fit       0.004621
 3098 Fit       0.009070
 3099 Fit       0.004985
 3100 Fit       0.001958
 3101 Fit      -0.000208
 3102 Fit      -0.001689
 3103 Fit      -0.002634
 3104 Fit      -0.003168
 3105 Fit      -0.003400
 3106 Fit      -0.003425
 3107 Fit      -0.003331
 3108 Fit      -0.003192
 3109 Fit      -0.003065
 3110 Fit      -0.002992
 3111 Fit      -0.002991
 3112 Fit      -0.003291
 3113 Fit      -0.003380
 3114 Fit      -0.003452
 3115 Fit      -0.003436
 3116 Fit      -0.003231
 3117 Fit      -0.002703
 3118 Fit      -0.001662
 3119 Fit       0.000162
 3120 Fit       0.003123
 3121 Fit       0.006826
 3122 Fit       0.003980
 3123 Fit       0.001529
 3124 Fit      -0.000390
 3125 Fit      -0.001783
 3126 Fit      -0.002716
 3127 Fit      -0.003273
 3128 Fit      -0.003540
 3129 Fit      -0.003602
 3130 Fit      -0.003540
 3131 Fit      -0.003424
 3132 Fit      -0.003311
 3133 Fit      -0.003242
 3134 Fit      -0.003237
 3135 Fit      -0.003601
 3136 Fit      -0.003663
 3137 Fit      -0.003698
 3138 Fit      -0.003629
 3139 Fit      -0.003354
 3140 Fit      -0.002745
 3141 Fit      -0.001651
 3142 Fit       0.000090
 3143 Fit       0.002573
 3144 Fit       0.004397
 3145 Fit       0.003265
 3146 Fit       0.001608
 3147 Fit      -0.000067
 3148 Fit      -0.001484
 3149 Fit      -0.002545
 3150 Fit      -0.003252
 3151 Fit      -0.003652
 3152 Fit      -0.003817
 3153 Fit      -0.003823
 3154 Fit      -0.003745
 3155 Fit      -0.003649
 3156 Fit      -0.003580
 3157 Fit      -0.003564
 3158 Fit      -0.003947
 3159 Fit      -0.003973
 3160 Fit      -0.003954
 3161 Fit      -0.003805
 3162 Fit      -0.003421
 3163 Fit      -0.002690
 3164 Fit      -0.001507
 3165 Fit       0.000178
 3166 Fit       0.002334
 3167 Fit       0.004859
 3168 Fit       0.007711
 3169 Fit      -0.001973
 3170 Fit      -0.002790
 3171 Fit      -0.000622
 3172 Fit       0.000577
 3173 Fit       0.000632
 3174 Fit      -0.000105
 3175 Fit      -0.001179
 3176 Fit      -0.002236
 3177 Fit      -0.003085
 3178 Fit      -0.003661
 3179 Fit      -0.003980
 3180 Fit      -0.004098
 3181 Fit      -0.004088
 3182 Fit      -0.004023
 3183 Fit      -0.003960
 3184 Fit      -0.003933
 3185 Fit      -0.004281
 3186 Fit      -0.004261
 3187 Fit      -0.004173
 3188 Fit      -0.003929
 3189 Fit      -0.003436
 3190 Fit      -0.002610
 3191 Fit      -0.001417
 3192 Fit       0.000101
 3193 Fit       0.001778
 3194 Fit       0.003188
 3195 Fit       0.003597
 3196 Fit       0.002552
 3197 Fit       0.000528
 3198 Fit      -0.001578
 3199 Fit      -0.003128
 3200 Fit      -0.003598
 3201 Fit      -0.002963
 3202 Fit      -0.002021
 3203 Fit      -0.001530
 3204 Fit      -0.001674
 3205 Fit      -0.002254
 3206 Fit      -0.002972
 3207 Fit      -0.003607
 3208 Fit      -0.004054
 3209 Fit      -0.004298
 3210 Fit      -0.004381
 3211 Fit      -0.004369
 3212 Fit      -0.004326
 3213 Fit      -0.004293
 3214 Fit      -0.004555
 3215 Fit      -0.004478
 3216 Fit      -0.004296
 3217 Fit      -0.003918
 3218 Fit      -0.003270
 3219 Fit      -0.002332
 3220 Fit      -0.001195
 3221 Fit      -0.000122
 3222 Fit       0.000431
 3223 Fit       0.000073
 3224 Fit      -0.001060
 3225 Fit      -0.002360
 3226 Fit      -0.003212
 3227 Fit      -0.003345
 3228 Fit      -0.003054
 3229 Fit      -0.002869
 3230 Fit      -0.003038
 3231 Fit      -0.003471
 3232 Fit      -0.003956
 3233 Fit      -0.004335
 3234 Fit      -0.004552
 3235 Fit      -0.004630
 3236 Fit      -0.004627
 3237 Fit      -0.004595
 3238 Fit      -0.004727
 3239 Fit      -0.004572
 3240 Fit      -0.004248
 3241 Fit      -0.003676
 3242 Fit      -0.002877
 3243 Fit      -0.002060
 3244 Fit      -0.001628
 3245 Fit      -0.001891
 3246 Fit      -0.002648
 3247 Fit      -0.003325
 3248 Fit      -0.003589
 3249 Fit      -0.003638
 3250 Fit      -0.003807
 3251 Fit      -0.004144
 3252 Fit      -0.004490
 3253 Fit      -0.004716
 3254 Fit      -0.004801
 3255 Fit      -0.004794
 3256 Fit      -0.004765
 3257 Fit      -0.004505
 3258 Fit      -0.004006
 3259 Fit      -0.003367
 3260 Fit      -0.002984
 3261 Fit      -0.003179
 3262 Fit      -0.003653
 3263 Fit      -0.003981
 3264 Fit      -0.004238
 3265 Fit      -0.004543
 3266 Fit      -0.004774
 3267 Fit      -0.004846
 3268 Fit      -0.004654
 3269 Fit      -0.004255
 3270 Fit      -0.003865
 3271 Fit      -0.004047
 3272 Fit      -0.004415
 3273 Fit      -0.004686
 3274 Fit      -0.004403
 3275 Fit       0.008663
 3276 Fit       0.006016
 3277 Fit       0.010432
 3278 Fit       0.009110
 3279 Fit       0.012825
 3280 Fit       0.015605
 3281 Fit       0.017404
 3282 Fit       0.019239
 3283 Fit       0.018850
 3284 Fit       0.020118
 3285 Fit       0.021692
 3286 Fit       0.020171
 3287 Fit       0.021292
 3288 Fit       0.022765
 3289 Fit       0.024617
 3290 Fit       0.020241
 3291 Fit       0.021155
 3292 Fit       0.022433
 3293 Fit       0.024069
 3294 Fit       0.026210
 3295 Fit       0.029275
 3296 Fit       0.020169
 3297 Fit       0.021291
 3298 Fit       0.022765
 3299 Fit       0.024618
 3300 Fit       0.018846
 3301 Fit       0.020116
 3302 Fit       0.021692
 3303 Fit       0.017399
 3304 Fit       0.019236
 3305 Fit       0.009099
 3306 Fit       0.012816
 3307 Fit       0.015598
 3308 Fit       0.006003
 3309 Fit       0.010422
 3310 Fit       0.008651
 3311 Fit       0.007416
 3312 Fit       0.002233
 3313 Fit       0.012357
 3314 Fit       0.008986
 3315 Fit       0.005025
 3316 Fit      -0.000251
 3317 Fit      -0.007584
 3318 Fit       0.014597
 3319 Fit       0.011737
 3320 Fit       0.008780
 3321 Fit       0.005202
 3322 Fit       0.000430
 3323 Fit      -0.006316
 3324 Fit      -0.016240
 3325 Fit       0.016102
 3326 Fit       0.013196
 3327 Fit       0.010416
 3328 Fit       0.007238
 3329 Fit       0.003120
 3330 Fit      -0.002647
 3331 Fit      -0.011238
 3332 Fit      -0.024887
 3333 Fit       0.016102
 3334 Fit       0.013195
 3335 Fit       0.010415
 3336 Fit       0.007237
 3337 Fit       0.003119
 3338 Fit      -0.002648
 3339 Fit      -0.011240
 3340 Fit      -0.024891
 3341 Fit       0.014596
 3342 Fit       0.011735
 3343 Fit       0.008778
 3344 Fit       0.005200
 3345 Fit       0.000427
 3346 Fit      -0.006322
 3347 Fit      -0.016249
 3348 Fit       0.012356
 3349 Fit       0.008983
 3350 Fit       0.005021
 3351 Fit      -0.000257
 3352 Fit      -0.007594
 3353 Fit       0.007412
 3354 Fit       0.002226
 3355 Fit       0.030050
 3356 Fit       0.027255
 3357 Fit       0.023815
 3358 Fit       0.021477
 3359 Fit       0.026482
 3360 Fit       0.023512
 3361 Fit       0.021078
 3362 Fit       0.019111
 3363 Fit       0.017408
 3364 Fit       0.020616
 3365 Fit       0.021966
 3366 Fit       0.020727
 3367 Fit       0.018857
 3368 Fit       0.016925
 3369 Fit       0.014904
 3370 Fit       0.012544
 3371 Fit       0.013081
 3372 Fit       0.016805
 3373 Fit       0.017324
 3374 Fit       0.015949
 3375 Fit       0.013739
 3376 Fit       0.010793
 3377 Fit       0.006912
 3378 Fit       0.003863
 3379 Fit       0.008054
 3380 Fit       0.011616
 3381 Fit       0.013866
 3382 Fit       0.012630
 3383 Fit       0.009424
 3384 Fit       0.006538
 3385 Fit       0.007664
 3386 Fit       0.010370
 3387 Fit       0.010375
 3388 Fit       0.011621
 3389 Fit       0.013870
 3390 Fit       0.012634
 3391 Fit       0.009429
 3392 Fit       0.006544
 3393 Fit       0.007670
 3394 Fit       0.013085
 3395 Fit       0.016809
 3396 Fit       0.017328
 3397 Fit       0.015952
 3398 Fit       0.013743
 3399 Fit       0.010799
 3400 Fit       0.006918
 3401 Fit       0.003872
 3402 Fit       0.008059
 3403 Fit       0.020619
 3404 Fit       0.021968
 3405 Fit       0.020729
 3406 Fit       0.018861
 3407 Fit       0.016929
 3408 Fit       0.014908
 3409 Fit       0.012550
 3410 Fit       0.026484
 3411 Fit       0.023515
 3412 Fit       0.021081
 3413 Fit       0.019115
 3414 Fit       0.017413
 3415 Fit       0.027258
 3416 Fit       0.023819
 3417 Fit       0.021481
 3418 Fit       0.030055
 3419 Fit       0.031764
 3420 Fit       0.032582
 3421 Fit       0.032580
 3422 Fit       0.031759
 3423 Fit      -0.001406
 3424 Fit       0.003120
 3425 Fit       0.006249
 3426 Fit      -0.005193
 3427 Fit       0.000160
 3428 Fit       0.004117
 3429 Fit       0.007475
 3430 Fit      -0.004457
 3431 Fit       0.000439
 3432 Fit       0.004179
 3433 Fit       0.007526
 3434 Fit      -0.009580
 3435 Fit      -0.002970
 3436 Fit       0.001635
 3437 Fit       0.005288
 3438 Fit       0.008841
 3439 Fit      -0.009580
 3440 Fit      -0.002970
 3441 Fit       0.001635
 3442 Fit       0.005288
 3443 Fit       0.008841
 3444 Fit      -0.004457
 3445 Fit       0.000439
 3446 Fit       0.004179
 3447 Fit       0.007526
 3448 Fit      -0.005193
 3449 Fit       0.000159
 3450 Fit       0.004116
 3451 Fit       0.007475
 3452 Fit      -0.001407
 3453 Fit       0.003119
 3454 Fit       0.006248
 3455 Fit       0.007356
 3456 Fit       0.011497
 3457 Fit       0.014838
 3458 Fit       0.006304
 3459 Fit       0.010296
 3460 Fit       0.013280
 3461 Fit       0.015807
 3462 Fit       0.005801
 3463 Fit       0.009673
 3464 Fit       0.012526
 3465 Fit       0.014802
 3466 Fit       0.016881
 3467 Fit       0.019179
 3468 Fit       0.005609
 3469 Fit       0.009598
 3470 Fit       0.012493
 3471 Fit       0.014760
 3472 Fit       0.016772
 3473 Fit       0.018919
 3474 Fit       0.005608
 3475 Fit       0.009597
 3476 Fit       0.012492
 3477 Fit       0.014760
 3478 Fit       0.016771
 3479 Fit       0.018919
 3480 Fit       0.005796
 3481 Fit       0.009670
 3482 Fit       0.012523
 3483 Fit       0.014800
 3484 Fit       0.016879
 3485 Fit       0.019179
 3486 Fit       0.006296
 3487 Fit       0.010291
 3488 Fit       0.013277
 3489 Fit       0.015805
 3490 Fit       0.007347
 3491 Fit       0.011492
 3492 Fit       0.014835
 3493 Fit       0.023085
 3494 Fit       0.024389
 3495 Fit       0.026535
 3496 Fit       0.030021
 3497 Fit       0.020500
 3498 Fit       0.021557
 3499 Fit       0.022923
 3500 Fit       0.024759
 3501 Fit       0.027077
 3502 Fit       0.017414
 3503 Fit       0.018769
 3504 Fit       0.020014
 3505 Fit       0.021262
 3506 Fit       0.022321
 3507 Fit       0.022109
 3508 Fit       0.013246
 3509 Fit       0.015740
 3510 Fit       0.017461
 3511 Fit       0.018592
 3512 Fit       0.018703
 3513 Fit       0.016519
 3514 Fit       0.012161
 3515 Fit       0.008500
 3516 Fit       0.011374
 3517 Fit       0.014216
 3518 Fit       0.015905
 3519 Fit       0.015267
 3520 Fit       0.012133
 3521 Fit       0.009980
 3522 Fit       0.013186
 3523 Fit       0.013191
 3524 Fit       0.011380
 3525 Fit       0.014221
 3526 Fit       0.015909
 3527 Fit       0.015271
 3528 Fit       0.012138
 3529 Fit       0.009987
 3530 Fit       0.013253
 3531 Fit       0.015745
 3532 Fit       0.017465
 3533 Fit       0.018595
 3534 Fit       0.018705
 3535 Fit       0.016521
 3536 Fit       0.012165
 3537 Fit       0.008507
 3538 Fit       0.017420
 3539 Fit       0.018773
 3540 Fit       0.020018
 3541 Fit       0.021264
 3542 Fit       0.022322
 3543 Fit       0.022109
 3544 Fit       0.020505
 3545 Fit       0.021562
 3546 Fit       0.022926
 3547 Fit       0.024761
 3548 Fit       0.027077
 3549 Fit       0.023090
 3550 Fit       0.024393
 3551 Fit       0.026539
 3552 Fit       0.030023
 -----------------------------------------------------------------
 Leave Link  602 at Thu Jan 16 22:39:24 2014, MaxMem=   235929600 cpu:         1.3

 Test job not archived.
 1\1\GINC-G33\SP\RHF\Gen\C9H9Br1O3\KOLAR\16-Jan-2014\0\\# hf/gen pop=mk
  iop(6/33=2,6/41=5,6/42=2)\\na resp\\0,1\C,0,-3.607056,1.825593,0.0002
 01\O,0,-3.143591,0.482905,-0.000214\C,0,-1.816802,0.239906,-0.000148\C
 ,0,-0.853577,1.257814,-0.000217\C,0,0.515062,0.954122,-0.000166\C,0,0.
 92062,-0.39384,-0.00006\C,0,-0.033031,-1.394215,-0.000014\C,0,-1.40861
 ,-1.117808,-0.000046\C,0,-2.327261,-2.272719,0.000071\O,0,-3.542324,-2
 .251892,0.000118\Br,0,2.773945,-0.831098,0.000041\O,0,1.491929,1.88677
 1,-0.000259\C,0,1.137326,3.263911,0.000275\H,0,-4.695566,1.757453,0.00
 0508\H,0,-3.276138,2.365656,-0.896247\H,0,-3.275595,2.365279,0.896671\
 H,0,-1.165693,2.292318,-0.000408\H,0,0.290396,-2.431314,0.000084\H,0,-
 1.782124,-3.245985,0.000185\H,0,2.082116,3.80881,0.000618\H,0,0.563326
 ,3.52906,-0.896253\H,0,0.563093,3.528301,0.896872\\Version=AM64L-G09Re
 vD.01\State=1-A\HF=-3140.186079\RMSD=7.056e-09\Dipole=0.2949369,1.9741
 192,0.0004273\Quadrupole=-11.6280862,12.51634,-0.8882537,-10.1869493,-
 0.0000551,0.001684\PG=C01 [X(C9H9Br1O3)]\\@


 IN NATURE THERE ARE NEITHER REWARDS OR
 PUNISHMENTS -- THERE ARE CONSEQUENCES.

                            -- ROBERT GREEN INGERSOLL
 Job cpu time:       0 days  0 hours  2 minutes 37.3 seconds.
 File lengths (MBytes):  RWF=     27 Int=      0 D2E=      0 Chk=      3 Scr=      1
 Normal termination of Gaussian 09 at Thu Jan 16 22:39:24 2014.
157.10user 0.26system 2:37.67elapsed 99%CPU (0avgtext+0avgdata 603376maxresident)k
8inputs+110496outputs (0major+170928minor)pagefaults 0swaps
