Linux g42 2.6.38.6-client #1 SMP Tue Jun 12 11:27:21 CEST 2012 x86_64 GNU/Linux
Fri Jan 17 11:54:31 CET 2014

 Entering Gaussian System, Link 0=/usr/local/programs/common/gaussian/gaussian09_d01/arch/amd64-pgi_10.4.0-acml/g09/g09
 Initial command:
 /usr/local/programs/common/gaussian/gaussian09_d01/arch/amd64-pgi_10.4.0-acml/g09/l1.exe "/scratch/kolar/g09_20094/Gau-20638.inp" -scrdir="/scratch/kolar/g09_20094/"
 Entering Link 1 = /usr/local/programs/common/gaussian/gaussian09_d01/arch/amd64-pgi_10.4.0-acml/g09/l1.exe PID=     20641.
  
 Copyright (c) 1988,1990,1992,1993,1995,1998,2003,2009,2013,
            Gaussian, Inc.  All Rights Reserved.
  
 This is part of the Gaussian(R) 09 program.  It is based on
 the Gaussian(R) 03 system (copyright 2003, Gaussian, Inc.),
 the Gaussian(R) 98 system (copyright 1998, Gaussian, Inc.),
 the Gaussian(R) 94 system (copyright 1995, Gaussian, Inc.),
 the Gaussian 92(TM) system (copyright 1992, Gaussian, Inc.),
 the Gaussian 90(TM) system (copyright 1990, Gaussian, Inc.),
 the Gaussian 88(TM) system (copyright 1988, Gaussian, Inc.),
 the Gaussian 86(TM) system (copyright 1986, Carnegie Mellon
 University), and the Gaussian 82(TM) system (copyright 1983,
 Carnegie Mellon University). Gaussian is a federally registered
 trademark of Gaussian, Inc.
  
 This software contains proprietary and confidential information,
 including trade secrets, belonging to Gaussian, Inc.
  
 This software is provided under written license and may be
 used, copied, transmitted, or stored only in accord with that
 written license.
  
 The following legend is applicable only to US Government
 contracts under FAR:
  
                    RESTRICTED RIGHTS LEGEND
  
 Use, reproduction and disclosure by the US Government is
 subject to restrictions as set forth in subparagraphs (a)
 and (c) of the Commercial Computer Software - Restricted
 Rights clause in FAR 52.227-19.
  
 Gaussian, Inc.
 340 Quinnipiac St., Bldg. 40, Wallingford CT 06492
  
  
 ---------------------------------------------------------------
 Warning -- This program may not be used in any manner that
 competes with the business of Gaussian, Inc. or will provide
 assistance to any competitor of Gaussian, Inc.  The licensee
 of this program is prohibited from giving any competitor of
 Gaussian, Inc. access to this program.  By using this program,
 the user acknowledges that Gaussian, Inc. is engaged in the
 business of creating and licensing software in the field of
 computational chemistry and represents and warrants to the
 licensee that it is not a competitor of Gaussian, Inc. and that
 it will not use this program in any manner prohibited above.
 ---------------------------------------------------------------
  

 Cite this work as:
 Gaussian 09, Revision D.01,
 M. J. Frisch, G. W. Trucks, H. B. Schlegel, G. E. Scuseria, 
 M. A. Robb, J. R. Cheeseman, G. Scalmani, V. Barone, B. Mennucci, 
 G. A. Petersson, H. Nakatsuji, M. Caricato, X. Li, H. P. Hratchian, 
 A. F. Izmaylov, J. Bloino, G. Zheng, J. L. Sonnenberg, M. Hada, 
 M. Ehara, K. Toyota, R. Fukuda, J. Hasegawa, M. Ishida, T. Nakajima, 
 Y. Honda, O. Kitao, H. Nakai, T. Vreven, J. A. Montgomery, Jr., 
 J. E. Peralta, F. Ogliaro, M. Bearpark, J. J. Heyd, E. Brothers, 
 K. N. Kudin, V. N. Staroverov, T. Keith, R. Kobayashi, J. Normand, 
 K. Raghavachari, A. Rendell, J. C. Burant, S. S. Iyengar, J. Tomasi, 
 M. Cossi, N. Rega, J. M. Millam, M. Klene, J. E. Knox, J. B. Cross, 
 V. Bakken, C. Adamo, J. Jaramillo, R. Gomperts, R. E. Stratmann, 
 O. Yazyev, A. J. Austin, R. Cammi, C. Pomelli, J. W. Ochterski, 
 R. L. Martin, K. Morokuma, V. G. Zakrzewski, G. A. Voth, 
 P. Salvador, J. J. Dannenberg, S. Dapprich, A. D. Daniels, 
 O. Farkas, J. B. Foresman, J. V. Ortiz, J. Cioslowski, 
 and D. J. Fox, Gaussian, Inc., Wallingford CT, 2013.
 
 ******************************************
 Gaussian 09:  AM64L-G09RevD.01 24-Apr-2013
                17-Jan-2014 
 ******************************************
 %mem=1800mb
 ------------------------------------------------------------------
 # hf/gen pseudo=read pop=(mk, readradii) iop(6/33=2,6/41=5,6/42=2)
 ------------------------------------------------------------------
 1/38=1/1;
 2/12=2,17=6,18=5,40=1/2;
 3/5=7,11=9,16=1,17=8,25=1,30=1/1,2,3;
 4//1;
 5/5=2,38=5/2;
 6/7=2,8=2,9=2,10=2,15=8,20=101,28=1,33=2,41=5,42=2/1,2;
 99/5=1,9=1/99;
 -------
 na resp
 -------
 Symbolic Z-matrix:
 Charge =  0 Multiplicity = 1
 6                     6.66528   0.07405  0. 
 6                     5.63094  -0.91122   0.00012 
 6                     4.4467   -0.22915  -0.00009 
 8                     4.6868    1.12442  -0.0006 
 6                     6.03848   1.28558  -0.00008 
 6                     3.05565  -0.71919   0.00009 
 8                     2.815    -1.92211   0.00046 
 7                     2.10836   0.28258  -0.00004 
 6                     0.7074    0.16373   0.00006 
 6                    -0.0427    1.3508    0.00039 
 6                    -1.43465   1.31776   0.00047 
 6                    -2.08785   0.08605   0.00012 
 6                    -1.35769  -1.1005   -0.00023 
 6                     0.03714  -1.06986  -0.00023 
 53                   -4.23142   0.01795  -0.00006 
 1                     7.73275  -0.09547   0.00011 
 1                     5.732    -1.98646   0.00033 
 1                     6.38869   2.30667  -0.00023 
 1                     2.47103   1.22761   0.0004 
 1                     0.4662    2.31262   0.00054 
 1                    -1.99446   2.24666   0.00079 
 1                    -1.8635   -2.05982  -0.00047 
 1                     0.60763  -1.98796  -0.00049 
 
                          Input orientation:                          
 ---------------------------------------------------------------------
 Center     Atomic      Atomic             Coordinates (Angstroms)
 Number     Number       Type             X           Y           Z
 ---------------------------------------------------------------------
      1          6           0        6.665280    0.074050   -0.000003
      2          6           0        5.630940   -0.911216    0.000123
      3          6           0        4.446701   -0.229152   -0.000091
      4          8           0        4.686801    1.124421   -0.000595
      5          6           0        6.038478    1.285580   -0.000084
      6          6           0        3.055648   -0.719192    0.000089
      7          8           0        2.815001   -1.922107    0.000464
      8          7           0        2.108361    0.282580   -0.000043
      9          6           0        0.707400    0.163726    0.000063
     10          6           0       -0.042698    1.350803    0.000390
     11          6           0       -1.434652    1.317763    0.000472
     12          6           0       -2.087850    0.086054    0.000124
     13          6           0       -1.357693   -1.100495   -0.000230
     14          6           0        0.037143   -1.069860   -0.000227
     15         53           0       -4.231424    0.017947   -0.000064
     16          1           0        7.732750   -0.095469    0.000113
     17          1           0        5.732004   -1.986460    0.000334
     18          1           0        6.388689    2.306672   -0.000230
     19          1           0        2.471027    1.227611    0.000400
     20          1           0        0.466202    2.312617    0.000539
     21          1           0       -1.994459    2.246660    0.000787
     22          1           0       -1.863501   -2.059821   -0.000465
     23          1           0        0.607631   -1.987963   -0.000490
 ---------------------------------------------------------------------
                    Distance matrix (angstroms):
                    1          2          3          4          5
     1  C    0.000000
     2  C    1.428499   0.000000
     3  C    2.239202   1.366614   0.000000
     4  O    2.240013   2.243929   1.374703   0.000000
     5  C    1.364070   2.234278   2.197309   1.361251   0.000000
     6  C    3.695765   2.582441   1.474845   2.461619   3.593937
     7  O    4.336968   2.991891   2.351285   3.575608   4.547533
     8  N    4.561688   3.719370   2.393680   2.712388   4.056085
     9  C    5.958555   5.039518   3.759884   4.093723   5.447839
    10  C    6.828402   6.107937   4.759303   4.734914   6.081526
    11  C    8.194859   7.408842   6.081386   6.124506   7.473199
    12  C    8.753138   7.782947   6.542149   6.853766   8.214382
    13  C    8.108493   6.991196   5.869432   6.440975   7.771531
    14  C    6.726123   5.596046   4.488986   5.141419   6.447024
    15  I   10.896848   9.906037   8.681642   8.986602  10.347839
    16  H    1.080846   2.254562   3.288767   3.281149   2.185830
    17  H    2.262014   1.079983   2.177185   3.281773   3.286362
    18  H    2.249690   3.305902   3.194013   2.072231   1.079480
    19  H    4.349996   3.815708   2.454678   2.218176   3.567922
    20  H    6.590884   6.088318   4.722813   4.384663   5.666133
    21  H    8.928119   8.253417   6.900593   6.774855   8.090226
    22  H    8.791673   7.581948   6.570388   7.283258   8.580966
    23  H    6.398985   5.137414   4.222780   5.130942   6.341150
                    6          7          8          9         10
     6  C    0.000000
     7  O    1.226750   0.000000
     8  N    1.378731   2.315164   0.000000
     9  C    2.508747   2.965246   1.405994   0.000000
    10  C    3.726208   4.344926   2.401698   1.404208   0.000000
    11  C    4.930718   5.343810   3.691144   2.433144   1.392346
    12  C    5.206150   5.298175   4.200811   2.796329   2.404628
    13  C    4.429782   4.252813   3.731813   2.421335   2.781739
    14  C    3.038806   2.905653   2.473669   1.403916   2.421979
    15  I    7.324261   7.308619   6.345306   4.940975   4.395672
    16  H    4.718508   5.246033   5.637080   7.030130   7.908811
    17  H    2.961224   2.917713   4.275433   5.465340   6.669671
    18  H    4.501668   5.536589   4.734782   6.072006   6.502032
    19  H    2.032689   3.168445   1.012230   2.059668   2.516742
    20  H    3.987116   4.842494   2.611080   2.162385   1.088148
    21  H    5.856608   6.364709   4.548708   3.411548   2.147541
    22  H    5.098560   4.680528   4.611131   3.399072   3.866223
    23  H    2.757275   2.208352   2.721683   2.154001   3.401512
                   11         12         13         14         15
    11  C    0.000000
    12  C    1.394193   0.000000
    13  C    2.419482   1.393208   0.000000
    14  C    2.804804   2.419035   1.395172   0.000000
    15  I    3.084065   2.144656   3.083706   4.404996   0.000000
    16  H    9.275693   9.822277   9.145831   7.757049  11.964712
    17  H    7.891695   8.089835   7.144840   5.768154  10.163048
    18  H    7.885595   8.762583   8.462578   7.193268  10.863934
    19  H    3.906719   4.699629   4.480979   3.346964   6.810737
    20  H    2.145456   3.388328   3.869874   3.409581   5.228116
    21  H    1.084543   2.162624   3.407186   3.889307   3.157717
    22  H    3.404701   2.157571   1.084504   2.143005   3.150267
    23  H    3.885710   3.401053   2.156409   1.080912   5.238333
                   16         17         18         19         20
    16  H    0.000000
    17  H    2.752968   0.000000
    18  H    2.752595   4.343065   0.000000
    19  H    5.425520   4.578670   4.063551   0.000000
    20  H    7.655168   6.797848   5.922490   2.279597   0.000000
    21  H   10.005207   8.810081   8.383363   4.580287   2.461545
    22  H    9.795239   7.595859   9.336214   5.440160   4.954365
    23  H    7.372168   5.124373   7.201703   3.716472   4.302905
                   21         22         23
    21  H    0.000000
    22  H    4.308472   0.000000
    23  H    4.970202   2.472177   0.000000
 Stoichiometry    C11H8INO2
 Framework group  C1[X(C11H8INO2)]
 Deg. of freedom    63
 Full point group                 C1      NOp   1
 Largest Abelian subgroup         C1      NOp   1
 Largest concise Abelian subgroup C1      NOp   1
                         Standard orientation:                         
 ---------------------------------------------------------------------
 Center     Atomic      Atomic             Coordinates (Angstroms)
 Number     Number       Type             X           Y           Z
 ---------------------------------------------------------------------
      1          6           0       -6.665280   -0.074050   -0.000003
      2          6           0       -5.630940    0.911216    0.000123
      3          6           0       -4.446701    0.229152   -0.000091
      4          8           0       -4.686801   -1.124421   -0.000595
      5          6           0       -6.038478   -1.285580   -0.000084
      6          6           0       -3.055648    0.719192    0.000089
      7          8           0       -2.815001    1.922107    0.000464
      8          7           0       -2.108361   -0.282580   -0.000043
      9          6           0       -0.707400   -0.163726    0.000063
     10          6           0        0.042698   -1.350803    0.000390
     11          6           0        1.434652   -1.317763    0.000472
     12          6           0        2.087850   -0.086054    0.000124
     13          6           0        1.357693    1.100495   -0.000230
     14          6           0       -0.037143    1.069860   -0.000227
     15         53           0        4.231424   -0.017947   -0.000064
     16          1           0       -7.732750    0.095469    0.000113
     17          1           0       -5.732004    1.986460    0.000334
     18          1           0       -6.388689   -2.306672   -0.000230
     19          1           0       -2.471027   -1.227611    0.000400
     20          1           0       -0.466202   -2.312617    0.000539
     21          1           0        1.994459   -2.246660    0.000787
     22          1           0        1.863501    2.059821   -0.000465
     23          1           0       -0.607631    1.987963   -0.000490
 ---------------------------------------------------------------------
 Rotational constants (GHZ):      2.3164291      0.1068513      0.1021398
 General basis read from cards:  (5D, 7F)
 ======================================================================================================
                                       Pseudopotential Parameters
 ======================================================================================================
  Center     Atomic      Valence      Angular      Power
  Number     Number     Electrons     Momentum     of R      Exponent        Coefficient   SO-Coeffient
 ======================================================================================================
    1          6
                                   No pseudopotential on this center.
    2          6
                                   No pseudopotential on this center.
    3          6
                                   No pseudopotential on this center.
    4          8
                                   No pseudopotential on this center.
    5          6
                                   No pseudopotential on this center.
    6          6
                                   No pseudopotential on this center.
    7          8
                                   No pseudopotential on this center.
    8          7
                                   No pseudopotential on this center.
    9          6
                                   No pseudopotential on this center.
   10          6
                                   No pseudopotential on this center.
   11          6
                                   No pseudopotential on this center.
   12          6
                                   No pseudopotential on this center.
   13          6
                                   No pseudopotential on this center.
   14          6
                                   No pseudopotential on this center.
   15         53            7
                                      F and up 
                                                     0        1.0715702       -0.07476210    0.00000000
                                                     1       44.1936028      -30.08112240    0.00000000
                                                     2       12.9367609      -75.37227210    0.00000000
                                                     2        3.1956412      -22.05637580    0.00000000
                                                     2        0.8589806       -1.69795850    0.00000000
                                      S - F
                                                     0      127.9202670        2.93800360    0.00000000
                                                     1       78.6211465       41.24712670    0.00000000
                                                     2       36.5146237      287.86800950    0.00000000
                                                     2        9.9065681      114.37585060    0.00000000
                                                     2        1.9420086       37.65477140    0.00000000
                                      P - F
                                                     0       13.0035304        2.22226300    0.00000000
                                                     1       76.0331404       39.40908310    0.00000000
                                                     2       24.1961684      177.40750020    0.00000000
                                                     2        6.4053433       77.98894620    0.00000000
                                                     2        1.5851786       25.75476410    0.00000000
                                      D - F
                                                     0       40.4278108        7.05243600    0.00000000
                                                     1       28.9084375       33.30416350    0.00000000
                                                     2       15.6268936      186.94538750    0.00000000
                                                     2        4.1442856       71.96883610    0.00000000
                                                     2        0.9377235        9.36306570    0.00000000
   16          1
                                   No pseudopotential on this center.
   17          1
                                   No pseudopotential on this center.
   18          1
                                   No pseudopotential on this center.
   19          1
                                   No pseudopotential on this center.
   20          1
                                   No pseudopotential on this center.
   21          1
                                   No pseudopotential on this center.
   22          1
                                   No pseudopotential on this center.
   23          1
                                   No pseudopotential on this center.
 ======================================================================================================
 There are   234 symmetry adapted cartesian basis functions of A   symmetry.
 There are   220 symmetry adapted basis functions of A   symmetry.
   220 basis functions,   436 primitive gaussians,   234 cartesian basis functions
    52 alpha electrons       52 beta electrons
       nuclear repulsion energy       852.3827483809 Hartrees.
 NAtoms=   23 NActive=   23 NUniq=   23 SFac= 1.00D+00 NAtFMM=   60 NAOKFM=F Big=F
 Integral buffers will be    131072 words long.
 Raffenetti 1 integral format.
 Two-electron integral symmetry is turned on.
 One-electron integrals computed using PRISM.
   1 Symmetry operations used in ECPInt.
 ECPInt:  NShTT=    2926 NPrTT=   18806 LenC2=    2602 LenP2D=   10401.
 LDataN:  DoStor=T MaxTD1= 5 Len=  102
 NBasis=   220 RedAO= T EigKep=  4.82D-04  NBF=   220
 NBsUse=   220 1.00D-06 EigRej= -1.00D+00 NBFU=   220
 ExpMin= 1.05D-01 ExpMax= 5.48D+03 ExpMxC= 8.25D+02 IAcc=1 IRadAn=         1 AccDes= 0.00D+00
 Harris functional with IExCor=  205 and IRadAn=       1 diagonalized for initial guess.
 HarFok:  IExCor=  205 AccDes= 0.00D+00 IRadAn=         1 IDoV= 1 UseB2=F ITyADJ=14
 ICtDFT=  3500011 ScaDFX=  1.000000  1.000000  1.000000  1.000000
 Defaulting to unpruned grid for atomic number  53.
 FoFCou: FMM=F IPFlag=           0 FMFlag=      100000 FMFlg1=           0
         NFxFlg=           0 DoJE=T BraDBF=F KetDBF=T FulRan=T
         wScrn=  0.000000 ICntrl=     500 IOpCl=  0 I1Cent=   200000004 NGrid=           0
         NMat0=    1 NMatS0=      1 NMatT0=    0 NMatD0=    1 NMtDS0=    0 NMtDT0=    0
 Petite list used in FoFCou.
 Requested convergence on RMS density matrix=1.00D-08 within 128 cycles.
 Requested convergence on MAX density matrix=1.00D-06.
 Requested convergence on             energy=1.00D-06.
 No special actions if energy rises.
 Integral accuracy reduced to 1.0D-05 until final iterations.
 Initial convergence to 1.0D-05 achieved.  Increase integral accuracy.
 SCF Done:  E(RHF) =  -636.521737996     A.U. after   16 cycles
            NFock= 16  Conv=0.76D-08     -V/T= 2.0143

 **********************************************************************

            Population analysis using the SCF density.

 **********************************************************************

 Orbital symmetries:
 BldTbl:  Degeneracy threshold= 1.00D-02
       Occupied  (A) (A) (A) (A) (A) (A) (A) (A) (A) (A) (A) (A)
                 (A) (A) (A) (A) (A) (A) (A) (A) (A) (A) (A) (A)
                 (A) (A) (A) (A) (A) (A) (A) (A) (A) (A) (A) (A)
                 (A) (A) (A) (A) (A) (A) (A) (A) (A) (A) (A) (A)
                 (A) (A) (A) (A)
       Virtual   (A) (A) (A) (A) (A) (A) (A) (A) (A) (A) (A) (A)
                 (A) (A) (A) (A) (A) (A) (A) (A) (A) (A) (A) (A)
                 (A) (A) (A) (A) (A) (A) (A) (A) (A) (A) (A) (A)
                 (A) (A) (A) (A) (A) (A) (A) (A) (A) (A) (A) (A)
                 (A) (A) (A) (A) (A) (A) (A) (A) (A) (A) (A) (A)
                 (A) (A) (A) (A) (A) (A) (A) (A) (A) (A) (A) (A)
                 (A) (A) (A) (A) (A) (A) (A) (A) (A) (A) (A) (A)
                 (A) (A) (A) (A) (A) (A) (A) (A) (A) (A) (A) (A)
                 (A) (A) (A) (A) (A) (A) (A) (A) (A) (A) (A) (A)
                 (A) (A) (A) (A) (A) (A) (A) (A) (A) (A) (A) (A)
                 (A) (A) (A) (A) (A) (A) (A) (A) (A) (A) (A) (A)
                 (A) (A) (A) (A) (A) (A) (A) (A) (A) (A) (A) (A)
                 (A) (A) (A) (A) (A) (A) (A) (A) (A) (A) (A) (A)
                 (A) (A) (A) (A) (A) (A) (A) (A) (A) (A) (A) (A)
 The electronic state is 1-A.
 Alpha  occ. eigenvalues --  -20.65707 -20.54240 -15.61544 -11.38274 -11.32134
 Alpha  occ. eigenvalues --  -11.31045 -11.30095 -11.28805 -11.26251 -11.25637
 Alpha  occ. eigenvalues --  -11.25394 -11.25207 -11.24835 -11.23614  -1.48591
 Alpha  occ. eigenvalues --   -1.39345  -1.26593  -1.15651  -1.10914  -1.05720
 Alpha  occ. eigenvalues --   -1.02912  -1.01587  -0.90648  -0.86145  -0.85258
 Alpha  occ. eigenvalues --   -0.83019  -0.80390  -0.77698  -0.76881  -0.71938
 Alpha  occ. eigenvalues --   -0.68047  -0.66568  -0.64008  -0.63299  -0.61866
 Alpha  occ. eigenvalues --   -0.60769  -0.59843  -0.59599  -0.59458  -0.58107
 Alpha  occ. eigenvalues --   -0.56669  -0.52424  -0.51405  -0.45906  -0.45844
 Alpha  occ. eigenvalues --   -0.43615  -0.41738  -0.37597  -0.36387  -0.34821
 Alpha  occ. eigenvalues --   -0.34174  -0.30023
 Alpha virt. eigenvalues --    0.08452   0.11477   0.12999   0.14431   0.20201
 Alpha virt. eigenvalues --    0.23069   0.25060   0.26185   0.27743   0.29555
 Alpha virt. eigenvalues --    0.29678   0.30074   0.31996   0.34178   0.34913
 Alpha virt. eigenvalues --    0.36080   0.37738   0.41271   0.42876   0.44665
 Alpha virt. eigenvalues --    0.45942   0.48493   0.49750   0.50551   0.53870
 Alpha virt. eigenvalues --    0.55545   0.55633   0.56901   0.58307   0.61177
 Alpha virt. eigenvalues --    0.63792   0.67138   0.72148   0.72475   0.73988
 Alpha virt. eigenvalues --    0.74752   0.76088   0.77410   0.78387   0.80102
 Alpha virt. eigenvalues --    0.80789   0.81289   0.81813   0.82038   0.82259
 Alpha virt. eigenvalues --    0.83610   0.83721   0.84476   0.85173   0.86579
 Alpha virt. eigenvalues --    0.87245   0.89656   0.90295   0.91366   0.94232
 Alpha virt. eigenvalues --    0.95781   0.98503   1.00558   1.04116   1.06102
 Alpha virt. eigenvalues --    1.06512   1.07638   1.08501   1.09890   1.10520
 Alpha virt. eigenvalues --    1.11485   1.12774   1.14616   1.15598   1.17678
 Alpha virt. eigenvalues --    1.19925   1.21720   1.24766   1.25787   1.26588
 Alpha virt. eigenvalues --    1.26719   1.29501   1.30806   1.33122   1.33166
 Alpha virt. eigenvalues --    1.36519   1.38786   1.40831   1.43450   1.46181
 Alpha virt. eigenvalues --    1.47813   1.50612   1.52526   1.54656   1.54726
 Alpha virt. eigenvalues --    1.57910   1.60889   1.61856   1.62311   1.67431
 Alpha virt. eigenvalues --    1.67991   1.70478   1.72530   1.74566   1.75807
 Alpha virt. eigenvalues --    1.76492   1.77894   1.81040   1.81783   1.82658
 Alpha virt. eigenvalues --    1.84759   1.91838   1.97008   2.04242   2.05041
 Alpha virt. eigenvalues --    2.06919   2.08399   2.11784   2.13743   2.14619
 Alpha virt. eigenvalues --    2.16788   2.21440   2.23231   2.23388   2.25357
 Alpha virt. eigenvalues --    2.29184   2.31630   2.33846   2.35788   2.36365
 Alpha virt. eigenvalues --    2.39397   2.40531   2.43782   2.45729   2.46265
 Alpha virt. eigenvalues --    2.47350   2.49429   2.50481   2.53702   2.54833
 Alpha virt. eigenvalues --    2.54921   2.61340   2.62212   2.64444   2.65042
 Alpha virt. eigenvalues --    2.68700   2.71217   2.75108   2.81912   2.84333
 Alpha virt. eigenvalues --    2.85956   2.88418   2.91777   2.94102   2.97937
 Alpha virt. eigenvalues --    2.99302   3.01446   3.05571   3.05577   3.08626
 Alpha virt. eigenvalues --    3.10149   3.11295   3.14098   3.20911   3.28411
 Alpha virt. eigenvalues --    3.31252   3.31671   3.35870   3.44498   3.60461
 Alpha virt. eigenvalues --    3.71205   3.77399  10.26069
          Condensed to atoms (all electrons):
               1          2          3          4          5          6
     1  C    4.980675   0.473683  -0.079785  -0.057394   0.651441   0.002773
     2  C    0.473683   4.937445   0.628576  -0.094784  -0.076199  -0.032045
     3  C   -0.079785   0.628576   4.849030   0.246240  -0.104815   0.401380
     4  O   -0.057394  -0.094784   0.246240   8.316900   0.286272  -0.019941
     5  C    0.651441  -0.076199  -0.104815   0.286272   4.719310   0.001359
     6  C    0.002773  -0.032045   0.401380  -0.019941   0.001359   4.005367
     7  O    0.000398   0.002645  -0.083602   0.001178  -0.000117   0.614879
     8  N   -0.000027   0.004480  -0.116006  -0.007992  -0.000158   0.248360
     9  C    0.000002  -0.000042   0.003979  -0.000076   0.000007  -0.024479
    10  C    0.000000  -0.000001  -0.000204  -0.000032   0.000000   0.002995
    11  C    0.000000   0.000000   0.000000   0.000000   0.000000  -0.000057
    12  C    0.000000   0.000000   0.000000   0.000000   0.000000   0.000014
    13  C    0.000000   0.000000   0.000002   0.000000   0.000000   0.000089
    14  C    0.000000   0.000005   0.000154  -0.000005   0.000000  -0.003042
    15  I    0.000000   0.000000   0.000000   0.000000   0.000000   0.000000
    16  H    0.372235  -0.018978   0.002446   0.002486  -0.021275  -0.000047
    17  H   -0.020343   0.368522  -0.016444   0.002270   0.002454  -0.000027
    18  H   -0.025255   0.001600   0.003354  -0.029069   0.386127   0.000004
    19  H    0.000052   0.000233  -0.004946   0.009591   0.000022  -0.016884
    20  H    0.000000   0.000000   0.000008  -0.000022   0.000000   0.000084
    21  H    0.000000   0.000000   0.000000   0.000000   0.000000   0.000000
    22  H    0.000000   0.000000   0.000000   0.000000   0.000000   0.000000
    23  H    0.000000  -0.000001   0.000321  -0.000002   0.000000   0.000119
               7          8          9         10         11         12
     1  C    0.000398  -0.000027   0.000002   0.000000   0.000000   0.000000
     2  C    0.002645   0.004480  -0.000042  -0.000001   0.000000   0.000000
     3  C   -0.083602  -0.116006   0.003979  -0.000204   0.000000   0.000000
     4  O    0.001178  -0.007992  -0.000076  -0.000032   0.000000   0.000000
     5  C   -0.000117  -0.000158   0.000007   0.000000   0.000000   0.000000
     6  C    0.614879   0.248360  -0.024479   0.002995  -0.000057   0.000014
     7  O    8.189676  -0.095415   0.002665   0.000278  -0.000003  -0.000003
     8  N   -0.095415   7.533794   0.196068  -0.058448   0.003804  -0.000314
     9  C    0.002665   0.196068   4.499698   0.530186  -0.007096  -0.061503
    10  C    0.000278  -0.058448   0.530186   5.018178   0.511693  -0.015006
    11  C   -0.000003   0.003804  -0.007096   0.511693   4.910797   0.468129
    12  C   -0.000003  -0.000314  -0.061503  -0.015006   0.468129   5.367996
    13  C    0.000478   0.004331  -0.008558  -0.053164  -0.010192   0.457472
    14  C   -0.011214  -0.047142   0.557454  -0.027381  -0.051962  -0.008169
    15  I    0.000000   0.000010   0.001367  -0.000437  -0.053763   0.251559
    16  H    0.000000   0.000001   0.000000   0.000000   0.000000   0.000000
    17  H    0.001846   0.000030   0.000001   0.000000   0.000000   0.000000
    18  H    0.000000   0.000002   0.000000   0.000000   0.000000   0.000000
    19  H    0.001831   0.316959  -0.027763   0.000853   0.000080   0.000008
    20  H    0.000002  -0.002977  -0.039706   0.379997  -0.027744   0.004091
    21  H    0.000000  -0.000074   0.001916  -0.027487   0.383214  -0.026865
    22  H   -0.000003  -0.000069   0.001795   0.000182   0.002317  -0.028615
    23  H    0.012447  -0.004766  -0.020020   0.002857  -0.000303   0.003488
              13         14         15         16         17         18
     1  C    0.000000   0.000000   0.000000   0.372235  -0.020343  -0.025255
     2  C    0.000000   0.000005   0.000000  -0.018978   0.368522   0.001600
     3  C    0.000002   0.000154   0.000000   0.002446  -0.016444   0.003354
     4  O    0.000000  -0.000005   0.000000   0.002486   0.002270  -0.029069
     5  C    0.000000   0.000000   0.000000  -0.021275   0.002454   0.386127
     6  C    0.000089  -0.003042   0.000000  -0.000047  -0.000027   0.000004
     7  O    0.000478  -0.011214   0.000000   0.000000   0.001846   0.000000
     8  N    0.004331  -0.047142   0.000010   0.000001   0.000030   0.000002
     9  C   -0.008558   0.557454   0.001367   0.000000   0.000001   0.000000
    10  C   -0.053164  -0.027381  -0.000437   0.000000   0.000000   0.000000
    11  C   -0.010192  -0.051962  -0.053763   0.000000   0.000000   0.000000
    12  C    0.457472  -0.008169   0.251559   0.000000   0.000000   0.000000
    13  C    4.963218   0.476353  -0.054171   0.000000   0.000000   0.000000
    14  C    0.476353   5.014471  -0.001020   0.000000   0.000000   0.000000
    15  I   -0.054171  -0.001020   6.677549   0.000000   0.000000   0.000000
    16  H    0.000000   0.000000   0.000000   0.428842   0.000000   0.000807
    17  H    0.000000   0.000000   0.000000   0.000000   0.400710  -0.000050
    18  H    0.000000   0.000000   0.000000   0.000807  -0.000050   0.420069
    19  H   -0.000068   0.001801   0.000000  -0.000001  -0.000015  -0.000022
    20  H   -0.000229   0.003119  -0.000173   0.000000   0.000000   0.000000
    21  H    0.002320   0.000072   0.000251   0.000000   0.000000   0.000000
    22  H    0.383793  -0.025882   0.000015   0.000000   0.000000   0.000000
    23  H   -0.031045   0.367692  -0.000134   0.000000   0.000000   0.000000
              19         20         21         22         23
     1  C    0.000052   0.000000   0.000000   0.000000   0.000000
     2  C    0.000233   0.000000   0.000000   0.000000  -0.000001
     3  C   -0.004946   0.000008   0.000000   0.000000   0.000321
     4  O    0.009591  -0.000022   0.000000   0.000000  -0.000002
     5  C    0.000022   0.000000   0.000000   0.000000   0.000000
     6  C   -0.016884   0.000084   0.000000   0.000000   0.000119
     7  O    0.001831   0.000002   0.000000  -0.000003   0.012447
     8  N    0.316959  -0.002977  -0.000074  -0.000069  -0.004766
     9  C   -0.027763  -0.039706   0.001916   0.001795  -0.020020
    10  C    0.000853   0.379997  -0.027487   0.000182   0.002857
    11  C    0.000080  -0.027744   0.383214   0.002317  -0.000303
    12  C    0.000008   0.004091  -0.026865  -0.028615   0.003488
    13  C   -0.000068  -0.000229   0.002320   0.383793  -0.031045
    14  C    0.001801   0.003119   0.000072  -0.025882   0.367692
    15  I    0.000000  -0.000173   0.000251   0.000015  -0.000134
    16  H   -0.000001   0.000000   0.000000   0.000000   0.000000
    17  H   -0.000015   0.000000   0.000000   0.000000   0.000000
    18  H   -0.000022   0.000000   0.000000   0.000000   0.000000
    19  H    0.282910   0.004267  -0.000009   0.000002  -0.000121
    20  H    0.004267   0.473481  -0.001997   0.000007  -0.000079
    21  H   -0.000009  -0.001997   0.441106  -0.000084   0.000005
    22  H    0.000002   0.000007  -0.000084   0.437930  -0.001406
    23  H   -0.000121  -0.000079   0.000005  -0.001406   0.378863
 Mulliken charges:
               1
     1  C   -0.298456
     2  C   -0.195139
     3  C    0.270311
     4  O   -0.655619
     5  C    0.155573
     6  C    0.819096
     7  O   -0.637966
     8  N   -0.974450
     9  C    0.394107
    10  C   -0.265057
    11  C   -0.128913
    12  C   -0.412284
    13  C   -0.130630
    14  C   -0.245302
    15  I    0.178948
    16  H    0.233483
    17  H    0.261045
    18  H    0.242434
    19  H    0.431218
    20  H    0.207869
    21  H    0.227633
    22  H    0.230019
    23  H    0.292082
 Sum of Mulliken charges =   0.00000
 Mulliken charges with hydrogens summed into heavy atoms:
               1
     1  C   -0.064973
     2  C    0.065906
     3  C    0.270311
     4  O   -0.655619
     5  C    0.398006
     6  C    0.819096
     7  O   -0.637966
     8  N   -0.543233
     9  C    0.394107
    10  C   -0.057189
    11  C    0.098720
    12  C   -0.412284
    13  C    0.099389
    14  C    0.046781
    15  I    0.178948
 DipInt: DoE/N= T F RetVal/Mat= T F Init=T NMatP=  1 IDeriv=0 Min/MaxMlt=  0  4
 Entering OneElI...
 OneElI was handed   235786882 working-precision words.
 Multipole integrals L=0 to 4 MinM= 0 MaxM= 0.
 Requested accuracy = 0.1000D-12
 PrtBox:  NBox=     1 Levels=  1 BoxLen=   45.18 SMaxX=       22.61
          Shift=           14.612780            4.370213            0.001124
 Box      1 Number                   0 centers from      1 to     76:
 ShPair: Thresh= 1.00D-13 NBox=     1 BxSize= 4.52D+01 RnKept= 2.26D+01
         NSMCal=                 2926 NSMKep=                2381
 PrsmSu:  NPrtUS=   1 ThrOK=F IAlg=1 NPAlg=1 LenDen=           0.
 Prism:   IPart=     0 DynPar=F LinDyn=F Incr=          23.
 PRISM was handed   235562111 working-precision words and  2381 shell-pairs
 IPart=  0 NShTot=        2381 NBatch=          97 AvBLen=        24.5
 PrSmSu:  NxtVal=             24.
 Electronic moments (au):
       -104.00000000        365.95133804         -2.83993911         -0.00535993
      -5219.29028138       -512.48672992        -78.98724412         -5.14400020
         -0.04666915         -0.00422927      42079.49517156       -118.84626364
         -0.00857145       1822.45006479       1209.22453548          0.46800518
        136.49497902          1.63635825         -0.12070534          0.48774986
    -553607.82342554      -5920.62946343       -330.18440548     -17289.23234032
         -4.72370246        703.12127542         -0.05078294         -0.04046786
          0.01930723     -22180.10141834      -4191.19690846       -373.64244858
         -3.09643645          0.02779069         -3.71507466
 Electronic spatial extent (au):  <R**2>=           5810.7643
 DipInt: DoE/N= F T RetVal/Mat= T F Init=T NMatP=  1 IDeriv=0 Min/MaxMlt=  0  4
 Nuclear    moments (au):
        104.00000000       -367.82669314          1.56012243          0.00556509
       5163.79485395        441.60210539          0.00003400         12.47510163
          0.04454791         -0.00023732     -42057.89902289         86.18504437
          0.00000000      -1708.21438372      -1255.33853295         -0.45323152
         -0.00011287         -0.00002272          0.11683358         -0.48201752
     535770.12984240       4243.55095597          0.00000000      17697.21549223
          4.42740932       -497.60240120          0.00501986          0.00000009
          0.00000000      18417.97602604          0.00123659          0.00028505
          3.06140169         -0.02046020          0.00001599
 Total      moments (au):
          0.00000000         -1.87535511         -1.27981668          0.00020516
        -55.49542743        -70.88462453        -78.98721011          7.33110143
         -0.00212123         -0.00446659         21.59614867        -32.66121927
         -0.00857145        114.23568107        -46.11399747          0.01477366
        136.49486616          1.63633553         -0.00387176          0.00573234
     -17837.69358314      -1677.07850746       -330.18440548        407.98315191
         -0.29629314        205.51887422         -0.04576308         -0.04046777
          0.01930723      -3762.12539230      -4191.19567187       -373.64216354
         -0.03503476          0.00733049         -3.71505866
 Traceless Quadrup. (au):
         12.96032660         -2.42887051        -10.53145609          7.33110143
         -0.00212123         -0.00446659
 Charge=              0.0000 electrons
 Dipole moment (field-independent basis, Debye):
    X=             -4.7667    Y=             -3.2530    Z=              0.0005  Tot=              5.7709
 Quadrupole moment (field-independent basis, Debye-Ang):
   XX=            -74.6432   YY=            -95.3422   ZZ=           -106.2405
   XY=              9.8606   XZ=             -0.0029   YZ=             -0.0060
 Traceless Quadrupole moment (field-independent basis, Debye-Ang):
   XX=             17.4321   YY=             -3.2669   ZZ=            -14.1652
   XY=              9.8606   XZ=             -0.0029   YZ=             -0.0060
 Octapole moment (field-independent basis, Debye-Ang**2):
  XXX=             15.3713  YYY=            -23.2470  ZZZ=             -0.0061  XYY=             81.3086
  XXY=            -32.8222  XXZ=              0.0105  XZZ=             97.1518  YZZ=              1.1647
  YYZ=             -0.0028  XYZ=              0.0041
 Hexadecapole moment (field-independent basis, Debye-Ang**3):
 XXXX=          -6718.5303 YYYY=           -631.6681 ZZZZ=           -124.3633 XXXY=            153.6660
 XXXZ=             -0.1116 YYYX=             77.4083 YYYZ=             -0.0172 ZZZX=             -0.0152
 ZZZY=              0.0073 XXYY=          -1416.9967 XXZZ=          -1578.6052 YYZZ=           -140.7315
 XXYZ=             -0.0132 YYXZ=              0.0028 ZZXY=             -1.3993
 N-N= 8.523827483809D+02 E-N=-3.188789716716D+03  KE= 6.275455276240D+02
 Entering OneElI...
 OneElI was handed   235819938 working-precision words.
 Calculate electrostatic properties
    NBasis =   220  MinDer = 0  MaxDer = 0
    NGrid  =    23  NMatD  =   1
 Requested accuracy = 0.1000D-12
 PrtBox:  NBox=     1 Levels=  1 BoxLen=   37.65 SMaxX=       22.61
          Shift=           14.612780            4.370213            0.001124
 Box      1 Number                   0 centers from      1 to     76:
 ShPair: Thresh= 1.00D-13 NBox=     1 BxSize= 3.77D+01 RnKept= 2.06D+01
         NSMCal=                 2926 NSMKep=                2145
 PrsmSu:  NPrtUS=   1 ThrOK=F IAlg=1 NPAlg=1 LenDen=           0.
 Prism:   IPart=     0 DynPar=F LinDyn=F Incr=         493.
 PRISM was handed   235613808 working-precision words and  2145 shell-pairs
 IPart=  0 NShTot=       49335 NBatch=        2145 AvBLen=        23.0
 PrSmSu:  NxtVal=            494.
 --------------------------------------------------------
       Center         ----      EFG at Nuclei      ----
                      3XX-RR        3YY-RR        3ZZ-RR
 --------------------------------------------------------
     1   Atom        0.111063      0.090335     -0.201398
     2   Atom        0.144143      0.184427     -0.328570
     3   Atom        0.266115     -0.299425      0.033310
     4   Atom       -0.533014     -0.405150      0.938164
     5   Atom       -0.239760      0.376417     -0.136656
     6   Atom        0.207869      0.285727     -0.493595
     7   Atom        1.592487     -0.941243     -0.651244
     8   Atom       -0.524595     -0.417126      0.941721
     9   Atom       -0.088374      0.356333     -0.267959
    10   Atom        0.143953      0.071964     -0.215917
    11   Atom        0.183370      0.148690     -0.332061
    12   Atom       -0.303075      0.343562     -0.040487
    13   Atom        0.196950      0.150673     -0.347623
    14   Atom        0.150851      0.140482     -0.291334
    15   Atom       -0.086693      0.041756      0.044938
    16   Atom       -0.309271      0.137337      0.171934
    17   Atom        0.148343     -0.313094      0.164751
    18   Atom        0.091956     -0.263950      0.171994
    19   Atom        0.082320     -0.318158      0.235838
    20   Atom        0.035742     -0.207695      0.171954
    21   Atom        0.022976     -0.189393      0.166417
    22   Atom        0.044509     -0.210369      0.165860
    23   Atom        0.029851     -0.192006      0.162155
 --------------------------------------------------------
                        XY            XZ            YZ
 --------------------------------------------------------
     1   Atom       -0.017235     -0.000075      0.000136
     2   Atom       -0.013092     -0.000070      0.000119
     3   Atom       -0.129823     -0.000060     -0.000173
     4   Atom       -0.995640      0.000617     -0.000518
     5   Atom       -0.097250      0.000089      0.000101
     6   Atom        0.106075      0.000123      0.000170
     7   Atom       -0.477924      0.000199     -0.000385
     8   Atom        0.027601      0.000146      0.000388
     9   Atom       -0.008848     -0.000010     -0.000148
    10   Atom       -0.014317      0.000027     -0.000068
    11   Atom       -0.009513      0.000027     -0.000148
    12   Atom       -0.024582      0.000025     -0.000107
    13   Atom        0.017031      0.000005     -0.000129
    14   Atom       -0.059722      0.000028     -0.000097
    15   Atom       -0.004108      0.000014      0.000001
    16   Atom        0.072364      0.000055     -0.000006
    17   Atom        0.048515      0.000008     -0.000097
    18   Atom       -0.142643     -0.000009     -0.000060
    19   Atom       -0.169826      0.000091      0.000245
    20   Atom       -0.184192      0.000028      0.000063
    21   Atom        0.198231     -0.000067      0.000118
    22   Atom       -0.185273      0.000046      0.000094
    23   Atom        0.191879     -0.000066      0.000103
 --------------------------------------------------------


 ---------------------------------------------------------------------------------
              Nuclear Quadrupole Coupling Constant in Principal Axis System
 ---------------------------------------------------------------------------------

       Atom             a.u.   MegaHertz   Gauss  10(-4) cm-1        Axes

              Baa    -0.5313     2.552     0.910     0.851  0.9720 -0.2350  0.0000
     8 N(14)  Bbb    -0.4105     1.971     0.703     0.658  0.2350  0.9720 -0.0003
              Bcc     0.9417    -4.523    -1.614    -1.509  0.0001  0.0003  1.0000
 
              Baa    -0.0868   -14.485    -5.168    -4.832  0.9995  0.0319 -0.0001
    15 I(127) Bbb     0.0419     6.988     2.493     2.331 -0.0319  0.9995 -0.0003
              Bcc     0.0449     7.497     2.675     2.501  0.0001  0.0003  1.0000
 

 ---------------------------------------------------------------------------------

 No NMR shielding tensors so no spin-rotation constants.
 Leave Link  601 at Fri Jan 17 11:56:52 2014, MaxMem=   235929600 cpu:         0.3
 FitSet:  NAtFit=    23 NAtPot=    23 NAtFrz=     0 MDM=    27 TotChg=   0.00000
 Merz-Kollman atomic radii used.
 Read replacement radii for each type of atom:
 Rad(53) =   2.700000000000D+00
 Atom Element Radius
    1     6    1.50
    2     6    1.50
    3     6    1.50
    4     8    1.40
    5     6    1.50
    6     6    1.50
    7     8    1.40
    8     7    1.50
    9     6    1.50
   10     6    1.50
   11     6    1.50
   12     6    1.50
   13     6    1.50
   14     6    1.50
   15    53    2.70
   16     1    1.20
   17     1    1.20
   18     1    1.20
   19     1    1.20
   20     1    1.20
   21     1    1.20
   22     1    1.20
   23     1    1.20
 Generate VDW surfaces: Layer= 5 Dens= 2 Start= 1.400 Inc= 0.179

 **********************************************************************

            Electrostatic Properties Using The SCF Density

 **********************************************************************

       Atomic Center    1 is at  -6.665280 -0.074050 -0.000003
       Atomic Center    2 is at  -5.630940  0.911216  0.000123
       Atomic Center    3 is at  -4.446701  0.229152 -0.000091
       Atomic Center    4 is at  -4.686801 -1.124421 -0.000595
       Atomic Center    5 is at  -6.038478 -1.285580 -0.000084
       Atomic Center    6 is at  -3.055648  0.719192  0.000089
       Atomic Center    7 is at  -2.815001  1.922107  0.000464
       Atomic Center    8 is at  -2.108361 -0.282580 -0.000043
       Atomic Center    9 is at  -0.707400 -0.163726  0.000063
       Atomic Center   10 is at   0.042698 -1.350803  0.000390
       Atomic Center   11 is at   1.434652 -1.317763  0.000472
       Atomic Center   12 is at   2.087850 -0.086054  0.000124
       Atomic Center   13 is at   1.357693  1.100495 -0.000230
       Atomic Center   14 is at  -0.037143  1.069860 -0.000227
       Atomic Center   15 is at   4.231424 -0.017947 -0.000064
       Atomic Center   16 is at  -7.732750  0.095469  0.000113
       Atomic Center   17 is at  -5.732004  1.986460  0.000334
       Atomic Center   18 is at  -6.388689 -2.306672 -0.000230
       Atomic Center   19 is at  -2.471027 -1.227611  0.000400
       Atomic Center   20 is at  -0.466202 -2.312617  0.000539
       Atomic Center   21 is at   1.994459 -2.246660  0.000787
       Atomic Center   22 is at   1.863501  2.059821 -0.000465
       Atomic Center   23 is at  -0.607631  1.987963 -0.000490
      ESP Fit Center   24 is at  -6.665280 -0.074050  2.099997
      ESP Fit Center   25 is at  -5.947038 -0.074050  1.973351
      ESP Fit Center   26 is at  -6.306159  0.547966  1.973351
      ESP Fit Center   27 is at  -7.024401  0.547966  1.973351
      ESP Fit Center   28 is at  -7.383522 -0.074050  1.973351
      ESP Fit Center   29 is at  -7.024401 -0.696066  1.973351
      ESP Fit Center   30 is at  -7.549246  0.946102  1.608690
      ESP Fit Center   31 is at  -7.960455 -0.454348  1.608690
      ESP Fit Center   32 is at  -7.549246 -1.094201  1.608690
      ESP Fit Center   33 is at  -7.574607  1.500950  1.049997
      ESP Fit Center   34 is at  -7.574607  1.500950 -1.050003
      ESP Fit Center   35 is at  -7.549246  0.946102 -1.608696
      ESP Fit Center   36 is at  -7.960455 -0.454348 -1.608696
      ESP Fit Center   37 is at  -7.549246 -1.094201 -1.608696
      ESP Fit Center   38 is at  -5.947038 -0.074050 -1.973358
      ESP Fit Center   39 is at  -6.306159  0.547966 -1.973358
      ESP Fit Center   40 is at  -7.024401  0.547966 -1.973358
      ESP Fit Center   41 is at  -7.383522 -0.074050 -1.973358
      ESP Fit Center   42 is at  -7.024401 -0.696066 -1.973358
      ESP Fit Center   43 is at  -6.665280 -0.074050 -2.100003
      ESP Fit Center   44 is at  -5.630940  0.911216  2.100123
      ESP Fit Center   45 is at  -4.912698  0.911216  1.973477
      ESP Fit Center   46 is at  -5.271819  1.533232  1.973477
      ESP Fit Center   47 is at  -5.990061  1.533232  1.973477
      ESP Fit Center   48 is at  -6.349182  0.911216  1.973477
      ESP Fit Center   49 is at  -5.990061  0.289200  1.973477
      ESP Fit Center   50 is at  -5.271819  0.289200  1.973477
      ESP Fit Center   51 is at  -4.495371  1.641002  1.608816
      ESP Fit Center   52 is at  -5.070190  2.139087  1.608816
      ESP Fit Center   53 is at  -6.514906  1.931368  1.608816
      ESP Fit Center   54 is at  -6.926115  1.291514  1.608816
      ESP Fit Center   55 is at  -7.102261  1.980194  1.050123
      ESP Fit Center   56 is at  -7.389271  1.999929  0.364784
      ESP Fit Center   57 is at  -7.389271  1.999929 -0.364538
      ESP Fit Center   58 is at  -7.102261  1.980194 -1.049877
      ESP Fit Center   59 is at  -4.495371  1.641002 -1.608570
      ESP Fit Center   60 is at  -5.070190  2.139087 -1.608570
      ESP Fit Center   61 is at  -6.514906  1.931368 -1.608570
      ESP Fit Center   62 is at  -6.926115  1.291514 -1.608570
      ESP Fit Center   63 is at  -4.912698  0.911216 -1.973232
      ESP Fit Center   64 is at  -5.271819  1.533232 -1.973232
      ESP Fit Center   65 is at  -5.990061  1.533232 -1.973232
      ESP Fit Center   66 is at  -6.349182  0.911216 -1.973232
      ESP Fit Center   67 is at  -5.990061  0.289200 -1.973232
      ESP Fit Center   68 is at  -5.271819  0.289200 -1.973232
      ESP Fit Center   69 is at  -5.630940  0.911216 -2.099877
      ESP Fit Center   70 is at  -4.446701  0.229152  2.099909
      ESP Fit Center   71 is at  -3.728459  0.229152  1.973263
      ESP Fit Center   72 is at  -4.087580  0.851168  1.973263
      ESP Fit Center   73 is at  -4.805822  0.851168  1.973263
      ESP Fit Center   74 is at  -5.164943  0.229152  1.973263
      ESP Fit Center   75 is at  -4.805822 -0.392864  1.973263
      ESP Fit Center   76 is at  -4.087580 -0.392864  1.973263
      ESP Fit Center   77 is at  -3.728459  0.229152 -1.973446
      ESP Fit Center   78 is at  -4.087580  0.851168 -1.973446
      ESP Fit Center   79 is at  -4.805822  0.851168 -1.973446
      ESP Fit Center   80 is at  -5.164943  0.229152 -1.973446
      ESP Fit Center   81 is at  -4.805822 -0.392864 -1.973446
      ESP Fit Center   82 is at  -4.087580 -0.392864 -1.973446
      ESP Fit Center   83 is at  -4.446701  0.229152 -2.100091
      ESP Fit Center   84 is at  -4.686801 -1.124421  1.959405
      ESP Fit Center   85 is at  -3.936742 -1.124421  1.810209
      ESP Fit Center   86 is at  -5.061831 -1.773991  1.810209
      ESP Fit Center   87 is at  -4.311771 -1.773991  1.810209
      ESP Fit Center   88 is at  -4.686801 -2.510350  1.385334
      ESP Fit Center   89 is at  -3.993836 -2.324671  1.385334
      ESP Fit Center   90 is at  -3.486551 -1.817386  1.385334
      ESP Fit Center   91 is at  -4.876082 -2.925305  0.749465
      ESP Fit Center   92 is at  -4.127232 -2.846598  0.749465
      ESP Fit Center   93 is at  -3.475137 -2.470110  0.749465
      ESP Fit Center   94 is at  -4.505955 -3.076060 -0.000595
      ESP Fit Center   95 is at  -3.813154 -2.878941 -0.000595
      ESP Fit Center   96 is at  -4.876082 -2.925305 -0.750655
      ESP Fit Center   97 is at  -4.127232 -2.846598 -0.750655
      ESP Fit Center   98 is at  -3.475137 -2.470110 -0.750655
      ESP Fit Center   99 is at  -4.686801 -2.510350 -1.386524
      ESP Fit Center  100 is at  -3.993836 -2.324671 -1.386524
      ESP Fit Center  101 is at  -3.486551 -1.817386 -1.386524
      ESP Fit Center  102 is at  -3.936742 -1.124421 -1.811399
      ESP Fit Center  103 is at  -5.061831 -1.773991 -1.811399
      ESP Fit Center  104 is at  -4.311771 -1.773991 -1.811399
      ESP Fit Center  105 is at  -4.686801 -1.124421 -1.960595
      ESP Fit Center  106 is at  -6.038478 -1.285580  2.099916
      ESP Fit Center  107 is at  -5.320236 -1.285580  1.973270
      ESP Fit Center  108 is at  -5.679357 -0.663564  1.973270
      ESP Fit Center  109 is at  -6.756720 -1.285580  1.973270
      ESP Fit Center  110 is at  -6.397599 -1.907596  1.973270
      ESP Fit Center  111 is at  -5.679357 -1.907596  1.973270
      ESP Fit Center  112 is at  -7.333654 -1.665878  1.608609
      ESP Fit Center  113 is at  -6.922444 -2.305731  1.608609
      ESP Fit Center  114 is at  -5.477728 -2.513450  1.608609
      ESP Fit Center  115 is at  -7.817390 -1.663699  1.049916
      ESP Fit Center  116 is at  -8.071361 -1.665591  0.364577
      ESP Fit Center  117 is at  -8.071361 -1.665591 -0.364745
      ESP Fit Center  118 is at  -7.817390 -1.663699 -1.050084
      ESP Fit Center  119 is at  -7.333654 -1.665878 -1.608777
      ESP Fit Center  120 is at  -6.922444 -2.305731 -1.608777
      ESP Fit Center  121 is at  -5.477728 -2.513450 -1.608777
      ESP Fit Center  122 is at  -5.320236 -1.285580 -1.973439
      ESP Fit Center  123 is at  -5.679357 -0.663564 -1.973439
      ESP Fit Center  124 is at  -6.756720 -1.285580 -1.973439
      ESP Fit Center  125 is at  -6.397599 -1.907596 -1.973439
      ESP Fit Center  126 is at  -5.679357 -1.907596 -1.973439
      ESP Fit Center  127 is at  -6.038478 -1.285580 -2.100084
      ESP Fit Center  128 is at  -3.055648  0.719192  2.100089
      ESP Fit Center  129 is at  -2.337406  0.719192  1.973443
      ESP Fit Center  130 is at  -2.696527  1.341208  1.973443
      ESP Fit Center  131 is at  -3.414769  1.341208  1.973443
      ESP Fit Center  132 is at  -3.773890  0.719192  1.973443
      ESP Fit Center  133 is at  -3.414769  0.097176  1.973443
      ESP Fit Center  134 is at  -3.939614  1.739344  1.608782
      ESP Fit Center  135 is at  -3.939614  1.739344 -1.608604
      ESP Fit Center  136 is at  -2.337406  0.719192 -1.973266
      ESP Fit Center  137 is at  -2.696527  1.341208 -1.973266
      ESP Fit Center  138 is at  -3.414769  1.341208 -1.973266
      ESP Fit Center  139 is at  -3.773890  0.719192 -1.973266
      ESP Fit Center  140 is at  -3.414769  0.097176 -1.973266
      ESP Fit Center  141 is at  -3.055648  0.719192 -2.099911
      ESP Fit Center  142 is at  -2.815001  1.922107  1.960464
      ESP Fit Center  143 is at  -2.064941  1.922107  1.811268
      ESP Fit Center  144 is at  -2.439971  2.571678  1.811268
      ESP Fit Center  145 is at  -3.190031  2.571678  1.811268
      ESP Fit Center  146 is at  -3.565060  1.922107  1.811268
      ESP Fit Center  147 is at  -1.614751  2.615072  1.386393
      ESP Fit Center  148 is at  -2.122036  3.122357  1.386393
      ESP Fit Center  149 is at  -2.815001  3.308036  1.386393
      ESP Fit Center  150 is at  -3.507966  3.122357  1.386393
      ESP Fit Center  151 is at  -4.015251  2.615072  1.386393
      ESP Fit Center  152 is at  -4.200930  1.922107  1.386393
      ESP Fit Center  153 is at  -1.603337  3.267797  0.750524
      ESP Fit Center  154 is at  -2.255432  3.644284  0.750524
      ESP Fit Center  155 is at  -3.004281  3.722991  0.750524
      ESP Fit Center  156 is at  -3.720403  3.490309  0.750524
      ESP Fit Center  157 is at  -4.279972  2.986471  0.750524
      ESP Fit Center  158 is at  -1.941354  3.676627  0.000464
      ESP Fit Center  159 is at  -2.634155  3.873746  0.000464
      ESP Fit Center  160 is at  -3.351380  3.807285  0.000464
      ESP Fit Center  161 is at  -3.996165  3.486221  0.000464
      ESP Fit Center  162 is at  -1.603337  3.267797 -0.749596
      ESP Fit Center  163 is at  -2.255432  3.644284 -0.749596
      ESP Fit Center  164 is at  -3.004281  3.722991 -0.749596
      ESP Fit Center  165 is at  -3.720403  3.490309 -0.749596
      ESP Fit Center  166 is at  -4.279972  2.986471 -0.749596
      ESP Fit Center  167 is at  -1.614751  2.615072 -1.385465
      ESP Fit Center  168 is at  -2.122036  3.122357 -1.385465
      ESP Fit Center  169 is at  -2.815001  3.308036 -1.385465
      ESP Fit Center  170 is at  -3.507966  3.122357 -1.385465
      ESP Fit Center  171 is at  -4.015251  2.615072 -1.385465
      ESP Fit Center  172 is at  -4.200930  1.922107 -1.385465
      ESP Fit Center  173 is at  -2.064941  1.922107 -1.810340
      ESP Fit Center  174 is at  -2.439971  2.571678 -1.810340
      ESP Fit Center  175 is at  -3.190031  2.571678 -1.810340
      ESP Fit Center  176 is at  -3.565060  1.922107 -1.810340
      ESP Fit Center  177 is at  -2.815001  1.922107 -1.959536
      ESP Fit Center  178 is at  -2.108361 -0.282580  2.099957
      ESP Fit Center  179 is at  -1.749240  0.339436  1.973311
      ESP Fit Center  180 is at  -2.826603 -0.282580  1.973311
      ESP Fit Center  181 is at  -2.467482 -0.904596  1.973311
      ESP Fit Center  182 is at  -1.749240 -0.904596  1.973311
      ESP Fit Center  183 is at  -1.547611  0.945290  1.608650
      ESP Fit Center  184 is at  -3.403536 -0.662878  1.608650
      ESP Fit Center  185 is at  -2.992327 -1.302732  1.608650
      ESP Fit Center  186 is at  -1.547611 -1.510450  1.608650
      ESP Fit Center  187 is at  -1.547611  0.945290 -1.608736
      ESP Fit Center  188 is at  -3.403536 -0.662878 -1.608736
      ESP Fit Center  189 is at  -2.992327 -1.302732 -1.608736
      ESP Fit Center  190 is at  -1.547611 -1.510450 -1.608736
      ESP Fit Center  191 is at  -1.749240  0.339436 -1.973398
      ESP Fit Center  192 is at  -2.826603 -0.282580 -1.973398
      ESP Fit Center  193 is at  -2.467482 -0.904596 -1.973398
      ESP Fit Center  194 is at  -1.749240 -0.904596 -1.973398
      ESP Fit Center  195 is at  -2.108361 -0.282580 -2.100043
      ESP Fit Center  196 is at  -0.707400 -0.163726  2.100063
      ESP Fit Center  197 is at   0.010842 -0.163726  1.973417
      ESP Fit Center  198 is at  -1.066521  0.458290  1.973417
      ESP Fit Center  199 is at  -1.066521 -0.785742  1.973417
      ESP Fit Center  200 is at   0.010842 -0.163726 -1.973292
      ESP Fit Center  201 is at  -1.066521  0.458290 -1.973292
      ESP Fit Center  202 is at  -1.066521 -0.785742 -1.973292
      ESP Fit Center  203 is at  -0.707400 -0.163726 -2.099937
      ESP Fit Center  204 is at   0.042698 -1.350803  2.100390
      ESP Fit Center  205 is at   0.401819 -0.728787  1.973744
      ESP Fit Center  206 is at  -0.675544 -1.350803  1.973744
      ESP Fit Center  207 is at  -0.316423 -1.972819  1.973744
      ESP Fit Center  208 is at   0.401819 -1.972819  1.973744
      ESP Fit Center  209 is at  -1.252478 -1.731101  1.609083
      ESP Fit Center  210 is at  -0.149406 -2.686918  1.609083
      ESP Fit Center  211 is at   0.603447 -2.578674  1.609083
      ESP Fit Center  212 is at   0.604693 -3.080445  1.050390
      ESP Fit Center  213 is at   0.604693 -3.080445 -1.049610
      ESP Fit Center  214 is at  -1.252478 -1.731101 -1.608303
      ESP Fit Center  215 is at  -0.149406 -2.686918 -1.608303
      ESP Fit Center  216 is at   0.603447 -2.578674 -1.608303
      ESP Fit Center  217 is at   0.401819 -0.728787 -1.972965
      ESP Fit Center  218 is at  -0.675544 -1.350803 -1.972965
      ESP Fit Center  219 is at  -0.316423 -1.972819 -1.972965
      ESP Fit Center  220 is at   0.401819 -1.972819 -1.972965
      ESP Fit Center  221 is at   0.042698 -1.350803 -2.099610
      ESP Fit Center  222 is at   1.075531 -0.695747  1.973826
      ESP Fit Center  223 is at   1.075531 -1.939779  1.973826
      ESP Fit Center  224 is at   1.242548 -2.653878  1.609165
      ESP Fit Center  225 is at   1.242548 -2.653878 -1.608221
      ESP Fit Center  226 is at   1.075531 -0.695747 -1.972883
      ESP Fit Center  227 is at   1.075531 -1.939779 -1.972883
      ESP Fit Center  228 is at   0.998572  1.722511  1.973124
      ESP Fit Center  229 is at   0.998572  0.478479  1.973124
      ESP Fit Center  230 is at   1.165589  2.436609  1.608463
      ESP Fit Center  231 is at   1.165589  2.436609 -1.608923
      ESP Fit Center  232 is at   0.998572  1.722511 -1.973585
      ESP Fit Center  233 is at   0.998572  0.478479 -1.973585
      ESP Fit Center  234 is at  -0.037143  1.069860  2.099773
      ESP Fit Center  235 is at   0.321978  1.691876  1.973127
      ESP Fit Center  236 is at  -0.396264  1.691876  1.973127
      ESP Fit Center  237 is at  -0.755385  1.069860  1.973127
      ESP Fit Center  238 is at   0.321978  0.447844  1.973127
      ESP Fit Center  239 is at   0.523607  2.297730  1.608466
      ESP Fit Center  240 is at  -0.229247  2.405974  1.608466
      ESP Fit Center  241 is at  -1.332318  1.450158  1.608466
      ESP Fit Center  242 is at   0.524852  2.799502  1.049773
      ESP Fit Center  243 is at   0.524852  2.799502 -1.050227
      ESP Fit Center  244 is at   0.523607  2.297730 -1.608920
      ESP Fit Center  245 is at  -0.229247  2.405974 -1.608920
      ESP Fit Center  246 is at  -1.332318  1.450158 -1.608920
      ESP Fit Center  247 is at   0.321978  1.691876 -1.973582
      ESP Fit Center  248 is at  -0.396264  1.691876 -1.973582
      ESP Fit Center  249 is at  -0.755385  1.069860 -1.973582
      ESP Fit Center  250 is at   0.321978  0.447844 -1.973582
      ESP Fit Center  251 is at  -0.037143  1.069860 -2.100227
      ESP Fit Center  252 is at   4.231424 -0.017947  3.779936
      ESP Fit Center  253 is at   4.968865 -0.017947  3.707304
      ESP Fit Center  254 is at   4.600145  0.620696  3.707304
      ESP Fit Center  255 is at   3.862703  0.620696  3.707304
      ESP Fit Center  256 is at   3.493983 -0.017947  3.707304
      ESP Fit Center  257 is at   3.862703 -0.656590  3.707304
      ESP Fit Center  258 is at   4.600145 -0.656590  3.707304
      ESP Fit Center  259 is at   5.677967 -0.017947  3.492201
      ESP Fit Center  260 is at   5.484167  0.705324  3.492201
      ESP Fit Center  261 is at   4.954696  1.234796  3.492201
      ESP Fit Center  262 is at   4.231424  1.428596  3.492201
      ESP Fit Center  263 is at   3.508152  1.234796  3.492201
      ESP Fit Center  264 is at   2.978681  0.705324  3.492201
      ESP Fit Center  265 is at   2.784881 -0.017947  3.492201
      ESP Fit Center  266 is at   2.978681 -0.741219  3.492201
      ESP Fit Center  267 is at   3.508152 -1.270691  3.492201
      ESP Fit Center  268 is at   4.231424 -1.464491  3.492201
      ESP Fit Center  269 is at   4.954696 -1.270691  3.492201
      ESP Fit Center  270 is at   5.484167 -0.741219  3.492201
      ESP Fit Center  271 is at   6.331479 -0.017947  3.142891
      ESP Fit Center  272 is at   6.204831  0.700314  3.142891
      ESP Fit Center  273 is at   5.840160  1.331942  3.142891
      ESP Fit Center  274 is at   5.281452  1.800754  3.142891
      ESP Fit Center  275 is at   4.596095  2.050204  3.142891
      ESP Fit Center  276 is at   3.866753  2.050204  3.142891
      ESP Fit Center  277 is at   3.181396  1.800754  3.142891
      ESP Fit Center  278 is at   2.622688  1.331942  3.142891
      ESP Fit Center  279 is at   2.258017  0.700314  3.142891
      ESP Fit Center  280 is at   2.131368 -0.017947  3.142891
      ESP Fit Center  281 is at   2.258017 -0.736209  3.142891
      ESP Fit Center  282 is at   2.622688 -1.367837  3.142891
      ESP Fit Center  283 is at   3.181396 -1.836649  3.142891
      ESP Fit Center  284 is at   3.866753 -2.086098  3.142891
      ESP Fit Center  285 is at   4.596095 -2.086098  3.142891
      ESP Fit Center  286 is at   5.281452 -1.836649  3.142891
      ESP Fit Center  287 is at   5.840160 -1.367837  3.142891
      ESP Fit Center  288 is at   6.204831 -0.736209  3.142891
      ESP Fit Center  289 is at   6.904288 -0.017947  2.672800
      ESP Fit Center  290 is at   6.805171  0.703183  2.672800
      ESP Fit Center  291 is at   6.515171  1.370830  2.672800
      ESP Fit Center  292 is at   6.055795  1.935477  2.672800
      ESP Fit Center  293 is at   5.461115  2.355249  2.672800
      ESP Fit Center  294 is at   4.775234  2.599011  2.672800
      ESP Fit Center  295 is at   4.049021  2.648685  2.672800
      ESP Fit Center  296 is at   3.336336  2.500588  2.672800
      ESP Fit Center  297 is at   2.690036  2.165702  2.672800
      ESP Fit Center  298 is at   2.158053  1.668865  2.672800
      ESP Fit Center  299 is at   1.779843  1.046924  2.672800
      ESP Fit Center  300 is at   1.583456  0.346007  2.672800
      ESP Fit Center  301 is at   1.583456 -0.381902  2.672800
      ESP Fit Center  302 is at   1.779843 -1.082819  2.672800
      ESP Fit Center  303 is at   2.158053 -1.704759  2.672800
      ESP Fit Center  304 is at   2.690036 -2.201597  2.672800
      ESP Fit Center  305 is at   3.336336 -2.536482  2.672800
      ESP Fit Center  306 is at   4.049021 -2.684580  2.672800
      ESP Fit Center  307 is at   4.775234 -2.634906  2.672800
      ESP Fit Center  308 is at   5.461115 -2.391144  2.672800
      ESP Fit Center  309 is at   6.055795 -1.971372  2.672800
      ESP Fit Center  310 is at   6.515171 -1.406724  2.672800
      ESP Fit Center  311 is at   6.805171 -0.739077  2.672800
      ESP Fit Center  312 is at   7.374379 -0.017947  2.099991
      ESP Fit Center  313 is at   7.289660  0.706868  2.099991
      ESP Fit Center  314 is at   7.040071  1.392608  2.099991
      ESP Fit Center  315 is at   6.639067  2.002305  2.099991
      ESP Fit Center  316 is at   6.108267  2.503090  2.099991
      ESP Fit Center  317 is at   5.476285  2.867965  2.099991
      ESP Fit Center  318 is at   4.777192  3.077259  2.099991
      ESP Fit Center  319 is at   4.048677  3.119690  2.099991
      ESP Fit Center  320 is at   3.330014  2.992971  2.099991
      ESP Fit Center  321 is at   2.659946  2.703932  2.099991
      ESP Fit Center  322 is at   2.074597  2.268155  2.099991
      ESP Fit Center  323 is at   1.605523  1.709135  2.099991
      ESP Fit Center  324 is at   1.278012  1.057007  2.099991
      ESP Fit Center  325 is at   1.109720  0.346927  2.099991
      ESP Fit Center  326 is at   1.109720 -0.382822  2.099991
      ESP Fit Center  327 is at   1.278012 -1.092901  2.099991
      ESP Fit Center  328 is at   1.605523 -1.745029  2.099991
      ESP Fit Center  329 is at   2.074597 -2.304050  2.099991
      ESP Fit Center  330 is at   2.659946 -2.739826  2.099991
      ESP Fit Center  331 is at   3.330014 -3.028865  2.099991
      ESP Fit Center  332 is at   4.048677 -3.155585  2.099991
      ESP Fit Center  333 is at   4.777192 -3.113154  2.099991
      ESP Fit Center  334 is at   5.476285 -2.903859  2.099991
      ESP Fit Center  335 is at   6.108267 -2.538985  2.099991
      ESP Fit Center  336 is at   6.639067 -2.038200  2.099991
      ESP Fit Center  337 is at   7.040071 -1.428503  2.099991
      ESP Fit Center  338 is at   7.289660 -0.742763  2.099991
      ESP Fit Center  339 is at   7.723689 -0.017947  1.446479
      ESP Fit Center  340 is at   7.647374  0.708135  1.446479
      ESP Fit Center  341 is at   7.421766  1.402485  1.446479
      ESP Fit Center  342 is at   7.056725  2.034754  1.446479
      ESP Fit Center  343 is at   6.568205  2.577311  1.446479
      ESP Fit Center  344 is at   5.977556  3.006442  1.446479
      ESP Fit Center  345 is at   5.310593  3.303394  1.446479
      ESP Fit Center  346 is at   4.596465  3.455186  1.446479
      ESP Fit Center  347 is at   3.866383  3.455186  1.446479
      ESP Fit Center  348 is at   3.152255  3.303394  1.446479
      ESP Fit Center  349 is at   2.485292  3.006442  1.446479
      ESP Fit Center  350 is at   2.485292 -3.042337  1.446479
      ESP Fit Center  351 is at   3.152255 -3.339288  1.446479
      ESP Fit Center  352 is at   3.866383 -3.491081  1.446479
      ESP Fit Center  353 is at   4.596465 -3.491081  1.446479
      ESP Fit Center  354 is at   5.310593 -3.339288  1.446479
      ESP Fit Center  355 is at   5.977556 -3.042337  1.446479
      ESP Fit Center  356 is at   6.568205 -2.613206  1.446479
      ESP Fit Center  357 is at   7.056725 -2.070649  1.446479
      ESP Fit Center  358 is at   7.421766 -1.438379  1.446479
      ESP Fit Center  359 is at   7.647374 -0.744030  1.446479
      ESP Fit Center  360 is at   7.938792 -0.017947  0.737377
      ESP Fit Center  361 is at   7.867556  0.705324  0.737377
      ESP Fit Center  362 is at   7.656586  1.400801  0.737377
      ESP Fit Center  363 is at   7.313988  2.041756  0.737377
      ESP Fit Center  364 is at   6.852929  2.603558  0.737377
      ESP Fit Center  365 is at   6.291127  3.064617  0.737377
      ESP Fit Center  366 is at   5.650172  3.407214  0.737377
      ESP Fit Center  367 is at   4.954696  3.618185  0.737377
      ESP Fit Center  368 is at   4.231424  3.689421  0.737377
      ESP Fit Center  369 is at   3.508152  3.618185  0.737377
      ESP Fit Center  370 is at   2.812676  3.407214  0.737377
      ESP Fit Center  371 is at   3.508152 -3.654080  0.737377
      ESP Fit Center  372 is at   4.231424 -3.725316  0.737377
      ESP Fit Center  373 is at   4.954696 -3.654080  0.737377
      ESP Fit Center  374 is at   5.650172 -3.443109  0.737377
      ESP Fit Center  375 is at   6.291127 -3.100512  0.737377
      ESP Fit Center  376 is at   6.852929 -2.639453  0.737377
      ESP Fit Center  377 is at   7.313988 -2.077651  0.737377
      ESP Fit Center  378 is at   7.656586 -1.436696  0.737377
      ESP Fit Center  379 is at   7.867556 -0.741219  0.737377
      ESP Fit Center  380 is at   8.011424 -0.017947 -0.000064
      ESP Fit Center  381 is at   7.943114  0.697422 -0.000064
      ESP Fit Center  382 is at   7.740655  1.386937 -0.000064
      ESP Fit Center  383 is at   7.411362  2.025675 -0.000064
      ESP Fit Center  384 is at   6.967139  2.590551 -0.000064
      ESP Fit Center  385 is at   6.424039  3.061150 -0.000064
      ESP Fit Center  386 is at   5.801693  3.420462 -0.000064
      ESP Fit Center  387 is at   5.122593  3.655500 -0.000064
      ESP Fit Center  388 is at   4.411284  3.757771 -0.000064
      ESP Fit Center  389 is at   3.693474  3.723578 -0.000064
      ESP Fit Center  390 is at   2.995107  3.554156 -0.000064
      ESP Fit Center  391 is at   3.693474 -3.759472 -0.000064
      ESP Fit Center  392 is at   4.411284 -3.793666 -0.000064
      ESP Fit Center  393 is at   5.122593 -3.691395 -0.000064
      ESP Fit Center  394 is at   5.801693 -3.456356 -0.000064
      ESP Fit Center  395 is at   6.424039 -3.097045 -0.000064
      ESP Fit Center  396 is at   6.967139 -2.626446 -0.000064
      ESP Fit Center  397 is at   7.411362 -2.061570 -0.000064
      ESP Fit Center  398 is at   7.740655 -1.422832 -0.000064
      ESP Fit Center  399 is at   7.943114 -0.733317 -0.000064
      ESP Fit Center  400 is at   7.938792 -0.017947 -0.737505
      ESP Fit Center  401 is at   7.867556  0.705324 -0.737505
      ESP Fit Center  402 is at   7.656586  1.400801 -0.737505
      ESP Fit Center  403 is at   7.313988  2.041756 -0.737505
      ESP Fit Center  404 is at   6.852929  2.603558 -0.737505
      ESP Fit Center  405 is at   6.291127  3.064617 -0.737505
      ESP Fit Center  406 is at   5.650172  3.407214 -0.737505
      ESP Fit Center  407 is at   4.954696  3.618185 -0.737505
      ESP Fit Center  408 is at   4.231424  3.689421 -0.737505
      ESP Fit Center  409 is at   3.508152  3.618185 -0.737505
      ESP Fit Center  410 is at   2.812676  3.407214 -0.737505
      ESP Fit Center  411 is at   3.508152 -3.654080 -0.737505
      ESP Fit Center  412 is at   4.231424 -3.725316 -0.737505
      ESP Fit Center  413 is at   4.954696 -3.654080 -0.737505
      ESP Fit Center  414 is at   5.650172 -3.443109 -0.737505
      ESP Fit Center  415 is at   6.291127 -3.100512 -0.737505
      ESP Fit Center  416 is at   6.852929 -2.639453 -0.737505
      ESP Fit Center  417 is at   7.313988 -2.077651 -0.737505
      ESP Fit Center  418 is at   7.656586 -1.436696 -0.737505
      ESP Fit Center  419 is at   7.867556 -0.741219 -0.737505
      ESP Fit Center  420 is at   7.723689 -0.017947 -1.446607
      ESP Fit Center  421 is at   7.647374  0.708135 -1.446607
      ESP Fit Center  422 is at   7.421766  1.402485 -1.446607
      ESP Fit Center  423 is at   7.056725  2.034754 -1.446607
      ESP Fit Center  424 is at   6.568205  2.577311 -1.446607
      ESP Fit Center  425 is at   5.977556  3.006442 -1.446607
      ESP Fit Center  426 is at   5.310593  3.303394 -1.446607
      ESP Fit Center  427 is at   4.596465  3.455186 -1.446607
      ESP Fit Center  428 is at   3.866383  3.455186 -1.446607
      ESP Fit Center  429 is at   3.152255  3.303394 -1.446607
      ESP Fit Center  430 is at   2.485292  3.006442 -1.446607
      ESP Fit Center  431 is at   2.485292 -3.042337 -1.446607
      ESP Fit Center  432 is at   3.152255 -3.339288 -1.446607
      ESP Fit Center  433 is at   3.866383 -3.491081 -1.446607
      ESP Fit Center  434 is at   4.596465 -3.491081 -1.446607
      ESP Fit Center  435 is at   5.310593 -3.339288 -1.446607
      ESP Fit Center  436 is at   5.977556 -3.042337 -1.446607
      ESP Fit Center  437 is at   6.568205 -2.613206 -1.446607
      ESP Fit Center  438 is at   7.056725 -2.070649 -1.446607
      ESP Fit Center  439 is at   7.421766 -1.438379 -1.446607
      ESP Fit Center  440 is at   7.647374 -0.744030 -1.446607
      ESP Fit Center  441 is at   7.374379 -0.017947 -2.100120
      ESP Fit Center  442 is at   7.289660  0.706868 -2.100120
      ESP Fit Center  443 is at   7.040071  1.392608 -2.100120
      ESP Fit Center  444 is at   6.639067  2.002305 -2.100120
      ESP Fit Center  445 is at   6.108267  2.503090 -2.100120
      ESP Fit Center  446 is at   5.476285  2.867965 -2.100120
      ESP Fit Center  447 is at   4.777192  3.077259 -2.100120
      ESP Fit Center  448 is at   4.048677  3.119690 -2.100120
      ESP Fit Center  449 is at   3.330014  2.992971 -2.100120
      ESP Fit Center  450 is at   2.659946  2.703932 -2.100120
      ESP Fit Center  451 is at   2.074597  2.268155 -2.100120
      ESP Fit Center  452 is at   1.605523  1.709135 -2.100120
      ESP Fit Center  453 is at   1.278012  1.057007 -2.100120
      ESP Fit Center  454 is at   1.109720  0.346927 -2.100120
      ESP Fit Center  455 is at   1.109720 -0.382822 -2.100120
      ESP Fit Center  456 is at   1.278012 -1.092901 -2.100120
      ESP Fit Center  457 is at   1.605523 -1.745029 -2.100120
      ESP Fit Center  458 is at   2.074597 -2.304050 -2.100120
      ESP Fit Center  459 is at   2.659946 -2.739826 -2.100120
      ESP Fit Center  460 is at   3.330014 -3.028865 -2.100120
      ESP Fit Center  461 is at   4.048677 -3.155585 -2.100120
      ESP Fit Center  462 is at   4.777192 -3.113154 -2.100120
      ESP Fit Center  463 is at   5.476285 -2.903859 -2.100120
      ESP Fit Center  464 is at   6.108267 -2.538985 -2.100120
      ESP Fit Center  465 is at   6.639067 -2.038200 -2.100120
      ESP Fit Center  466 is at   7.040071 -1.428503 -2.100120
      ESP Fit Center  467 is at   7.289660 -0.742763 -2.100120
      ESP Fit Center  468 is at   6.904288 -0.017947 -2.672928
      ESP Fit Center  469 is at   6.805171  0.703183 -2.672928
      ESP Fit Center  470 is at   6.515171  1.370830 -2.672928
      ESP Fit Center  471 is at   6.055795  1.935477 -2.672928
      ESP Fit Center  472 is at   5.461115  2.355249 -2.672928
      ESP Fit Center  473 is at   4.775234  2.599011 -2.672928
      ESP Fit Center  474 is at   4.049021  2.648685 -2.672928
      ESP Fit Center  475 is at   3.336336  2.500588 -2.672928
      ESP Fit Center  476 is at   2.690036  2.165702 -2.672928
      ESP Fit Center  477 is at   2.158053  1.668865 -2.672928
      ESP Fit Center  478 is at   1.779843  1.046924 -2.672928
      ESP Fit Center  479 is at   1.583456  0.346007 -2.672928
      ESP Fit Center  480 is at   1.583456 -0.381902 -2.672928
      ESP Fit Center  481 is at   1.779843 -1.082819 -2.672928
      ESP Fit Center  482 is at   2.158053 -1.704759 -2.672928
      ESP Fit Center  483 is at   2.690036 -2.201597 -2.672928
      ESP Fit Center  484 is at   3.336336 -2.536482 -2.672928
      ESP Fit Center  485 is at   4.049021 -2.684580 -2.672928
      ESP Fit Center  486 is at   4.775234 -2.634906 -2.672928
      ESP Fit Center  487 is at   5.461115 -2.391144 -2.672928
      ESP Fit Center  488 is at   6.055795 -1.971372 -2.672928
      ESP Fit Center  489 is at   6.515171 -1.406724 -2.672928
      ESP Fit Center  490 is at   6.805171 -0.739077 -2.672928
      ESP Fit Center  491 is at   6.331479 -0.017947 -3.143019
      ESP Fit Center  492 is at   6.204831  0.700314 -3.143019
      ESP Fit Center  493 is at   5.840160  1.331942 -3.143019
      ESP Fit Center  494 is at   5.281452  1.800754 -3.143019
      ESP Fit Center  495 is at   4.596095  2.050204 -3.143019
      ESP Fit Center  496 is at   3.866753  2.050204 -3.143019
      ESP Fit Center  497 is at   3.181396  1.800754 -3.143019
      ESP Fit Center  498 is at   2.622688  1.331942 -3.143019
      ESP Fit Center  499 is at   2.258017  0.700314 -3.143019
      ESP Fit Center  500 is at   2.131368 -0.017947 -3.143019
      ESP Fit Center  501 is at   2.258017 -0.736209 -3.143019
      ESP Fit Center  502 is at   2.622688 -1.367837 -3.143019
      ESP Fit Center  503 is at   3.181396 -1.836649 -3.143019
      ESP Fit Center  504 is at   3.866753 -2.086098 -3.143019
      ESP Fit Center  505 is at   4.596095 -2.086098 -3.143019
      ESP Fit Center  506 is at   5.281452 -1.836649 -3.143019
      ESP Fit Center  507 is at   5.840160 -1.367837 -3.143019
      ESP Fit Center  508 is at   6.204831 -0.736209 -3.143019
      ESP Fit Center  509 is at   5.677967 -0.017947 -3.492329
      ESP Fit Center  510 is at   5.484167  0.705324 -3.492329
      ESP Fit Center  511 is at   4.954696  1.234796 -3.492329
      ESP Fit Center  512 is at   4.231424  1.428596 -3.492329
      ESP Fit Center  513 is at   3.508152  1.234796 -3.492329
      ESP Fit Center  514 is at   2.978681  0.705324 -3.492329
      ESP Fit Center  515 is at   2.784881 -0.017947 -3.492329
      ESP Fit Center  516 is at   2.978681 -0.741219 -3.492329
      ESP Fit Center  517 is at   3.508152 -1.270691 -3.492329
      ESP Fit Center  518 is at   4.231424 -1.464491 -3.492329
      ESP Fit Center  519 is at   4.954696 -1.270691 -3.492329
      ESP Fit Center  520 is at   5.484167 -0.741219 -3.492329
      ESP Fit Center  521 is at   4.968865 -0.017947 -3.707432
      ESP Fit Center  522 is at   4.600145  0.620696 -3.707432
      ESP Fit Center  523 is at   3.862703  0.620696 -3.707432
      ESP Fit Center  524 is at   3.493983 -0.017947 -3.707432
      ESP Fit Center  525 is at   3.862703 -0.656590 -3.707432
      ESP Fit Center  526 is at   4.600145 -0.656590 -3.707432
      ESP Fit Center  527 is at   4.231424 -0.017947 -3.780064
      ESP Fit Center  528 is at  -8.097212  0.726737  1.513741
      ESP Fit Center  529 is at  -8.461675  0.095469  1.513741
      ESP Fit Center  530 is at  -8.097212 -0.535798  1.513741
      ESP Fit Center  531 is at  -8.138637  1.344660  1.047576
      ESP Fit Center  532 is at  -8.795375  0.867512  1.047576
      ESP Fit Center  533 is at  -9.046227  0.095469  1.047576
      ESP Fit Center  534 is at  -8.795375 -0.676573  1.047576
      ESP Fit Center  535 is at  -8.138637 -1.153721  1.047576
      ESP Fit Center  536 is at  -8.313550  1.626913  0.373948
      ESP Fit Center  537 is at  -8.958720  1.181584  0.373948
      ESP Fit Center  538 is at  -9.323035  0.487439  0.373948
      ESP Fit Center  539 is at  -9.323035 -0.296501  0.373948
      ESP Fit Center  540 is at  -8.958720 -0.990645  0.373948
      ESP Fit Center  541 is at  -8.313550 -1.435974  0.373948
      ESP Fit Center  542 is at  -8.313550  1.626913 -0.373722
      ESP Fit Center  543 is at  -8.958720  1.181584 -0.373722
      ESP Fit Center  544 is at  -9.323035  0.487439 -0.373722
      ESP Fit Center  545 is at  -9.323035 -0.296501 -0.373722
      ESP Fit Center  546 is at  -8.958720 -0.990645 -0.373722
      ESP Fit Center  547 is at  -8.313550 -1.435974 -0.373722
      ESP Fit Center  548 is at  -8.138637  1.344660 -1.047350
      ESP Fit Center  549 is at  -8.795375  0.867512 -1.047350
      ESP Fit Center  550 is at  -9.046227  0.095469 -1.047350
      ESP Fit Center  551 is at  -8.795375 -0.676573 -1.047350
      ESP Fit Center  552 is at  -8.138637 -1.153721 -1.047350
      ESP Fit Center  553 is at  -8.097212  0.726737 -1.513515
[...]
 3775 Fit      -0.004625
 3776 Fit      -0.004691
 3777 Fit      -0.004764
 3778 Fit      -0.004505
 3779 Fit      -0.004654
 3780 Fit      -0.004855
 3781 Fit      -0.005098
 3782 Fit      -0.005359
 3783 Fit      -0.005612
 3784 Fit      -0.005827
 3785 Fit      -0.005983
 3786 Fit      -0.006069
 3787 Fit      -0.006097
 3788 Fit      -0.006109
 3789 Fit      -0.006186
 3790 Fit      -0.006446
 3791 Fit      -0.007023
 3792 Fit      -0.007996
 3793 Fit      -0.009273
 3794 Fit      -0.010478
 3795 Fit      -0.011018
 3796 Fit      -0.010527
 3797 Fit      -0.009179
 3798 Fit      -0.007372
 3799 Fit      -0.005367
 3800 Fit      -0.003397
 3801 Fit      -0.001786
 3802 Fit      -0.000795
 3803 Fit      -0.000472
 3804 Fit      -0.000685
 3805 Fit      -0.001231
 3806 Fit      -0.001919
 3807 Fit      -0.002604
 3808 Fit      -0.003196
 3809 Fit      -0.003655
 3810 Fit      -0.003973
 3811 Fit      -0.004168
 3812 Fit      -0.004272
 3813 Fit      -0.004323
 3814 Fit      -0.004358
 3815 Fit      -0.004411
 3816 Fit      -0.004151
 3817 Fit      -0.004290
 3818 Fit      -0.004486
 3819 Fit      -0.004729
 3820 Fit      -0.004999
 3821 Fit      -0.005270
 3822 Fit      -0.005515
 3823 Fit      -0.005707
 3824 Fit      -0.005822
 3825 Fit      -0.005854
 3826 Fit      -0.005809
 3827 Fit      -0.005724
 3828 Fit      -0.005675
 3829 Fit      -0.005788
 3830 Fit      -0.006236
 3831 Fit      -0.007207
 3832 Fit      -0.008803
 3833 Fit      -0.010865
 3834 Fit      -0.012735
 3835 Fit      -0.000238
 3836 Fit       0.001215
 3837 Fit       0.001746
 3838 Fit       0.001540
 3839 Fit       0.000859
 3840 Fit      -0.000056
 3841 Fit      -0.001014
 3842 Fit      -0.001892
 3843 Fit      -0.002624
 3844 Fit      -0.003184
 3845 Fit      -0.003577
 3846 Fit      -0.003823
 3847 Fit      -0.003954
 3848 Fit      -0.004007
 3849 Fit      -0.004021
 3850 Fit      -0.004032
 3851 Fit      -0.004068
 3852 Fit      -0.003832
 3853 Fit      -0.003966
 3854 Fit      -0.004160
 3855 Fit      -0.004404
 3856 Fit      -0.004683
 3857 Fit      -0.004970
 3858 Fit      -0.005239
 3859 Fit      -0.005460
 3860 Fit      -0.005607
 3861 Fit      -0.005661
 3862 Fit      -0.005612
 3863 Fit      -0.005468
 3864 Fit      -0.005267
 3865 Fit      -0.005086
 3866 Fit      -0.005062
 3867 Fit      -0.005409
 3868 Fit      -0.006392
 3869 Fit      -0.008266
 3870 Fit       0.004820
 3871 Fit       0.004745
 3872 Fit       0.003948
 3873 Fit       0.002763
 3874 Fit       0.001440
 3875 Fit       0.000158
 3876 Fit      -0.000973
 3877 Fit      -0.001903
 3878 Fit      -0.002618
 3879 Fit      -0.003130
 3880 Fit      -0.003464
 3881 Fit      -0.003654
 3882 Fit      -0.003738
 3883 Fit      -0.003755
 3884 Fit      -0.003743
 3885 Fit      -0.003735
 3886 Fit      -0.003758
 3887 Fit      -0.003571
 3888 Fit      -0.003701
 3889 Fit      -0.003896
 3890 Fit      -0.004144
 3891 Fit      -0.004430
 3892 Fit      -0.004731
 3893 Fit      -0.005018
 3894 Fit      -0.005262
 3895 Fit      -0.005434
 3896 Fit      -0.005508
 3897 Fit      -0.005466
 3898 Fit      -0.005302
 3899 Fit      -0.005026
 3900 Fit      -0.004681
 3901 Fit      -0.004357
 3902 Fit      -0.004222
 3903 Fit      -0.004538
 3904 Fit      -0.005629
 3905 Fit       0.008813
 3906 Fit       0.007156
 3907 Fit       0.005321
 3908 Fit       0.003474
 3909 Fit       0.001762
 3910 Fit       0.000279
 3911 Fit      -0.000935
 3912 Fit      -0.001880
 3913 Fit      -0.002576
 3914 Fit      -0.003052
 3915 Fit      -0.003347
 3916 Fit      -0.003500
 3917 Fit      -0.003552
 3918 Fit      -0.003544
 3919 Fit      -0.003512
 3920 Fit      -0.003490
 3921 Fit      -0.003503
 3922 Fit      -0.003386
 3923 Fit      -0.003512
 3924 Fit      -0.003702
 3925 Fit      -0.003949
 3926 Fit      -0.004235
 3927 Fit      -0.004540
 3928 Fit      -0.004837
 3929 Fit      -0.005098
 3930 Fit      -0.005293
 3931 Fit      -0.005395
 3932 Fit      -0.005381
 3933 Fit      -0.005234
 3934 Fit      -0.004950
 3935 Fit      -0.004542
 3936 Fit      -0.004054
 3937 Fit      -0.003586
 3938 Fit      -0.003319
 3939 Fit      -0.003516
 3940 Fit      -0.004387
 3941 Fit       0.010780
 3942 Fit       0.008052
 3943 Fit       0.005606
 3944 Fit       0.003440
 3945 Fit       0.001598
 3946 Fit       0.000095
 3947 Fit      -0.001086
 3948 Fit      -0.001974
 3949 Fit      -0.002609
 3950 Fit      -0.003029
 3951 Fit      -0.003276
 3952 Fit      -0.003392
 3953 Fit      -0.003417
 3954 Fit      -0.003389
 3955 Fit      -0.003345
 3956 Fit      -0.003315
 3957 Fit      -0.003323
 3958 Fit      -0.003290
 3959 Fit      -0.003417
 3960 Fit      -0.003612
 3961 Fit      -0.003864
 3962 Fit      -0.004159
 3963 Fit      -0.004472
 3964 Fit      -0.004778
 3965 Fit      -0.005046
 3966 Fit      -0.005244
 3967 Fit      -0.005344
 3968 Fit      -0.005319
 3969 Fit      -0.005151
 3970 Fit      -0.004829
 3971 Fit      -0.004360
 3972 Fit      -0.003780
 3973 Fit      -0.003176
 3974 Fit      -0.002720
 3975 Fit      -0.002645
 3976 Fit       0.012786
 3977 Fit       0.009313
 3978 Fit       0.006429
 3979 Fit       0.003981
 3980 Fit       0.001955
 3981 Fit       0.000332
 3982 Fit      -0.000925
 3983 Fit      -0.001862
 3984 Fit      -0.002524
 3985 Fit      -0.002959
 3986 Fit      -0.003211
 3987 Fit      -0.003326
 3988 Fit      -0.003346
 3989 Fit      -0.003312
 3990 Fit      -0.003261
 3991 Fit      -0.003225
 3992 Fit      -0.003228
 3993 Fit      -0.003289
 3994 Fit      -0.003417
 3995 Fit      -0.003611
 3996 Fit      -0.003864
 3997 Fit      -0.004158
 3998 Fit      -0.004472
 3999 Fit      -0.004778
 4000 Fit      -0.005045
 4001 Fit      -0.005244
 4002 Fit      -0.005343
 4003 Fit      -0.005319
 4004 Fit      -0.005151
 4005 Fit      -0.004829
 4006 Fit      -0.004360
 4007 Fit      -0.003779
 4008 Fit      -0.003175
 4009 Fit      -0.002718
 4010 Fit      -0.002642
 4011 Fit       0.012782
 4012 Fit       0.009310
 4013 Fit       0.006427
 4014 Fit       0.003979
 4015 Fit       0.001954
 4016 Fit       0.000331
 4017 Fit      -0.000926
 4018 Fit      -0.001862
 4019 Fit      -0.002524
 4020 Fit      -0.002959
 4021 Fit      -0.003212
 4022 Fit      -0.003326
 4023 Fit      -0.003346
 4024 Fit      -0.003312
 4025 Fit      -0.003261
 4026 Fit      -0.003225
 4027 Fit      -0.003228
 4028 Fit      -0.003385
 4029 Fit      -0.003512
 4030 Fit      -0.003702
 4031 Fit      -0.003948
 4032 Fit      -0.004235
 4033 Fit      -0.004539
 4034 Fit      -0.004837
 4035 Fit      -0.005097
 4036 Fit      -0.005292
 4037 Fit      -0.005394
 4038 Fit      -0.005380
 4039 Fit      -0.005233
 4040 Fit      -0.004949
 4041 Fit      -0.004541
 4042 Fit      -0.004052
 4043 Fit      -0.003583
 4044 Fit      -0.003314
 4045 Fit      -0.003509
 4046 Fit      -0.004377
 4047 Fit       0.010770
 4048 Fit       0.008045
 4049 Fit       0.005601
 4050 Fit       0.003436
 4051 Fit       0.001596
 4052 Fit       0.000093
 4053 Fit      -0.001087
 4054 Fit      -0.001975
 4055 Fit      -0.002610
 4056 Fit      -0.003030
 4057 Fit      -0.003277
 4058 Fit      -0.003392
 4059 Fit      -0.003417
 4060 Fit      -0.003389
 4061 Fit      -0.003345
 4062 Fit      -0.003315
 4063 Fit      -0.003323
 4064 Fit      -0.003570
 4065 Fit      -0.003701
 4066 Fit      -0.003895
 4067 Fit      -0.004144
 4068 Fit      -0.004430
 4069 Fit      -0.004730
 4070 Fit      -0.005017
 4071 Fit      -0.005261
 4072 Fit      -0.005433
 4073 Fit      -0.005507
 4074 Fit      -0.005465
 4075 Fit      -0.005300
 4076 Fit      -0.005024
 4077 Fit      -0.004678
 4078 Fit      -0.004353
 4079 Fit      -0.004217
 4080 Fit      -0.004530
 4081 Fit      -0.005618
 4082 Fit       0.008798
 4083 Fit       0.007145
 4084 Fit       0.005313
 4085 Fit       0.003468
 4086 Fit       0.001757
 4087 Fit       0.000276
 4088 Fit      -0.000938
 4089 Fit      -0.001882
 4090 Fit      -0.002577
 4091 Fit      -0.003053
 4092 Fit      -0.003348
 4093 Fit      -0.003501
 4094 Fit      -0.003553
 4095 Fit      -0.003544
 4096 Fit      -0.003512
 4097 Fit      -0.003490
 4098 Fit      -0.003503
 4099 Fit      -0.003831
 4100 Fit      -0.003965
 4101 Fit      -0.004159
 4102 Fit      -0.004404
 4103 Fit      -0.004682
 4104 Fit      -0.004969
 4105 Fit      -0.005238
 4106 Fit      -0.005459
 4107 Fit      -0.005606
 4108 Fit      -0.005659
 4109 Fit      -0.005610
 4110 Fit      -0.005466
 4111 Fit      -0.005264
 4112 Fit      -0.005082
 4113 Fit      -0.005057
 4114 Fit      -0.005402
 4115 Fit      -0.006382
 4116 Fit      -0.008252
 4117 Fit       0.004805
 4118 Fit       0.004732
 4119 Fit       0.003937
 4120 Fit       0.002755
 4121 Fit       0.001433
 4122 Fit       0.000153
 4123 Fit      -0.000977
 4124 Fit      -0.001905
 4125 Fit      -0.002620
 4126 Fit      -0.003131
 4127 Fit      -0.003465
 4128 Fit      -0.003655
 4129 Fit      -0.003739
 4130 Fit      -0.003756
 4131 Fit      -0.003743
 4132 Fit      -0.003735
 4133 Fit      -0.003758
 4134 Fit      -0.004150
 4135 Fit      -0.004289
 4136 Fit      -0.004486
 4137 Fit      -0.004728
 4138 Fit      -0.004998
 4139 Fit      -0.005270
 4140 Fit      -0.005514
 4141 Fit      -0.005705
 4142 Fit      -0.005821
 4143 Fit      -0.005852
 4144 Fit      -0.005806
 4145 Fit      -0.005721
 4146 Fit      -0.005671
 4147 Fit      -0.005783
 4148 Fit      -0.006230
 4149 Fit      -0.007199
 4150 Fit      -0.008792
 4151 Fit      -0.010853
 4152 Fit      -0.012723
 4153 Fit      -0.000250
 4154 Fit       0.001203
 4155 Fit       0.001735
 4156 Fit       0.001530
 4157 Fit       0.000851
 4158 Fit      -0.000062
 4159 Fit      -0.001019
 4160 Fit      -0.001896
 4161 Fit      -0.002627
 4162 Fit      -0.003186
 4163 Fit      -0.003578
 4164 Fit      -0.003823
 4165 Fit      -0.003954
 4166 Fit      -0.004007
 4167 Fit      -0.004021
 4168 Fit      -0.004032
 4169 Fit      -0.004068
 4170 Fit      -0.004505
 4171 Fit      -0.004653
 4172 Fit      -0.004854
 4173 Fit      -0.005097
 4174 Fit      -0.005358
 4175 Fit      -0.005611
 4176 Fit      -0.005826
 4177 Fit      -0.005981
 4178 Fit      -0.006067
 4179 Fit      -0.006095
 4180 Fit      -0.006106
 4181 Fit      -0.006182
 4182 Fit      -0.006441
 4183 Fit      -0.007016
 4184 Fit      -0.007988
 4185 Fit      -0.009265
 4186 Fit      -0.010470
 4187 Fit      -0.011012
 4188 Fit      -0.010524
 4189 Fit      -0.009181
 4190 Fit      -0.007376
 4191 Fit      -0.005373
 4192 Fit      -0.003406
 4193 Fit      -0.001795
 4194 Fit      -0.000805
 4195 Fit      -0.000481
 4196 Fit      -0.000692
 4197 Fit      -0.001237
 4198 Fit      -0.001924
 4199 Fit      -0.002608
 4200 Fit      -0.003199
 4201 Fit      -0.003657
 4202 Fit      -0.003974
 4203 Fit      -0.004169
 4204 Fit      -0.004273
 4205 Fit      -0.004323
 4206 Fit      -0.004358
 4207 Fit      -0.004411
 4208 Fit      -0.004872
 4209 Fit      -0.005028
 4210 Fit      -0.005231
 4211 Fit      -0.005468
 4212 Fit      -0.005714
 4213 Fit      -0.005941
 4214 Fit      -0.006125
 4215 Fit      -0.006257
 4216 Fit      -0.006346
 4217 Fit      -0.006436
 4218 Fit      -0.006599
 4219 Fit      -0.006930
 4220 Fit      -0.007496
 4221 Fit      -0.008263
 4222 Fit      -0.009020
 4223 Fit      -0.009413
 4224 Fit      -0.009157
 4225 Fit      -0.008258
 4226 Fit      -0.006933
 4227 Fit      -0.005430
 4228 Fit      -0.004000
 4229 Fit      -0.002895
 4230 Fit      -0.002276
 4231 Fit      -0.002144
 4232 Fit      -0.002378
 4233 Fit      -0.002817
 4234 Fit      -0.003314
 4235 Fit      -0.003768
 4236 Fit      -0.004127
 4237 Fit      -0.004378
 4238 Fit      -0.004533
 4239 Fit      -0.004625
 4240 Fit      -0.004691
 4241 Fit      -0.004764
 4242 Fit      -0.005229
 4243 Fit      -0.005398
 4244 Fit      -0.005608
 4245 Fit      -0.005841
 4246 Fit      -0.006072
 4247 Fit      -0.006274
 4248 Fit      -0.006436
 4249 Fit      -0.006573
 4250 Fit      -0.006730
 4251 Fit      -0.006974
 4252 Fit      -0.007355
 4253 Fit      -0.007838
 4254 Fit      -0.008254
 4255 Fit      -0.008348
 4256 Fit      -0.007950
 4257 Fit      -0.007101
 4258 Fit      -0.005997
 4259 Fit      -0.004886
 4260 Fit      -0.004005
 4261 Fit      -0.003505
 4262 Fit      -0.003396
 4263 Fit      -0.003576
 4264 Fit      -0.003901
 4265 Fit      -0.004249
 4266 Fit      -0.004543
 4267 Fit      -0.004758
 4268 Fit      -0.004901
 4269 Fit      -0.005004
 4270 Fit      -0.005103
 4271 Fit      -0.005555
 4272 Fit      -0.005736
 4273 Fit      -0.005951
 4274 Fit      -0.006177
 4275 Fit      -0.006390
 4276 Fit      -0.006575
 4277 Fit      -0.006746
 4278 Fit      -0.006942
 4279 Fit      -0.007198
 4280 Fit      -0.007486
 4281 Fit      -0.007674
 4282 Fit      -0.007577
 4283 Fit      -0.007103
 4284 Fit      -0.006339
 4285 Fit      -0.005498
 4286 Fit      -0.004810
 4287 Fit      -0.004425
 4288 Fit      -0.004353
 4289 Fit      -0.004497
 4290 Fit      -0.004730
 4291 Fit      -0.004959
 4292 Fit      -0.005142
 4293 Fit      -0.005282
 4294 Fit      -0.005409
 4295 Fit      -0.005835
 4296 Fit      -0.006040
 4297 Fit      -0.006268
 4298 Fit      -0.006493
 4299 Fit      -0.006698
 4300 Fit      -0.006891
 4301 Fit      -0.007085
 4302 Fit      -0.007227
 4303 Fit      -0.007171
 4304 Fit      -0.006803
 4305 Fit      -0.006194
 4306 Fit      -0.005578
 4307 Fit      -0.005180
 4308 Fit      -0.005070
 4309 Fit      -0.005164
 4310 Fit      -0.005334
 4311 Fit      -0.005504
 4312 Fit      -0.005663
 4313 Fit      -0.006062
 4314 Fit      -0.006295
 4315 Fit      -0.006536
 4316 Fit      -0.006748
 4317 Fit      -0.006899
 4318 Fit      -0.006897
 4319 Fit      -0.006615
 4320 Fit      -0.006128
 4321 Fit      -0.005735
 4322 Fit      -0.005615
 4323 Fit      -0.005701
 4324 Fit      -0.005864
 4325 Fit      -0.006237
 4326 Fit      -0.006502
 4327 Fit      -0.006657
 4328 Fit      -0.006485
 4329 Fit      -0.006122
 4330 Fit      -0.006049
 4331 Fit      -0.006370
 4332 Fit       0.012280
 4333 Fit       0.012752
 4334 Fit       0.013342
 4335 Fit       0.014132
 4336 Fit       0.014751
 4337 Fit       0.015243
 4338 Fit       0.014479
 4339 Fit       0.014999
 4340 Fit       0.015596
 4341 Fit       0.016150
 4342 Fit       0.016724
 4343 Fit       0.017580
 4344 Fit       0.015228
 4345 Fit       0.015462
 4346 Fit       0.015994
 4347 Fit       0.016560
 4348 Fit       0.017134
 4349 Fit       0.017897
 4350 Fit       0.019317
 4351 Fit       0.015227
 4352 Fit       0.015461
 4353 Fit       0.015994
 4354 Fit       0.016560
 4355 Fit       0.017134
 4356 Fit       0.017896
 4357 Fit       0.019316
 4358 Fit       0.014478
 4359 Fit       0.014997
 4360 Fit       0.015595
 4361 Fit       0.016149
 4362 Fit       0.016723
 4363 Fit       0.017579
 4364 Fit       0.013340
 4365 Fit       0.014131
 4366 Fit       0.014749
 4367 Fit       0.015241
 4368 Fit       0.012277
 4369 Fit       0.012749
 4370 Fit      -0.005270
 4371 Fit       0.000985
 4372 Fit      -0.007335
 4373 Fit      -0.000066
 4374 Fit       0.004674
 4375 Fit       0.007821
 4376 Fit      -0.007199
 4377 Fit       0.000143
 4378 Fit       0.004911
 4379 Fit       0.008213
 4380 Fit       0.010819
 4381 Fit      -0.010295
 4382 Fit      -0.001369
 4383 Fit       0.004179
 4384 Fit       0.007917
 4385 Fit       0.010778
 4386 Fit       0.013618
 4387 Fit      -0.010294
 4388 Fit      -0.001369
 4389 Fit       0.004179
 4390 Fit       0.007917
 4391 Fit       0.010778
 4392 Fit       0.013618
 4393 Fit      -0.007197
 4394 Fit       0.000143
 4395 Fit       0.004911
 4396 Fit       0.008213
 4397 Fit       0.010819
 4398 Fit      -0.007332
 4399 Fit      -0.000066
 4400 Fit       0.004674
 4401 Fit       0.007821
 4402 Fit      -0.005268
 4403 Fit       0.000985
 4404 Fit       0.017063
 4405 Fit       0.017021
 4406 Fit       0.018721
 4407 Fit       0.019105
 4408 Fit       0.019154
 4409 Fit       0.018776
 4410 Fit       0.017873
 4411 Fit       0.020487
 4412 Fit       0.020479
 4413 Fit       0.020518
 4414 Fit       0.020411
 4415 Fit       0.020064
 4416 Fit       0.019435
 4417 Fit       0.018438
 4418 Fit       0.021908
 4419 Fit       0.021320
 4420 Fit       0.021210
 4421 Fit       0.021162
 4422 Fit       0.020980
 4423 Fit       0.020593
 4424 Fit       0.019989
 4425 Fit       0.019124
 4426 Fit       0.021906
 4427 Fit       0.021319
 4428 Fit       0.021209
 4429 Fit       0.021161
 4430 Fit       0.020980
 4431 Fit       0.020592
 4432 Fit       0.019988
 4433 Fit       0.019121
 4434 Fit       0.020484
 4435 Fit       0.020476
 4436 Fit       0.020516
 4437 Fit       0.020409
 4438 Fit       0.020061
 4439 Fit       0.019431
 4440 Fit       0.018431
 4441 Fit       0.018717
 4442 Fit       0.019102
 4443 Fit       0.019151
 4444 Fit       0.018771
 4445 Fit       0.017866
 4446 Fit       0.017059
 4447 Fit       0.017015
 4448 Fit       0.014027
 4449 Fit       0.018897
 4450 Fit       0.022638
 4451 Fit       0.021863
 4452 Fit       0.021857
 4453 Fit       0.022626
 4454 Fit       0.018876
 4455 Fit       0.013999
 4456 Fit       0.012452
 4457 Fit       0.010273
 4458 Fit       0.016991
 4459 Fit       0.014584
 4460 Fit       0.012499
 4461 Fit       0.010684
 4462 Fit       0.021910
 4463 Fit       0.018610
 4464 Fit       0.016201
 4465 Fit       0.014395
 4466 Fit       0.013202
 4467 Fit       0.022275
 4468 Fit       0.018937
 4469 Fit       0.016604
 4470 Fit       0.015009
 4471 Fit       0.014323
 4472 Fit       0.022273
 4473 Fit       0.018935
 4474 Fit       0.016602
 4475 Fit       0.015007
 4476 Fit       0.014321
 4477 Fit       0.021901
 4478 Fit       0.018604
 4479 Fit       0.016197
 4480 Fit       0.014390
 4481 Fit       0.013197
 4482 Fit       0.016980
 4483 Fit       0.014576
 4484 Fit       0.012492
 4485 Fit       0.010676
 4486 Fit       0.012440
 4487 Fit       0.010263
 4488 Fit      -0.014861
 4489 Fit      -0.012452
 4490 Fit      -0.006379
 4491 Fit      -0.011656
 4492 Fit      -0.004113
 4493 Fit      -0.009616
 4494 Fit      -0.017186
 4495 Fit      -0.004110
 4496 Fit      -0.009612
 4497 Fit      -0.017180
 4498 Fit      -0.006370
 4499 Fit      -0.011644
 4500 Fit      -0.012434
 4501 Fit      -0.014835
 -----------------------------------------------------------------
 Leave Link  602 at Fri Jan 17 11:56:54 2014, MaxMem=   235929600 cpu:         1.5

 Test job not archived.
 1\1\GINC-G42\SP\RHF\Gen\C11H8I1N1O2\KOLAR\17-Jan-2014\0\\# hf/gen pseu
 do=read pop=(mk, readradii) iop(6/33=2,6/41=5,6/42=2)\\na resp\\0,1\C,
 0,6.66528,0.07405,-0.000003\C,0,5.63094,-0.911216,0.000123\C,0,4.44670
 1,-0.229152,-0.000091\O,0,4.686801,1.124421,-0.000595\C,0,6.038478,1.2
 8558,-0.000084\C,0,3.055648,-0.719192,0.000089\O,0,2.815001,-1.922107,
 0.000464\N,0,2.108361,0.28258,-0.000043\C,0,0.7074,0.163726,0.000063\C
 ,0,-0.042698,1.350803,0.00039\C,0,-1.434652,1.317763,0.000472\C,0,-2.0
 8785,0.086054,0.000124\C,0,-1.357693,-1.100495,-0.00023\C,0,0.037143,-
 1.06986,-0.000227\I,0,-4.231424,0.017947,-0.000064\H,0,7.73275,-0.0954
 69,0.000113\H,0,5.732004,-1.98646,0.000334\H,0,6.388689,2.306672,-0.00
 023\H,0,2.471027,1.227611,0.0004\H,0,0.466202,2.312617,0.000539\H,0,-1
 .994459,2.24666,0.000787\H,0,-1.863501,-2.059821,-0.000465\H,0,0.60763
 1,-1.987963,-0.00049\\Version=AM64L-G09RevD.01\State=1-A\HF=-636.52173
 8\RMSD=7.599e-09\Dipole=1.875355,1.2798168,0.0002052\Quadrupole=12.960
 3257,-2.4288696,-10.5314561,7.3311024,0.0021212,0.0044666\PG=C01 [X(C1
 1H8I1N1O2)]\\@


 NOTHING WILL BE ATTEMPTED IF ALL POSSIBLE OBJECTIONS
 MUST FIRST BE OVERCOME.

                               -- THE GOLDEN PRINCIPLE,
                    PAUL DICKSON'S "THE OFFICIAL RULES"
 Job cpu time:       0 days  0 hours  2 minutes 21.8 seconds.
 File lengths (MBytes):  RWF=     28 Int=      0 D2E=      0 Chk=      3 Scr=      1
 Normal termination of Gaussian 09 at Fri Jan 17 11:56:54 2014.
141.45user 0.40system 2:22.63elapsed 99%CPU (0avgtext+0avgdata 603520maxresident)k
8inputs+114632outputs (0major+170628minor)pagefaults 0swaps
