Linux g59 2.6.38.6-client #1 SMP Tue Jun 12 11:27:21 CEST 2012 x86_64 GNU/Linux
Thu Jan 16 22:36:46 CET 2014

 Entering Gaussian System, Link 0=/usr/local/programs/common/gaussian/gaussian09_d01/arch/amd64-pgi_10.4.0-acml/g09/g09
 Initial command:
 /usr/local/programs/common/gaussian/gaussian09_d01/arch/amd64-pgi_10.4.0-acml/g09/l1.exe "/scratch/kolar/g09_25826/Gau-1788.inp" -scrdir="/scratch/kolar/g09_25826/"
 Entering Link 1 = /usr/local/programs/common/gaussian/gaussian09_d01/arch/amd64-pgi_10.4.0-acml/g09/l1.exe PID=      1793.
  
 Copyright (c) 1988,1990,1992,1993,1995,1998,2003,2009,2013,
            Gaussian, Inc.  All Rights Reserved.
  
 This is part of the Gaussian(R) 09 program.  It is based on
 the Gaussian(R) 03 system (copyright 2003, Gaussian, Inc.),
 the Gaussian(R) 98 system (copyright 1998, Gaussian, Inc.),
 the Gaussian(R) 94 system (copyright 1995, Gaussian, Inc.),
 the Gaussian 92(TM) system (copyright 1992, Gaussian, Inc.),
 the Gaussian 90(TM) system (copyright 1990, Gaussian, Inc.),
 the Gaussian 88(TM) system (copyright 1988, Gaussian, Inc.),
 the Gaussian 86(TM) system (copyright 1986, Carnegie Mellon
 University), and the Gaussian 82(TM) system (copyright 1983,
 Carnegie Mellon University). Gaussian is a federally registered
 trademark of Gaussian, Inc.
  
 This software contains proprietary and confidential information,
 including trade secrets, belonging to Gaussian, Inc.
  
 This software is provided under written license and may be
 used, copied, transmitted, or stored only in accord with that
 written license.
  
 The following legend is applicable only to US Government
 contracts under FAR:
  
                    RESTRICTED RIGHTS LEGEND
  
 Use, reproduction and disclosure by the US Government is
 subject to restrictions as set forth in subparagraphs (a)
 and (c) of the Commercial Computer Software - Restricted
 Rights clause in FAR 52.227-19.
  
 Gaussian, Inc.
 340 Quinnipiac St., Bldg. 40, Wallingford CT 06492
  
  
 ---------------------------------------------------------------
 Warning -- This program may not be used in any manner that
 competes with the business of Gaussian, Inc. or will provide
 assistance to any competitor of Gaussian, Inc.  The licensee
 of this program is prohibited from giving any competitor of
 Gaussian, Inc. access to this program.  By using this program,
 the user acknowledges that Gaussian, Inc. is engaged in the
 business of creating and licensing software in the field of
 computational chemistry and represents and warrants to the
 licensee that it is not a competitor of Gaussian, Inc. and that
 it will not use this program in any manner prohibited above.
 ---------------------------------------------------------------
  

 Cite this work as:
 Gaussian 09, Revision D.01,
 M. J. Frisch, G. W. Trucks, H. B. Schlegel, G. E. Scuseria, 
 M. A. Robb, J. R. Cheeseman, G. Scalmani, V. Barone, B. Mennucci, 
 G. A. Petersson, H. Nakatsuji, M. Caricato, X. Li, H. P. Hratchian, 
 A. F. Izmaylov, J. Bloino, G. Zheng, J. L. Sonnenberg, M. Hada, 
 M. Ehara, K. Toyota, R. Fukuda, J. Hasegawa, M. Ishida, T. Nakajima, 
 Y. Honda, O. Kitao, H. Nakai, T. Vreven, J. A. Montgomery, Jr., 
 J. E. Peralta, F. Ogliaro, M. Bearpark, J. J. Heyd, E. Brothers, 
 K. N. Kudin, V. N. Staroverov, T. Keith, R. Kobayashi, J. Normand, 
 K. Raghavachari, A. Rendell, J. C. Burant, S. S. Iyengar, J. Tomasi, 
 M. Cossi, N. Rega, J. M. Millam, M. Klene, J. E. Knox, J. B. Cross, 
 V. Bakken, C. Adamo, J. Jaramillo, R. Gomperts, R. E. Stratmann, 
 O. Yazyev, A. J. Austin, R. Cammi, C. Pomelli, J. W. Ochterski, 
 R. L. Martin, K. Morokuma, V. G. Zakrzewski, G. A. Voth, 
 P. Salvador, J. J. Dannenberg, S. Dapprich, A. D. Daniels, 
 O. Farkas, J. B. Foresman, J. V. Ortiz, J. Cioslowski, 
 and D. J. Fox, Gaussian, Inc., Wallingford CT, 2013.
 
 ******************************************
 Gaussian 09:  AM64L-G09RevD.01 24-Apr-2013
                16-Jan-2014 
 ******************************************
 %mem=1800mb
 -----------------------------------------
 # hf/gen pop=mk iop(6/33=2,6/41=5,6/42=2)
 -----------------------------------------
 1/38=1/1;
 2/12=2,17=6,18=5,40=1/2;
 3/5=7,11=9,16=1,25=1,30=1/1,2,3;
 4//1;
 5/5=2,38=5/2;
 6/7=2,8=2,9=2,10=2,15=8,20=1,28=1,33=2,41=5,42=2/1,2;
 99/5=1,9=1/99;
 -------
 na resp
 -------
 Symbolic Z-matrix:
 Charge =  0 Multiplicity = 1
 6                     0.17955   0.02771  -0.18042 
 6                     1.52435  -0.03326  -0.06456 
 6                     2.30937   1.17216   0.21024 
 8                     3.51556   1.25215   0.33683 
 7                     1.4942    2.31579   0.32842 
 1                     1.98214   3.18373   0.52213 
 6                     0.12044   2.43043   0.21694 
 8                    -0.46827   3.49169   0.33573 
 7                    -0.52359   1.21339  -0.0576 
 6                    -1.98612   1.22771  -0.1702 
 1                    -2.27673   2.26008   0.0197 
 6                    -2.51908   0.67849  -1.50927 
 8                    -2.80491  -0.68208  -1.21049 
 6                    -3.31384  -0.65527   0.10047 
 1                    -4.37908  -0.36532   0.08997 
 8                    -2.56894   0.35906   0.79281 
 6                    -3.12868  -1.99745   0.79681 
 8                    -1.77104  -2.31564   1.02323 
 35                    2.45361  -1.66803  -0.23478 
 1                    -0.42422  -0.85636  -0.35349 
 1                    -3.4333    1.2175   -1.79898 
 1                    -1.79536   0.71964  -2.32461 
 1                    -3.70777  -1.98401   1.73222 
 1                    -3.54045  -2.78079   0.15412 
 1                    -1.43081  -1.66203   1.65548 
 
                          Input orientation:                          
 ---------------------------------------------------------------------
 Center     Atomic      Atomic             Coordinates (Angstroms)
 Number     Number       Type             X           Y           Z
 ---------------------------------------------------------------------
      1          6           0        0.179547    0.027706   -0.180417
      2          6           0        1.524347   -0.033257   -0.064563
      3          6           0        2.309367    1.172157    0.210240
      4          8           0        3.515557    1.252153    0.336831
      5          7           0        1.494199    2.315786    0.328421
      6          1           0        1.982137    3.183731    0.522134
      7          6           0        0.120439    2.430426    0.216942
      8          8           0       -0.468269    3.491688    0.335727
      9          7           0       -0.523591    1.213389   -0.057599
     10          6           0       -1.986115    1.227705   -0.170195
     11          1           0       -2.276730    2.260077    0.019699
     12          6           0       -2.519079    0.678488   -1.509265
     13          8           0       -2.804912   -0.682084   -1.210491
     14          6           0       -3.313838   -0.655269    0.100467
     15          1           0       -4.379083   -0.365323    0.089969
     16          8           0       -2.568941    0.359059    0.792807
     17          6           0       -3.128682   -1.997448    0.796812
     18          8           0       -1.771042   -2.315640    1.023234
     19         35           0        2.453608   -1.668032   -0.234779
     20          1           0       -0.424216   -0.856363   -0.353491
     21          1           0       -3.433302    1.217498   -1.798984
     22          1           0       -1.795361    0.719643   -2.324612
     23          1           0       -3.707770   -1.984011    1.732218
     24          1           0       -3.540450   -2.780794    0.154119
     25          1           0       -1.430814   -1.662034    1.655476
 ---------------------------------------------------------------------
                    Distance matrix (angstroms):
                    1          2          3          4          5
     1  C    0.000000
     2  C    1.351157   0.000000
     3  C    2.449186   1.464512   0.000000
     4  O    3.591069   2.403812   1.215450   0.000000
     5  N    2.687478   2.381879   1.409380   2.284135   0.000000
     6  H    3.701811   3.301938   2.061744   2.473198   1.014365
     7  C    2.436073   2.849550   2.524815   3.595765   1.383035
     8  O    3.561635   4.068905   3.620944   4.570163   2.287811
     9  N    1.383955   2.397546   2.845890   4.058546   2.331473
    10  C    2.475923   3.731558   4.312654   5.525040   3.680370
    11  H    3.325180   4.440120   4.717220   5.887875   3.783955
    12  C    3.077651   4.352360   5.149204   6.336718   4.707891
    13  O    3.236024   4.525109   5.622503   6.788505   5.462401
    14  C    3.570587   4.880796   5.913710   7.094700   5.656532
    15  H    4.583524   5.914781   6.863940   8.062413   6.460700
    16  O    2.934475   4.200476   4.979799   6.166575   4.533601
    17  C    4.000076   5.123543   6.321617   7.410628   6.339906
    18  O    3.277933   4.153572   5.429127   6.414704   5.709174
    19  Br   2.837223   1.888118   2.878458   3.159423   4.136238
    20  H    1.084464   2.134919   3.450386   4.521526   3.769330
    21  H    4.133769   5.399156   6.084183   7.269769   5.478353
    22  H    2.996099   4.085969   4.845517   5.964285   4.517462
    23  H    4.776653   5.865911   6.963027   8.037183   6.893430
    24  H    4.673111   5.766190   7.060406   8.129285   7.166115
    25  H    2.969678   3.787403   4.910224   5.890492   5.112712
                    6          7          8          9         10
     6  H    0.000000
     7  C    2.031386   0.000000
     8  O    2.476706   1.219411   0.000000
     9  N    3.239909   1.404039   2.312663   0.000000
    10  C    4.477989   2.456417   2.772261   1.466922   0.000000
    11  H    4.386744   2.411295   2.210717   2.043288   1.089178
    12  C    5.537488   3.607788   3.940040   2.524961   1.542335
    13  O    6.392367   4.503661   5.027033   3.182201   2.323777
    14  C    6.554622   4.618370   5.034865   3.361896   2.319849
    15  H    7.297100   5.298871   5.498309   4.168804   2.886472
    16  O    5.363240   3.443101   3.799356   2.374137   1.421832
    17  C    7.282893   5.522599   6.117272   4.222084   3.555583
    18  O    6.676866   5.172325   5.991239   3.895944   3.745107
    19  Br   4.933032   4.737625   5.956975   4.147010   5.301000
    20  H    4.783264   3.380092   4.402557   2.093156   2.610836
    21  H    6.211332   4.261951   4.303528   3.390996   2.178855
    22  H    5.333403   3.613387   4.064826   2.645852   2.221717
    23  H    7.781060   6.036431   6.513665   4.854463   4.110765
    24  H    8.136950   6.368899   6.986795   5.009966   4.311520
    25  H    6.034413   4.606951   5.406393   3.467814   3.462950
                   11         12         13         14         15
    11  H    0.000000
    12  C    2.213117   0.000000
    13  O    3.232438   1.422014   0.000000
    14  C    3.095377   2.236467   1.406533   0.000000
    15  H    3.364157   2.665841   2.066288   1.104050   0.000000
    16  O    2.072909   2.324663   2.269992   1.436338   2.072516
    17  C    4.410923   3.584723   2.421626   1.523359   2.174158
    18  O    4.711686   3.992232   2.954136   2.447151   3.387713
    19  Br   6.153933   5.644297   5.438395   5.865280   6.963345
    20  H    3.644623   2.842540   2.536244   2.931967   4.009832
    21  H    2.394209   1.100124   2.085572   2.670101   2.639691
    22  H    2.846128   1.090987   2.055553   3.174455   3.699050
    23  H    4.795089   4.359943   3.342111   2.140876   2.401623
    24  H    5.198600   3.971987   2.609169   2.138244   2.557718
    25  H    4.332931   4.083865   3.325991   2.641478   3.581140
                   16         17         18         19         20
    16  O    0.000000
    17  C    2.422076   0.000000
    18  O    2.800670   1.412692   0.000000
    19  Br   5.512806   5.686357   4.455296   0.000000
    20  H    2.718657   3.152683   2.416361   2.992452   0.000000
    21  H    2.863812   4.143287   4.817789   6.740084   3.930006
    22  H    3.232143   4.347829   4.519027   5.303030   2.872134
    23  H    2.769368   1.100231   2.088912   6.475454   4.050123
    24  H    3.348198   1.093727   2.025471   6.108863   3.697569
    25  H    2.474742   1.931984   0.970920   4.319935   2.387110
                   21         22         23         24         25
    21  H    0.000000
    22  H    1.790809   0.000000
    23  H    4.774346   5.236881   0.000000
    24  H    4.451116   4.630605   1.775741   0.000000
    25  H    4.922901   4.652567   2.300888   2.820684   0.000000
 Stoichiometry    C8H9BrN2O5
 Framework group  C1[X(C8H9BrN2O5)]
 Deg. of freedom    69
 Full point group                 C1      NOp   1
 Largest Abelian subgroup         C1      NOp   1
 Largest concise Abelian subgroup C1      NOp   1
                         Standard orientation:                         
 ---------------------------------------------------------------------
 Center     Atomic      Atomic             Coordinates (Angstroms)
 Number     Number       Type             X           Y           Z
 ---------------------------------------------------------------------
      1          6           0       -0.179547    0.027706    0.180417
      2          6           0       -1.524347   -0.033257    0.064563
      3          6           0       -2.309367    1.172158   -0.210240
      4          8           0       -3.515557    1.252154   -0.336831
      5          7           0       -1.494198    2.315786   -0.328421
      6          1           0       -1.982136    3.183732   -0.522134
      7          6           0       -0.120438    2.430426   -0.216942
      8          8           0        0.468270    3.491688   -0.335727
      9          7           0        0.523591    1.213389    0.057599
     10          6           0        1.986115    1.227705    0.170195
     11          1           0        2.276731    2.260077   -0.019699
     12          6           0        2.519079    0.678488    1.509265
     13          8           0        2.804912   -0.682085    1.210491
     14          6           0        3.313838   -0.655270   -0.100467
     15          1           0        4.379083   -0.365324   -0.089969
     16          8           0        2.568941    0.359059   -0.792807
     17          6           0        3.128682   -1.997449   -0.796812
     18          8           0        1.771042   -2.315640   -1.023234
     19         35           0       -2.453608   -1.668031    0.234779
     20          1           0        0.424216   -0.856363    0.353491
     21          1           0        3.433302    1.217497    1.798984
     22          1           0        1.795361    0.719643    2.324612
     23          1           0        3.707770   -1.984012   -1.732218
     24          1           0        3.540449   -2.780795   -0.154119
     25          1           0        1.430814   -1.662034   -1.655476
 ---------------------------------------------------------------------
 Rotational constants (GHZ):      0.5407708      0.3081462      0.2148918
 General basis read from cards:  (5D, 7F)
 There are   273 symmetry adapted cartesian basis functions of A   symmetry.
 There are   256 symmetry adapted basis functions of A   symmetry.
   256 basis functions,   539 primitive gaussians,   273 cartesian basis functions
    73 alpha electrons       73 beta electrons
       nuclear repulsion energy      1537.7634725859 Hartrees.
 NAtoms=   25 NActive=   25 NUniq=   25 SFac= 1.00D+00 NAtFMM=   60 NAOKFM=F Big=F
 Integral buffers will be    131072 words long.
 Raffenetti 1 integral format.
 Two-electron integral symmetry is turned on.
 One-electron integrals computed using PRISM.
 NBasis=   256 RedAO= T EigKep=  1.35D-03  NBF=   256
 NBsUse=   256 1.00D-06 EigRej= -1.00D+00 NBFU=   256
 ExpMin= 1.43D-01 ExpMax= 5.74D+05 ExpMxC= 5.74D+03 IAcc=2 IRadAn=         4 AccDes= 0.00D+00
 Harris functional with IExCor=  205 and IRadAn=       4 diagonalized for initial guess.
 HarFok:  IExCor=  205 AccDes= 0.00D+00 IRadAn=         4 IDoV= 1 UseB2=F ITyADJ=14
 ICtDFT=  3500011 ScaDFX=  1.000000  1.000000  1.000000  1.000000
 FoFCou: FMM=F IPFlag=           0 FMFlag=      100000 FMFlg1=           0
         NFxFlg=           0 DoJE=T BraDBF=F KetDBF=T FulRan=T
         wScrn=  0.000000 ICntrl=     500 IOpCl=  0 I1Cent=   200000004 NGrid=           0
         NMat0=    1 NMatS0=      1 NMatT0=    0 NMatD0=    1 NMtDS0=    0 NMtDT0=    0
 Petite list used in FoFCou.
 Requested convergence on RMS density matrix=1.00D-08 within 128 cycles.
 Requested convergence on MAX density matrix=1.00D-06.
 Requested convergence on             energy=1.00D-06.
 No special actions if energy rises.
 Integral accuracy reduced to 1.0D-05 until final iterations.
 Initial convergence to 1.0D-05 achieved.  Increase integral accuracy.
 SCF Done:  E(RHF) =  -3360.98907745     A.U. after   16 cycles
            NFock= 16  Conv=0.28D-08     -V/T= 1.9993

 **********************************************************************

            Population analysis using the SCF density.

 **********************************************************************

 Orbital symmetries:
 BldTbl:  Degeneracy threshold= 1.00D-02
       Occupied  (A) (A) (A) (A) (A) (A) (A) (A) (A) (A) (A) (A)
                 (A) (A) (A) (A) (A) (A) (A) (A) (A) (A) (A) (A)
                 (A) (A) (A) (A) (A) (A) (A) (A) (A) (A) (A) (A)
                 (A) (A) (A) (A) (A) (A) (A) (A) (A) (A) (A) (A)
                 (A) (A) (A) (A) (A) (A) (A) (A) (A) (A) (A) (A)
                 (A) (A) (A) (A) (A) (A) (A) (A) (A) (A) (A) (A)
                 (A)
       Virtual   (A) (A) (A) (A) (A) (A) (A) (A) (A) (A) (A) (A)
                 (A) (A) (A) (A) (A) (A) (A) (A) (A) (A) (A) (A)
                 (A) (A) (A) (A) (A) (A) (A) (A) (A) (A) (A) (A)
                 (A) (A) (A) (A) (A) (A) (A) (A) (A) (A) (A) (A)
                 (A) (A) (A) (A) (A) (A) (A) (A) (A) (A) (A) (A)
                 (A) (A) (A) (A) (A) (A) (A) (A) (A) (A) (A) (A)
                 (A) (A) (A) (A) (A) (A) (A) (A) (A) (A) (A) (A)
                 (A) (A) (A) (A) (A) (A) (A) (A) (A) (A) (A) (A)
                 (A) (A) (A) (A) (A) (A) (A) (A) (A) (A) (A) (A)
                 (A) (A) (A) (A) (A) (A) (A) (A) (A) (A) (A) (A)
                 (A) (A) (A) (A) (A) (A) (A) (A) (A) (A) (A) (A)
                 (A) (A) (A) (A) (A) (A) (A) (A) (A) (A) (A) (A)
                 (A) (A) (A) (A) (A) (A) (A) (A) (A) (A) (A) (A)
                 (A) (A) (A) (A) (A) (A) (A) (A) (A) (A) (A) (A)
                 (A) (A) (A) (A) (A) (A) (A) (A) (A) (A) (A) (A)
                 (A) (A) (A)
 The electronic state is 1-A.
 Alpha  occ. eigenvalues -- -489.85298 -64.39654 -58.56350 -58.56156 -58.56147
 Alpha  occ. eigenvalues --  -20.61309 -20.61082 -20.58488 -20.56366 -20.55799
 Alpha  occ. eigenvalues --  -15.65714 -15.63792 -11.43493 -11.39662 -11.36890
 Alpha  occ. eigenvalues --  -11.36613 -11.34174 -11.32176 -11.30969 -11.30275
 Alpha  occ. eigenvalues --   -9.67403  -7.49018  -7.48048  -7.48046  -3.23359
 Alpha  occ. eigenvalues --   -3.22893  -3.22887  -3.21761  -3.21760  -1.48744
 Alpha  occ. eigenvalues --   -1.44332  -1.40786  -1.38309  -1.37845  -1.31843
 Alpha  occ. eigenvalues --   -1.25570  -1.12751  -1.07640  -0.99783  -0.97981
 Alpha  occ. eigenvalues --   -0.93363  -0.92313  -0.86515  -0.85446  -0.79024
 Alpha  occ. eigenvalues --   -0.76764  -0.74923  -0.72894  -0.70421  -0.69907
 Alpha  occ. eigenvalues --   -0.68707  -0.67406  -0.66212  -0.64669  -0.64433
 Alpha  occ. eigenvalues --   -0.62537  -0.61279  -0.59834  -0.57849  -0.55753
 Alpha  occ. eigenvalues --   -0.55370  -0.54287  -0.53564  -0.51772  -0.50904
 Alpha  occ. eigenvalues --   -0.48555  -0.47963  -0.46019  -0.45194  -0.44684
 Alpha  occ. eigenvalues --   -0.43648  -0.41913  -0.34629
 Alpha virt. eigenvalues --    0.08689   0.15941   0.16092   0.21031   0.22701
 Alpha virt. eigenvalues --    0.24090   0.24837   0.25824   0.27308   0.27746
 Alpha virt. eigenvalues --    0.29338   0.30184   0.30776   0.32219   0.33373
 Alpha virt. eigenvalues --    0.34408   0.34880   0.37403   0.39680   0.40778
 Alpha virt. eigenvalues --    0.42107   0.42389   0.45312   0.46510   0.48538
 Alpha virt. eigenvalues --    0.49963   0.51922   0.54885   0.61823   0.63953
 Alpha virt. eigenvalues --    0.64585   0.64787   0.65589   0.65796   0.66501
 Alpha virt. eigenvalues --    0.67317   0.69322   0.70417   0.72118   0.73211
 Alpha virt. eigenvalues --    0.75290   0.75757   0.76881   0.77432   0.78307
 Alpha virt. eigenvalues --    0.79879   0.83243   0.84787   0.85029   0.86602
 Alpha virt. eigenvalues --    0.87542   0.88378   0.91023   0.92943   0.94911
 Alpha virt. eigenvalues --    0.95195   0.97833   0.99804   1.00544   1.02489
 Alpha virt. eigenvalues --    1.04363   1.05130   1.05504   1.06888   1.08077
 Alpha virt. eigenvalues --    1.08511   1.09581   1.10124   1.10326   1.12671
 Alpha virt. eigenvalues --    1.13675   1.14263   1.15469   1.16794   1.18352
 Alpha virt. eigenvalues --    1.20968   1.25593   1.26128   1.28490   1.30187
 Alpha virt. eigenvalues --    1.31689   1.31949   1.33515   1.33979   1.36486
 Alpha virt. eigenvalues --    1.37459   1.38354   1.39514   1.40537   1.42619
 Alpha virt. eigenvalues --    1.43343   1.46514   1.50573   1.51459   1.56263
 Alpha virt. eigenvalues --    1.58281   1.59903   1.61811   1.62645   1.64269
 Alpha virt. eigenvalues --    1.65605   1.66196   1.70565   1.71964   1.74513
 Alpha virt. eigenvalues --    1.77291   1.77796   1.80336   1.80845   1.86618
 Alpha virt. eigenvalues --    1.88185   1.89881   1.92841   1.94834   1.98741
 Alpha virt. eigenvalues --    2.03158   2.03180   2.04788   2.06177   2.07651
 Alpha virt. eigenvalues --    2.09325   2.10501   2.11818   2.12300   2.13845
 Alpha virt. eigenvalues --    2.14495   2.17919   2.21061   2.21762   2.23339
 Alpha virt. eigenvalues --    2.25356   2.25936   2.26187   2.27557   2.30254
 Alpha virt. eigenvalues --    2.31533   2.34453   2.35872   2.38982   2.42663
 Alpha virt. eigenvalues --    2.43445   2.44790   2.45417   2.45698   2.50851
 Alpha virt. eigenvalues --    2.51593   2.56073   2.57901   2.59785   2.61748
 Alpha virt. eigenvalues --    2.62386   2.64357   2.66820   2.70332   2.72595
 Alpha virt. eigenvalues --    2.75157   2.77932   2.79056   2.83802   2.85556
 Alpha virt. eigenvalues --    2.89014   2.92365   2.93440   2.95529   2.97687
 Alpha virt. eigenvalues --    3.00006   3.01801   3.04426   3.05809   3.09946
 Alpha virt. eigenvalues --    3.11510   3.15188   3.20053   3.22372   3.24434
 Alpha virt. eigenvalues --    3.29682   3.32850   3.34754   3.36333   3.37963
 Alpha virt. eigenvalues --    3.60167   3.74070   9.16749
          Condensed to atoms (all electrons):
               1          2          3          4          5          6
     1  C    4.869921   0.558387  -0.054076   0.003060  -0.002172  -0.000824
     2  C    0.558387   5.302283   0.335617  -0.084075  -0.115090   0.004987
     3  C   -0.054076   0.335617   4.034764   0.649175   0.225044  -0.012094
     4  O    0.003060  -0.084075   0.649175   8.089225  -0.086553   0.004248
     5  N   -0.002172  -0.115090   0.225044  -0.086553   7.539255   0.302963
     6  H   -0.000824   0.004987  -0.012094   0.004248   0.302963   0.269453
     7  C   -0.033566  -0.002099  -0.011446   0.000805   0.288595  -0.014740
     8  O    0.000945  -0.000019   0.000533  -0.000014  -0.081193   0.002957
     9  N    0.221429  -0.038856  -0.005616  -0.000051  -0.107659   0.003533
    10  C   -0.022768   0.000547  -0.000154   0.000001   0.001454  -0.000028
    11  H    0.003601   0.000067  -0.000032   0.000000   0.000525  -0.000002
    12  C   -0.009534  -0.000871   0.000019   0.000000  -0.000063   0.000001
    13  O   -0.000032   0.000376   0.000000   0.000000   0.000001   0.000000
    14  C    0.000844  -0.000055  -0.000001   0.000000   0.000002   0.000000
    15  H    0.000139   0.000005   0.000000   0.000000   0.000000   0.000000
    16  O    0.008774   0.000549   0.000006   0.000000  -0.000026   0.000001
    17  C    0.000204  -0.000057   0.000000   0.000000   0.000000   0.000000
    18  O   -0.005634   0.000003   0.000000   0.000000   0.000000   0.000000
    19  Br  -0.066715   0.297288  -0.051330   0.002471   0.002762  -0.000085
    20  H    0.347955  -0.013461   0.001668  -0.000020  -0.000187   0.000007
    21  H    0.000280   0.000015   0.000000   0.000000   0.000001   0.000000
    22  H    0.000449  -0.000224   0.000005   0.000000  -0.000016   0.000000
    23  H   -0.000068   0.000000   0.000000   0.000000   0.000000   0.000000
    24  H    0.000046   0.000001   0.000000   0.000000   0.000000   0.000000
    25  H    0.002179   0.000320   0.000002   0.000000  -0.000001   0.000000
               7          8          9         10         11         12
     1  C   -0.033566   0.000945   0.221429  -0.022768   0.003601  -0.009534
     2  C   -0.002099  -0.000019  -0.038856   0.000547   0.000067  -0.000871
     3  C   -0.011446   0.000533  -0.005616  -0.000154  -0.000032   0.000019
     4  O    0.000805  -0.000014  -0.000051   0.000001   0.000000   0.000000
     5  N    0.288595  -0.081193  -0.107659   0.001454   0.000525  -0.000063
     6  H   -0.014740   0.002957   0.003533  -0.000028  -0.000002   0.000001
     7  C    3.779659   0.643118   0.266158  -0.024700  -0.004329   0.001872
     8  O    0.643118   8.141995  -0.091011  -0.004693   0.012658   0.000210
     9  N    0.266158  -0.091011   7.574081   0.188341  -0.047534  -0.045949
    10  C   -0.024700  -0.004693   0.188341   4.689700   0.412903   0.355490
    11  H   -0.004329   0.012658  -0.047534   0.412903   0.406312  -0.034277
    12  C    0.001872   0.000210  -0.045949   0.355490  -0.034277   4.926271
    13  O   -0.000056  -0.000001   0.000126  -0.047490   0.001735   0.195141
    14  C   -0.000126   0.000000   0.003360  -0.058574   0.002586  -0.066270
    15  H   -0.000006   0.000000  -0.000367   0.000004   0.000698  -0.005510
    16  O    0.000874   0.000062  -0.067377   0.215740  -0.025881  -0.048101
    17  C    0.000011   0.000000   0.000496   0.001699  -0.000206   0.005743
    18  O   -0.000007   0.000000  -0.000284   0.000201   0.000001  -0.000484
    19  Br   0.000089   0.000001   0.002716  -0.000096   0.000001   0.000004
    20  H    0.000595  -0.000046  -0.033691  -0.000059   0.000072  -0.003918
    21  H   -0.000075  -0.000011   0.003696  -0.047734  -0.000630   0.395886
    22  H    0.000184   0.000002  -0.001180  -0.032086   0.001229   0.397309
    23  H    0.000000   0.000000   0.000002  -0.000138   0.000001  -0.000169
    24  H    0.000000   0.000000  -0.000006  -0.000015   0.000002  -0.000269
    25  H   -0.000012   0.000000  -0.000234   0.000139   0.000016  -0.000016
              13         14         15         16         17         18
     1  C   -0.000032   0.000844   0.000139   0.008774   0.000204  -0.005634
     2  C    0.000376  -0.000055   0.000005   0.000549  -0.000057   0.000003
     3  C    0.000000  -0.000001   0.000000   0.000006   0.000000   0.000000
     4  O    0.000000   0.000000   0.000000   0.000000   0.000000   0.000000
     5  N    0.000001   0.000002   0.000000  -0.000026   0.000000   0.000000
     6  H    0.000000   0.000000   0.000000   0.000001   0.000000   0.000000
     7  C   -0.000056  -0.000126  -0.000006   0.000874   0.000011  -0.000007
     8  O   -0.000001   0.000000   0.000000   0.000062   0.000000   0.000000
     9  N    0.000126   0.003360  -0.000367  -0.067377   0.000496  -0.000284
    10  C   -0.047490  -0.058574   0.000004   0.215740   0.001699   0.000201
    11  H    0.001735   0.002586   0.000698  -0.025881  -0.000206   0.000001
    12  C    0.195141  -0.066270  -0.005510  -0.048101   0.005743  -0.000484
    13  O    8.478863   0.219701  -0.044890  -0.053433  -0.035755   0.001277
    14  C    0.219701   4.612081   0.408381   0.202834   0.326391  -0.047886
    15  H   -0.044890   0.408381   0.558548  -0.046680  -0.053705   0.002416
    16  O   -0.053433   0.202834  -0.046680   8.559421  -0.041226  -0.001247
    17  C   -0.035755   0.326391  -0.053705  -0.041226   4.823326   0.221092
    18  O    0.001277  -0.047886   0.002416  -0.001247   0.221092   8.391192
    19  Br  -0.000003  -0.000003   0.000000   0.000003   0.000007   0.000033
    20  H    0.009234  -0.001818   0.000235   0.000958  -0.003007   0.015402
    21  H   -0.036619  -0.002511   0.004109   0.000840  -0.000319   0.000000
    22  H   -0.028100   0.005185  -0.000274   0.002270  -0.000003   0.000008
    23  H    0.002525  -0.051020   0.001837  -0.000641   0.394933  -0.034216
    24  H   -0.001111  -0.042592   0.001885   0.002339   0.396842  -0.030144
    25  H    0.000146  -0.007345   0.000173   0.007938  -0.029263   0.256511
              19         20         21         22         23         24
     1  C   -0.066715   0.347955   0.000280   0.000449  -0.000068   0.000046
     2  C    0.297288  -0.013461   0.000015  -0.000224   0.000000   0.000001
     3  C   -0.051330   0.001668   0.000000   0.000005   0.000000   0.000000
     4  O    0.002471  -0.000020   0.000000   0.000000   0.000000   0.000000
     5  N    0.002762  -0.000187   0.000001  -0.000016   0.000000   0.000000
     6  H   -0.000085   0.000007   0.000000   0.000000   0.000000   0.000000
     7  C    0.000089   0.000595  -0.000075   0.000184   0.000000   0.000000
     8  O    0.000001  -0.000046  -0.000011   0.000002   0.000000   0.000000
     9  N    0.002716  -0.033691   0.003696  -0.001180   0.000002  -0.000006
    10  C   -0.000096  -0.000059  -0.047734  -0.032086  -0.000138  -0.000015
    11  H    0.000001   0.000072  -0.000630   0.001229   0.000001   0.000002
    12  C    0.000004  -0.003918   0.395886   0.397309  -0.000169  -0.000269
    13  O   -0.000003   0.009234  -0.036619  -0.028100   0.002525  -0.001111
    14  C   -0.000003  -0.001818  -0.002511   0.005185  -0.051020  -0.042592
    15  H    0.000000   0.000235   0.004109  -0.000274   0.001837   0.001885
    16  O    0.000003   0.000958   0.000840   0.002270  -0.000641   0.002339
    17  C    0.000007  -0.003007  -0.000319  -0.000003   0.394933   0.396842
    18  O    0.000033   0.015402   0.000000   0.000008  -0.034216  -0.030144
    19  Br  34.874392  -0.000180   0.000000   0.000004   0.000000   0.000000
    20  H   -0.000180   0.345214   0.000195  -0.000518   0.000268  -0.000147
    21  H    0.000000   0.000195   0.514083  -0.025639   0.000008  -0.000003
    22  H    0.000004  -0.000518  -0.025639   0.461647   0.000002  -0.000008
    23  H    0.000000   0.000268   0.000008   0.000002   0.549918  -0.029286
    24  H    0.000000  -0.000147  -0.000003  -0.000008  -0.029286   0.495126
    25  H    0.000079  -0.003162   0.000000  -0.000006  -0.004631   0.004988
              25
     1  C    0.002179
     2  C    0.000320
     3  C    0.000002
     4  O    0.000000
     5  N   -0.000001
     6  H    0.000000
     7  C   -0.000012
     8  O    0.000000
     9  N   -0.000234
    10  C    0.000139
    11  H    0.000016
    12  C   -0.000016
    13  O    0.000146
    14  C   -0.007345
    15  H    0.000173
    16  O    0.007938
    17  C   -0.029263
    18  O    0.256511
    19  Br   0.000079
    20  H   -0.003162
    21  H    0.000000
    22  H   -0.000006
    23  H   -0.004631
    24  H    0.004988
    25  H    0.304165
 Mulliken charges:
               1
     1  C    0.177177
     2  C   -0.245640
     3  C    0.887916
     4  O   -0.578270
     5  N   -0.967643
     6  H    0.439623
     7  C    1.109204
     8  O   -0.625493
     9  N   -0.824123
    10  C    0.372317
    11  H    0.270483
    12  C   -0.062515
    13  O   -0.661636
    14  C    0.496837
    15  H    0.173001
    16  O   -0.717996
    17  C   -0.007204
    18  O   -0.768237
    19  Br  -0.061438
    20  H    0.338409
    21  H    0.194429
    22  H    0.219758
    23  H    0.170676
    24  H    0.202352
    25  H    0.468015
 Sum of Mulliken charges =   0.00000
 Mulliken charges with hydrogens summed into heavy atoms:
               1
     1  C    0.515586
     2  C   -0.245640
     3  C    0.887916
     4  O   -0.578270
     5  N   -0.528020
     7  C    1.109204
     8  O   -0.625493
     9  N   -0.824123
    10  C    0.642801
    12  C    0.351672
    13  O   -0.661636
    14  C    0.669838
    16  O   -0.717996
    17  C    0.365823
    18  O   -0.300222
    19  Br  -0.061438
 DipInt: DoE/N= T F RetVal/Mat= T F Init=T NMatP=  1 IDeriv=0 Min/MaxMlt=  0  4
 Entering OneElI...
 OneElI was handed   235736537 working-precision words.
 Multipole integrals L=0 to 4 MinM= 0 MaxM= 0.
 Requested accuracy = 0.1000D-12
 ShPair: Thresh= 1.00D-13 NBox=     0 BxSize= 0.00D+00 RnKept= 1.54D+01
         NSMCal=                 4095 NSMKep=                3454
 PrsmSu:  NPrtUS=   1 ThrOK=F IAlg=1 NPAlg=1 LenDen=           0.
 Prism:   IPart=     0 DynPar=F LinDyn=F Incr=          34.
 PRISM was handed   235416245 working-precision words and  3454 shell-pairs
 IPart=  0 NShTot=        3454 NBatch=         146 AvBLen=        23.7
 PrSmSu:  NxtVal=             35.
 Electronic moments (au):
       -146.00000000          2.29677850          0.07458878          0.31236022
      -2843.11480046      -1576.38986953       -300.36256892         -1.36354786
          0.06277307          3.60145515       -924.12104811      -1873.38109298
       -184.65195323        413.91578828       2417.65723838       -111.30619679
       -925.14046806        132.06285464        706.64026143       -945.56259966
     -87844.96612731     -36873.48170469      -2439.24963102       6414.16772687
       -725.69712837       1408.97342644        620.94341873       -992.76350924
       -735.02688892     -22771.86806000      -6830.20745942      -2587.48313910
       -808.52481219       2090.71107942        860.33648633
 Electronic spatial extent (au):  <R**2>=           4719.8672
 DipInt: DoE/N= F T RetVal/Mat= T F Init=T NMatP=  1 IDeriv=0 Min/MaxMlt=  0  4
 Nuclear    moments (au):
        146.00000000          0.00000000          0.00000000          0.00000000
       2764.37601019       1490.97970619        224.74033647          0.00000000
         -0.00009827          0.00005905       1032.00276549       1771.13088147
        184.31457293       -469.54154606      -2464.70922830        116.22802492
        902.12018601       -147.71730519       -694.76684924        967.70373284
      78999.39108864      31563.86171756       1522.23743959      -6065.08172192
        573.84451805      -1360.70624334       -685.90799153        947.11295354
        756.92404597      20724.00083120       5193.24064726       1615.92045201
        911.77461197      -2059.60973653       -770.36807376
 Total      moments (au):
          0.00000000          2.29677850          0.07458878          0.31236022
        -78.73879027        -85.41016334        -75.62223246         -1.36354786
          0.06267480          3.60151420        107.88171737       -102.25021152
         -0.33738030        -55.62575778        -47.05198992          4.92182812
        -23.02028206        -15.65445055         11.87341219         22.14113318
      -8845.57503866      -5309.61998714       -917.01219143        349.08600494
       -151.85261032         48.26718311        -64.96457280        -45.65055569
         21.89715705      -2047.86722881      -1636.96681216       -971.56268708
        103.24979978         31.10134289         89.96841256
 Traceless Quadrup. (au):
          1.18493842         -5.48643465          4.30149623         -1.36354786
          0.06267480          3.60151420
 Charge=              0.0000 electrons
 Dipole moment (field-independent basis, Debye):
    X=              5.8378    Y=              0.1896    Z=              0.7939  Tot=              5.8946
 Quadrupole moment (field-independent basis, Debye-Ang):
   XX=           -105.9064   YY=           -114.8796   ZZ=           -101.7145
   XY=             -1.8340   XZ=              0.0843   YZ=              4.8442
 Traceless Quadrupole moment (field-independent basis, Debye-Ang):
   XX=              1.5938   YY=             -7.3794   ZZ=              5.7857
   XY=             -1.8340   XZ=              0.0843   YZ=              4.8442
 Octapole moment (field-independent basis, Debye-Ang**2):
  XXX=             76.7860  YYY=            -72.7778  ZZZ=             -0.2401  XYY=            -39.5923
  XXY=            -33.4898  XXZ=              3.5032  XZZ=            -16.3849  YZZ=            -11.1422
  YYZ=              8.4510  XYZ=             15.7592
 Hexadecapole moment (field-independent basis, Debye-Ang**3):
 XXXX=          -3331.6675 YYYY=          -1999.8574 ZZZZ=           -345.3907 XXXY=            131.4825
 XXXZ=            -57.1950 YYYX=             18.1797 YYYZ=            -24.4688 ZZZX=            -17.1942
 ZZZY=              8.2475 XXYY=           -771.3249 XXZZ=           -616.5602 YYZZ=           -365.9371
 XXYZ=             38.8888 YYXZ=             11.7143 ZZXY=             33.8864
 N-N= 1.537763472586D+03 E-N=-1.108552109156D+04  KE= 3.363214271149D+03
 Entering OneElI...
 OneElI was handed   235782050 working-precision words.
 Calculate electrostatic properties
    NBasis =   256  MinDer = 0  MaxDer = 0
    NGrid  =    25  NMatD  =   1
 Requested accuracy = 0.1000D-12
 ShPair: Thresh= 1.00D-13 NBox=     0 BxSize= 0.00D+00 RnKept= 1.54D+01
         NSMCal=                 4095 NSMKep=                3076
 PrsmSu:  NPrtUS=   1 ThrOK=F IAlg=1 NPAlg=1 LenDen=           0.
 Prism:   IPart=     0 DynPar=F LinDyn=F Incr=         512.
 PRISM was handed   235496257 working-precision words and  3076 shell-pairs
 IPart=  0 NShTot=       76900 NBatch=        3197 AvBLen=        24.1
 PrSmSu:  NxtVal=            513.
 --------------------------------------------------------
       Center         ----      EFG at Nuclei      ----
                      3XX-RR        3YY-RR        3ZZ-RR
 --------------------------------------------------------
     1   Atom        0.303581      0.091473     -0.395054
     2   Atom        0.104111     -0.210863      0.106752
     3   Atom        0.318223      0.133229     -0.451452
     4   Atom       -0.911243      1.655062     -0.743819
     5   Atom       -0.491190     -0.336659      0.827850
     6   Atom        0.033621     -0.236174      0.202552
     7   Atom        0.158550      0.265777     -0.424326
     8   Atom        0.893921     -0.535002     -0.358919
     9   Atom       -0.421577     -0.486356      0.907933
    10   Atom       -0.246025      0.233699      0.012326
    11   Atom        0.092382     -0.222227      0.129844
    12   Atom        0.185271     -0.325659      0.140388
    13   Atom        1.403878     -0.708267     -0.695612
    14   Atom        0.139172      0.102155     -0.241328
    15   Atom       -0.236736      0.104959      0.131776
    16   Atom        0.600374     -0.558544     -0.041830
    17   Atom       -0.282866      0.117862      0.165004
    18   Atom       -1.165964      0.505700      0.660264
    19   Atom        1.183997     -4.897628      3.713631
    20   Atom        0.002737     -0.142801      0.140064
    21   Atom       -0.148925      0.034445      0.114480
    22   Atom       -0.045763      0.139776     -0.094013
    23   Atom        0.019130      0.144297     -0.163426
    24   Atom        0.074988     -0.076730      0.001741
    25   Atom        0.112296     -0.066567     -0.045729
 --------------------------------------------------------
                        XY            XZ            YZ
 --------------------------------------------------------
     1   Atom       -0.168850      0.088530     -0.089270
     2   Atom       -0.163119      0.023540      0.035209
     3   Atom       -0.140819      0.098597     -0.117524
     4   Atom        0.198732     -0.042317     -0.399429
     5   Atom       -0.054004     -0.117932      0.202148
     6   Atom        0.221619     -0.055706      0.099219
     7   Atom        0.128800      0.033142     -0.100693
     8   Atom       -1.058248      0.314461     -0.091055
     9   Atom       -0.032359     -0.136898      0.251716
    10   Atom        0.109319      0.102495     -0.270733
    11   Atom       -0.115685      0.020294      0.062744
    12   Atom        0.135162     -0.016055     -0.057098
    13   Atom        0.551112      1.125897     -0.645793
    14   Atom        0.221952      0.019937      0.258277
    15   Atom       -0.098717     -0.003068     -0.003142
    16   Atom        1.734864      0.062851     -0.311083
    17   Atom       -0.102281     -0.082303     -0.067321
    18   Atom       -0.019366     -1.060518      1.079003
    19   Atom       -4.816520      0.511405      0.925191
    20   Atom        0.182132     -0.040010      0.060376
    21   Atom       -0.166304     -0.090512     -0.054153
    22   Atom        0.014841      0.218070     -0.013948
    23   Atom       -0.008469      0.182408      0.000862
    24   Atom        0.113092     -0.102389      0.179952
    25   Atom        0.144459     -0.158084      0.303099
 --------------------------------------------------------


 ---------------------------------------------------------------------------------
              Nuclear Quadrupole Coupling Constant in Principal Axis System
 ---------------------------------------------------------------------------------

       Atom             a.u.   MegaHertz   Gauss  10(-4) cm-1        Axes

              Baa    -0.5107     2.453     0.875     0.818  0.9685  0.2442  0.0484
     5 N(14)  Bbb    -0.3627     1.742     0.622     0.581 -0.2316  0.9550 -0.1851
              Bcc     0.8734    -4.195    -1.497    -1.399 -0.0915  0.1680  0.9815
 
              Baa    -0.5311     2.551     0.910     0.851  0.0857  0.9828 -0.1638
     9 N(14)  Bbb    -0.4351     2.090     0.746     0.697  0.9912 -0.0675  0.1137
              Bcc     0.9662    -4.640    -1.656    -1.548 -0.1007  0.1721  0.9799
 
              Baa    -7.6512   562.702   200.786   187.697  0.4807  0.8720 -0.0926
    19 Br(79) Bbb     3.8119  -280.343  -100.033   -93.512  0.0067  0.1020  0.9948
              Bcc     3.8393  -282.359  -100.753   -94.185  0.8769 -0.4788  0.0432
 

 ---------------------------------------------------------------------------------

 No NMR shielding tensors so no spin-rotation constants.
 Leave Link  601 at Thu Jan 16 22:41:00 2014, MaxMem=   235929600 cpu:         0.4
 FitSet:  NAtFit=    25 NAtPot=    25 NAtFrz=     0 MDM=    29 TotChg=   0.00000
 Merz-Kollman atomic radii used.
 Atom Element Radius
    1     6    1.50
    2     6    1.50
    3     6    1.50
    4     8    1.40
    5     7    1.50
    6     1    1.20
    7     6    1.50
    8     8    1.40
    9     7    1.50
   10     6    1.50
   11     1    1.20
   12     6    1.50
   13     8    1.40
   14     6    1.50
   15     1    1.20
   16     8    1.40
   17     6    1.50
   18     8    1.40
   19    35    2.30
   20     1    1.20
   21     1    1.20
   22     1    1.20
   23     1    1.20
   24     1    1.20
   25     1    1.20
 Generate VDW surfaces: Layer= 5 Dens= 2 Start= 1.400 Inc= 0.179

 **********************************************************************

            Electrostatic Properties Using The SCF Density

 **********************************************************************

       Atomic Center    1 is at  -0.179547  0.027706  0.180417
       Atomic Center    2 is at  -1.524347 -0.033257  0.064563
       Atomic Center    3 is at  -2.309367  1.172158 -0.210240
       Atomic Center    4 is at  -3.515557  1.252154 -0.336831
       Atomic Center    5 is at  -1.494198  2.315786 -0.328421
       Atomic Center    6 is at  -1.982136  3.183732 -0.522134
       Atomic Center    7 is at  -0.120438  2.430426 -0.216942
       Atomic Center    8 is at   0.468270  3.491688 -0.335727
       Atomic Center    9 is at   0.523591  1.213389  0.057599
       Atomic Center   10 is at   1.986115  1.227705  0.170195
       Atomic Center   11 is at   2.276731  2.260077 -0.019699
       Atomic Center   12 is at   2.519079  0.678488  1.509265
       Atomic Center   13 is at   2.804912 -0.682085  1.210491
       Atomic Center   14 is at   3.313838 -0.655270 -0.100467
       Atomic Center   15 is at   4.379083 -0.365324 -0.089969
       Atomic Center   16 is at   2.568941  0.359059 -0.792807
       Atomic Center   17 is at   3.128682 -1.997449 -0.796812
       Atomic Center   18 is at   1.771042 -2.315640 -1.023234
       Atomic Center   19 is at  -2.453608 -1.668031  0.234779
       Atomic Center   20 is at   0.424216 -0.856363  0.353491
       Atomic Center   21 is at   3.433302  1.217497  1.798984
       Atomic Center   22 is at   1.795361  0.719643  2.324612
       Atomic Center   23 is at   3.707770 -1.984012 -1.732218
       Atomic Center   24 is at   3.540449 -2.780795 -0.154119
       Atomic Center   25 is at   1.430814 -1.662034 -1.655476
      ESP Fit Center   26 is at  -0.179547  0.027706  2.280417
      ESP Fit Center   27 is at  -0.538668  0.649722  2.153772
      ESP Fit Center   28 is at   0.179574 -0.594310  2.153772
      ESP Fit Center   29 is at   0.538695  0.027706 -1.792937
      ESP Fit Center   30 is at  -0.538668  0.649722 -1.792937
      ESP Fit Center   31 is at  -0.179547  0.027706 -1.919583
      ESP Fit Center   32 is at  -1.165226  0.588760 -1.908791
      ESP Fit Center   33 is at  -2.309367  1.172158  1.889760
      ESP Fit Center   34 is at  -1.950246  1.794174  1.763115
      ESP Fit Center   35 is at  -2.668488  1.794174  1.763115
      ESP Fit Center   36 is at  -3.027609  1.172158  1.763115
      ESP Fit Center   37 is at  -3.193333  2.192309  1.398453
      ESP Fit Center   38 is at  -1.591124  1.172158 -2.183594
      ESP Fit Center   39 is at  -2.668488  1.794174 -2.183594
      ESP Fit Center   40 is at  -2.668488  0.550142 -2.183594
      ESP Fit Center   41 is at  -1.950246  0.550142 -2.183594
      ESP Fit Center   42 is at  -2.309367  1.172158 -2.310240
      ESP Fit Center   43 is at  -3.515557  1.252154  1.623169
      ESP Fit Center   44 is at  -3.890586  1.901724  1.473973
      ESP Fit Center   45 is at  -4.265616  1.252154  1.473973
      ESP Fit Center   46 is at  -3.515557  2.638083  1.049098
      ESP Fit Center   47 is at  -4.208521  2.452404  1.049098
      ESP Fit Center   48 is at  -4.715807  1.945119  1.049098
      ESP Fit Center   49 is at  -4.901486  1.252154  1.049098
      ESP Fit Center   50 is at  -4.715807  0.559189  1.049098
      ESP Fit Center   51 is at  -3.704837  3.053038  0.413229
      ESP Fit Center   52 is at  -4.420959  2.820356  0.413229
      ESP Fit Center   53 is at  -4.980528  2.316518  0.413229
      ESP Fit Center   54 is at  -5.286790  1.628641  0.413229
      ESP Fit Center   55 is at  -5.286790  0.875667  0.413229
      ESP Fit Center   56 is at  -4.051936  3.137332 -0.336831
      ESP Fit Center   57 is at  -4.696721  2.816268 -0.336831
      ESP Fit Center   58 is at  -5.181982  2.283961 -0.336831
      ESP Fit Center   59 is at  -5.442184  1.612303 -0.336831
      ESP Fit Center   60 is at  -5.442184  0.892005 -0.336831
      ESP Fit Center   61 is at  -5.181982  0.220347 -0.336831
      ESP Fit Center   62 is at  -3.704837  3.053038 -1.086890
      ESP Fit Center   63 is at  -4.420959  2.820356 -1.086890
      ESP Fit Center   64 is at  -4.980528  2.316518 -1.086890
      ESP Fit Center   65 is at  -5.286790  1.628641 -1.086890
      ESP Fit Center   66 is at  -5.286790  0.875667 -1.086890
      ESP Fit Center   67 is at  -4.980528  0.187790 -1.086890
      ESP Fit Center   68 is at  -3.515557  2.638083 -1.722760
      ESP Fit Center   69 is at  -4.208521  2.452404 -1.722760
      ESP Fit Center   70 is at  -4.715807  1.945119 -1.722760
      ESP Fit Center   71 is at  -4.901486  1.252154 -1.722760
      ESP Fit Center   72 is at  -4.715807  0.559189 -1.722760
      ESP Fit Center   73 is at  -3.140527  1.901724 -2.147635
      ESP Fit Center   74 is at  -3.890586  1.901724 -2.147635
      ESP Fit Center   75 is at  -4.265616  1.252154 -2.147635
      ESP Fit Center   76 is at  -3.890586  0.602583 -2.147635
      ESP Fit Center   77 is at  -3.140527  0.602583 -2.147635
      ESP Fit Center   78 is at  -3.515557  1.252154 -2.296831
      ESP Fit Center   79 is at  -1.494198  2.315786  1.771579
      ESP Fit Center   80 is at  -1.135077  2.937803  1.644934
      ESP Fit Center   81 is at  -1.853320  2.937803  1.644934
      ESP Fit Center   82 is at  -2.212441  2.315786  1.644934
      ESP Fit Center   83 is at  -1.135077  1.693770  1.644934
      ESP Fit Center   84 is at  -1.686303  3.651901  1.280272
      ESP Fit Center   85 is at  -2.378165  3.335938  1.280272
      ESP Fit Center   86 is at  -2.789374  2.696084  1.280272
      ESP Fit Center   87 is at  -0.933449  3.543657 -1.937114
      ESP Fit Center   88 is at  -2.789374  2.696084 -1.937114
      ESP Fit Center   89 is at  -0.933449  1.087916 -1.937114
      ESP Fit Center   90 is at  -0.775956  2.315786 -2.301775
      ESP Fit Center   91 is at  -1.135077  2.937803 -2.301775
      ESP Fit Center   92 is at  -1.853320  2.937803 -2.301775
      ESP Fit Center   93 is at  -2.212441  2.315786 -2.301775
      ESP Fit Center   94 is at  -1.853320  1.693770 -2.301775
      ESP Fit Center   95 is at  -1.135077  1.693770 -2.301775
      ESP Fit Center   96 is at  -1.494198  2.315786 -2.428421
      ESP Fit Center   97 is at  -2.346599  3.814999  0.991494
      ESP Fit Center   98 is at  -1.576250  4.432922  0.525329
      ESP Fit Center   99 is at  -2.388023  4.432922  0.525329
      ESP Fit Center  100 is at  -3.044761  3.955774  0.525329
      ESP Fit Center  101 is at  -3.295613  3.183732  0.525329
      ESP Fit Center  102 is at  -1.784712  4.809668 -0.148299
      ESP Fit Center  103 is at  -2.562936  4.715175 -0.148299
      ESP Fit Center  104 is at  -3.208106  4.269846 -0.148299
      ESP Fit Center  105 is at  -3.572421  3.575702 -0.148299
      ESP Fit Center  106 is at  -1.784712  4.809668 -0.895969
      ESP Fit Center  107 is at  -2.562936  4.715175 -0.895969
      ESP Fit Center  108 is at  -3.208106  4.269846 -0.895969
      ESP Fit Center  109 is at  -3.572421  3.575702 -0.895969
      ESP Fit Center  110 is at  -1.576250  4.432922 -1.569597
      ESP Fit Center  111 is at  -2.388023  4.432922 -1.569597
      ESP Fit Center  112 is at  -3.044761  3.955774 -1.569597
      ESP Fit Center  113 is at  -3.295613  3.183732 -1.569597
      ESP Fit Center  114 is at  -1.617674  3.814999 -2.035762
      ESP Fit Center  115 is at  -2.346599  3.814999 -2.035762
      ESP Fit Center  116 is at  -2.711061  3.183732 -2.035762
      ESP Fit Center  117 is at  -1.982136  3.183732 -2.202134
      ESP Fit Center  118 is at  -0.120438  2.430426  1.883058
      ESP Fit Center  119 is at   0.238683  3.052442  1.756413
      ESP Fit Center  120 is at  -0.479560  3.052442  1.756413
      ESP Fit Center  121 is at  -0.838681  2.430426  1.756413
      ESP Fit Center  122 is at  -1.004405  3.450578  1.391751
      ESP Fit Center  123 is at  -1.029765  4.005426  0.833058
      ESP Fit Center  124 is at   1.229416  2.430426 -1.825635
      ESP Fit Center  125 is at   0.597804  2.430426 -2.190296
      ESP Fit Center  126 is at  -0.479560  3.052442 -2.190296
      ESP Fit Center  127 is at  -0.479560  1.808410 -2.190296
      ESP Fit Center  128 is at   0.238683  1.808410 -2.190296
      ESP Fit Center  129 is at  -0.120438  2.430426 -2.316942
      ESP Fit Center  130 is at   0.468270  3.491688  1.624273
      ESP Fit Center  131 is at   1.218329  3.491688  1.475077
      ESP Fit Center  132 is at   0.843300  4.141259  1.475077
      ESP Fit Center  133 is at   0.093240  4.141259  1.475077
      ESP Fit Center  134 is at   1.854199  3.491688  1.050202
      ESP Fit Center  135 is at   1.668520  4.184653  1.050202
      ESP Fit Center  136 is at   1.161234  4.691938  1.050202
      ESP Fit Center  137 is at   0.468270  4.877617  1.050202
      ESP Fit Center  138 is at  -0.224695  4.691938  1.050202
      ESP Fit Center  139 is at  -0.731980  4.184653  1.050202
      ESP Fit Center  140 is at   2.122521  4.228208  0.414333
      ESP Fit Center  141 is at   1.679934  4.837378  0.414333
      ESP Fit Center  142 is at   1.027839  5.213865  0.414333
      ESP Fit Center  143 is at   0.278989  5.292572  0.414333
      ESP Fit Center  144 is at  -0.437132  5.059890  0.414333
      ESP Fit Center  145 is at  -0.996701  4.556052  0.414333
      ESP Fit Center  146 is at   2.295915  4.199722 -0.335727
      ESP Fit Center  147 is at   1.916727  4.812131 -0.335727
      ESP Fit Center  148 is at   1.341917  5.246208 -0.335727
      ESP Fit Center  149 is at   0.649116  5.443327 -0.335727
      ESP Fit Center  150 is at  -0.068110  5.376866 -0.335727
      ESP Fit Center  151 is at  -0.712894  5.055802 -0.335727
      ESP Fit Center  152 is at   2.122521  4.228208 -1.085786
      ESP Fit Center  153 is at   1.679934  4.837378 -1.085786
      ESP Fit Center  154 is at   1.027839  5.213865 -1.085786
      ESP Fit Center  155 is at   0.278989  5.292572 -1.085786
      ESP Fit Center  156 is at  -0.437132  5.059890 -1.085786
      ESP Fit Center  157 is at  -0.996701  4.556052 -1.085786
      ESP Fit Center  158 is at   1.854199  3.491688 -1.721656
      ESP Fit Center  159 is at   1.668520  4.184653 -1.721656
      ESP Fit Center  160 is at   1.161234  4.691938 -1.721656
      ESP Fit Center  161 is at   0.468270  4.877617 -1.721656
      ESP Fit Center  162 is at  -0.224695  4.691938 -1.721656
      ESP Fit Center  163 is at  -0.731980  4.184653 -1.721656
      ESP Fit Center  164 is at   1.668520  2.798723 -1.721656
      ESP Fit Center  165 is at   1.218329  3.491688 -2.146531
      ESP Fit Center  166 is at   0.843300  4.141259 -2.146531
      ESP Fit Center  167 is at   0.093240  4.141259 -2.146531
      ESP Fit Center  168 is at  -0.281790  3.491688 -2.146531
      ESP Fit Center  169 is at   0.843300  2.842117 -2.146531
      ESP Fit Center  170 is at   0.468270  3.491688 -2.295727
      ESP Fit Center  171 is at   0.164470  1.835405  2.030954
      ESP Fit Center  172 is at  -0.194651  1.213389  2.030954
      ESP Fit Center  173 is at   1.084341  2.441259  1.666292
      ESP Fit Center  174 is at  -0.771584  1.593687  1.666292
      ESP Fit Center  175 is at   0.164470  0.591373 -1.915755
      ESP Fit Center  176 is at   0.882712  0.591373 -1.915755
      ESP Fit Center  177 is at   0.523591  1.213389 -2.042401
      ESP Fit Center  178 is at   1.626994  1.849721 -1.803159
      ESP Fit Center  179 is at   2.641193  2.891344  1.493929
      ESP Fit Center  180 is at   1.912268  2.891344  1.493929
      ESP Fit Center  181 is at   3.339356  3.032119  1.027764
      ESP Fit Center  182 is at   2.682617  3.509267  1.027764
      ESP Fit Center  183 is at   3.914609  2.260077  0.354136
      ESP Fit Center  184 is at   3.727000  3.021237  0.354136
      ESP Fit Center  185 is at   3.207152  3.608025  0.354136
      ESP Fit Center  186 is at   2.474155  3.886014  0.354136
      ESP Fit Center  187 is at   3.914609  2.260077 -0.393534
      ESP Fit Center  188 is at   3.727000  3.021237 -0.393534
      ESP Fit Center  189 is at   3.207152  3.608025 -0.393534
      ESP Fit Center  190 is at   2.474155  3.886014 -0.393534
      ESP Fit Center  191 is at   3.590207  2.260077 -1.067162
      ESP Fit Center  192 is at   3.339356  3.032119 -1.067162
      ESP Fit Center  193 is at   2.682617  3.509267 -1.067162
      ESP Fit Center  194 is at   3.005655  2.260077 -1.533327
      ESP Fit Center  195 is at   2.641193  2.891344 -1.533327
      ESP Fit Center  196 is at   1.912268  2.891344 -1.533327
      ESP Fit Center  197 is at   2.276731  2.260077 -1.699699
      ESP Fit Center  198 is at   3.237321  0.678488  3.482620
      ESP Fit Center  199 is at   2.878200  1.300504  3.482620
      ESP Fit Center  200 is at   2.878200  0.056471  3.482620
      ESP Fit Center  201 is at   3.654649 -0.051299  3.117958
      ESP Fit Center  202 is at   2.328978  2.487178  2.559265
      ESP Fit Center  203 is at   2.709899  2.737762  1.873926
      ESP Fit Center  204 is at   1.953118  2.667636  1.873926
      ESP Fit Center  205 is at   1.272773  2.328864  1.873926
      ESP Fit Center  206 is at   2.804912 -0.682085  3.170491
      ESP Fit Center  207 is at   3.554971 -0.682085  3.021295
      ESP Fit Center  208 is at   2.429882 -1.331655  3.021295
      ESP Fit Center  209 is at   3.179942 -1.331655  3.021295
      ESP Fit Center  210 is at   4.190841 -0.682085  2.596420
      ESP Fit Center  211 is at   1.604662 -1.375049  2.596420
      ESP Fit Center  212 is at   2.111947 -1.882334  2.596420
      ESP Fit Center  213 is at   2.804912 -2.068014  2.596420
      ESP Fit Center  214 is at   3.497877 -1.882334  2.596420
      ESP Fit Center  215 is at   4.005162 -1.375049  2.596420
      ESP Fit Center  216 is at   4.615716 -0.682085  1.960551
      ESP Fit Center  217 is at   1.033678 -1.058572  1.960551
      ESP Fit Center  218 is at   1.339941 -1.746448  1.960551
      ESP Fit Center  219 is at   1.899510 -2.250287  1.960551
      ESP Fit Center  220 is at   2.615631 -2.482969  1.960551
      ESP Fit Center  221 is at   3.364481 -2.404261  1.960551
      ESP Fit Center  222 is at   4.016576 -2.027774  1.960551
      ESP Fit Center  223 is at   4.459164 -1.418605  1.960551
      ESP Fit Center  224 is at   1.623748 -2.246198  1.210491
      ESP Fit Center  225 is at   2.268532 -2.567263  1.210491
      ESP Fit Center  226 is at   4.253369 -2.002528  1.210491
      ESP Fit Center  227 is at   5.108008 -0.365324  1.423659
      ESP Fit Center  228 is at   4.743545 -0.996591  1.423659
      ESP Fit Center  229 is at   5.692560 -0.365324  0.957494
      ESP Fit Center  230 is at   5.441708  0.406719  0.957494
      ESP Fit Center  231 is at   5.441708 -1.137366  0.957494
      ESP Fit Center  232 is at   6.016962 -0.365324  0.283866
      ESP Fit Center  233 is at   5.829353  0.395836  0.283866
      ESP Fit Center  234 is at   5.309504  0.982624  0.283866
      ESP Fit Center  235 is at   4.576507  1.260613  0.283866
      ESP Fit Center  236 is at   5.309504 -1.713272  0.283866
      ESP Fit Center  237 is at   5.829353 -1.126484  0.283866
      ESP Fit Center  238 is at   6.016962 -0.365324 -0.463804
      ESP Fit Center  239 is at   5.829353  0.395836 -0.463804
      ESP Fit Center  240 is at   5.309504  0.982624 -0.463804
      ESP Fit Center  241 is at   4.576507  1.260613 -0.463804
      ESP Fit Center  242 is at   5.309504 -1.713272 -0.463804
      ESP Fit Center  243 is at   5.829353 -1.126484 -0.463804
      ESP Fit Center  244 is at   5.692560 -0.365324 -1.137432
      ESP Fit Center  245 is at   5.441708  0.406719 -1.137432
      ESP Fit Center  246 is at   4.784970  0.883867 -1.137432
      ESP Fit Center  247 is at   5.441708 -1.137366 -1.137432
      ESP Fit Center  248 is at   5.108008 -0.365324 -1.603597
      ESP Fit Center  249 is at   4.743545  0.265943 -1.603597
      ESP Fit Center  250 is at   4.017399  1.679502 -0.792807
      ESP Fit Center  251 is at   4.223193  1.095579 -1.542866
      ESP Fit Center  252 is at   3.780605  1.704748 -1.542866
      ESP Fit Center  253 is at   3.128510  2.081235 -1.542866
      ESP Fit Center  254 is at   3.954870  0.359059 -2.178736
      ESP Fit Center  255 is at   3.769191  1.052023 -2.178736
      ESP Fit Center  256 is at   3.261906  1.559309 -2.178736
      ESP Fit Center  257 is at   2.568941  1.744988 -2.178736
      ESP Fit Center  258 is at   1.875976  1.559309 -2.178736
      ESP Fit Center  259 is at   1.368691  1.052023 -2.178736
      ESP Fit Center  260 is at   1.183012  0.359059 -2.178736
      ESP Fit Center  261 is at   3.769191 -0.333906 -2.178736
      ESP Fit Center  262 is at   3.319001  0.359059 -2.603611
      ESP Fit Center  263 is at   2.943971  1.008629 -2.603611
      ESP Fit Center  264 is at   2.193911  1.008629 -2.603611
      ESP Fit Center  265 is at   1.818882  0.359059 -2.603611
      ESP Fit Center  266 is at   2.193911 -0.290512 -2.603611
      ESP Fit Center  267 is at   2.943971 -0.290512 -2.603611
      ESP Fit Center  268 is at   2.568941  0.359059 -2.752807
      ESP Fit Center  269 is at   5.196778 -1.997449 -0.432151
      ESP Fit Center  270 is at   2.938581 -3.806139 -1.846812
      ESP Fit Center  271 is at   3.690676 -3.727091 -1.846812
      ESP Fit Center  272 is at   2.936577 -3.333563 -2.405505
      ESP Fit Center  273 is at   1.396012 -2.965211  0.787570
      ESP Fit Center  274 is at   2.146071 -2.965211  0.787570
      ESP Fit Center  275 is at   0.570792 -3.008605  0.362695
      ESP Fit Center  276 is at   1.078077 -3.515890  0.362695
      ESP Fit Center  277 is at   1.771042 -3.701570  0.362695
      ESP Fit Center  278 is at   0.306070 -3.380004 -0.273174
      ESP Fit Center  279 is at   0.865640 -3.883842 -0.273174
      ESP Fit Center  280 is at   1.581761 -4.116524 -0.273174
      ESP Fit Center  281 is at   2.330611 -4.037817 -0.273174
      ESP Fit Center  282 is at   0.104616 -3.347447 -1.023234
      ESP Fit Center  283 is at   0.589878 -3.879754 -1.023234
      ESP Fit Center  284 is at   1.234662 -4.200819 -1.023234
      ESP Fit Center  285 is at   1.951888 -4.267279 -1.023234
      ESP Fit Center  286 is at   2.644689 -4.070160 -1.023234
      ESP Fit Center  287 is at  -0.000192 -2.692128 -1.773293
      ESP Fit Center  288 is at   0.306070 -3.380004 -1.773293
      ESP Fit Center  289 is at   0.865640 -3.883842 -1.773293
      ESP Fit Center  290 is at   1.581761 -4.116524 -1.773293
      ESP Fit Center  291 is at   2.330611 -4.037817 -1.773293
      ESP Fit Center  292 is at   0.570792 -3.008605 -2.409163
      ESP Fit Center  293 is at   1.078077 -3.515890 -2.409163
      ESP Fit Center  294 is at   1.771042 -3.701570 -2.409163
      ESP Fit Center  295 is at   2.464006 -3.515890 -2.409163
      ESP Fit Center  296 is at   1.396012 -2.965211 -2.834038
      ESP Fit Center  297 is at   2.146071 -2.965211 -2.834038
      ESP Fit Center  298 is at  -2.453608 -1.668031  3.454779
      ESP Fit Center  299 is at  -1.737091 -1.668031  3.374047
      ESP Fit Center  300 is at  -2.095350 -1.047509  3.374047
      ESP Fit Center  301 is at  -2.811867 -1.047509  3.374047
      ESP Fit Center  302 is at  -3.170126 -1.668031  3.374047
      ESP Fit Center  303 is at  -2.811867 -2.288554  3.374047
      ESP Fit Center  304 is at  -2.095350 -2.288554  3.374047
      ESP Fit Center  305 is at  -1.056503 -1.668031  3.135899
      ESP Fit Center  306 is at  -1.243679 -0.969479  3.135899
      ESP Fit Center  307 is at  -1.755055 -0.458102  3.135899
      ESP Fit Center  308 is at  -2.453608 -0.270926  3.135899
      ESP Fit Center  309 is at  -3.152161 -0.458102  3.135899
      ESP Fit Center  310 is at  -3.663537 -0.969479  3.135899
      ESP Fit Center  311 is at  -3.850714 -1.668031  3.135899
      ESP Fit Center  312 is at  -3.663537 -2.366584  3.135899
      ESP Fit Center  313 is at  -3.152161 -2.877960  3.135899
      ESP Fit Center  314 is at  -2.453608 -3.065137  3.135899
      ESP Fit Center  315 is at  -1.755055 -2.877960  3.135899
      ESP Fit Center  316 is at  -1.243679 -2.366584  3.135899
      ESP Fit Center  317 is at  -0.445971 -1.668031  2.752276
      ESP Fit Center  318 is at  -0.581542 -0.942789  2.752276
      ESP Fit Center  319 is at  -0.969947 -0.315495  2.752276
      ESP Fit Center  320 is at  -1.558727  0.129132  2.752276
      ESP Fit Center  321 is at  -2.268367  0.331042  2.752276
      ESP Fit Center  322 is at  -3.003024  0.262966  2.752276
      ESP Fit Center  323 is at  -3.663480 -0.065902  2.752276
      ESP Fit Center  324 is at  -4.160536 -0.611147  2.752276
      ESP Fit Center  325 is at  -4.427062 -1.299129  2.752276
      ESP Fit Center  326 is at  -4.427062 -2.036934  2.752276
      ESP Fit Center  327 is at  -4.160536 -2.724916  2.752276
      ESP Fit Center  328 is at  -3.663480 -3.270160  2.752276
      ESP Fit Center  329 is at  -3.003024 -3.599028  2.752276
      ESP Fit Center  330 is at  -2.268367 -3.667104  2.752276
      ESP Fit Center  331 is at  -1.558727 -3.465194  2.752276
      ESP Fit Center  332 is at  -0.969947 -3.020568  2.752276
      ESP Fit Center  333 is at  -0.581542 -2.393274  2.752276
      ESP Fit Center  334 is at   0.063889 -1.668031  2.242416
      ESP Fit Center  335 is at  -0.047956 -0.925986  2.242416
      ESP Fit Center  336 is at  -0.883974  0.300227  2.242416
      ESP Fit Center  337 is at  -1.533863  0.675441  2.242416
      ESP Fit Center  338 is at  -2.265475  0.842427  2.242416
      ESP Fit Center  339 is at  -3.013804  0.786347  2.242416
      ESP Fit Center  340 is at  -3.712357  0.512185  2.242416
      ESP Fit Center  341 is at  -4.299064  0.044302  2.242416
      ESP Fit Center  342 is at  -4.721795 -0.575730  2.242416
      ESP Fit Center  343 is at  -4.942987 -1.292818  2.242416
      ESP Fit Center  344 is at  -4.942987 -2.043245  2.242416
      ESP Fit Center  345 is at  -4.721795 -2.760333  2.242416
      ESP Fit Center  346 is at  -4.299064 -3.380364  2.242416
      ESP Fit Center  347 is at  -3.712357 -3.848248  2.242416
      ESP Fit Center  348 is at  -3.013804 -4.122410  2.242416
      ESP Fit Center  349 is at  -2.265475 -4.178489  2.242416
      ESP Fit Center  350 is at  -1.533863 -4.011504  2.242416
      ESP Fit Center  351 is at  -0.883974 -3.636290  2.242416
      ESP Fit Center  352 is at  -0.373554 -3.086188  2.242416
      ESP Fit Center  353 is at  -0.047956 -2.410077  2.242416
      ESP Fit Center  354 is at  -3.688845  0.956980  1.631885
      ESP Fit Center  355 is at  -4.302852  0.567320  1.631885
      ESP Fit Center  356 is at  -4.800663  0.037204  1.631885
      ESP Fit Center  357 is at  -5.151001 -0.600058  1.631885
      ESP Fit Center  358 is at  -5.331852 -1.304425  1.631885
      ESP Fit Center  359 is at  -5.331852 -2.031638  1.631885
      ESP Fit Center  360 is at  -5.151001 -2.736005  1.631885
      ESP Fit Center  361 is at  -4.800663 -3.373267  1.631885
      ESP Fit Center  362 is at  -4.302852 -3.903383  1.631885
      ESP Fit Center  363 is at  -3.688845 -4.293043  1.631885
      ESP Fit Center  364 is at  -2.997224 -4.517764  1.631885
      ESP Fit Center  365 is at  -2.271445 -4.563426  1.631885
      ESP Fit Center  366 is at  -1.557113 -4.427160  1.631885
      ESP Fit Center  367 is at  -0.899111 -4.117528  1.631885
      ESP Fit Center  368 is at  -0.338783 -3.653985  1.631885
      ESP Fit Center  369 is at   0.088662 -3.065656  1.631885
      ESP Fit Center  370 is at   0.356367 -2.389511  1.631885
      ESP Fit Center  371 is at  -5.076428  0.057025  0.951296
      ESP Fit Center  372 is at  -5.403555 -0.594339  0.951296
      ESP Fit Center  373 is at  -5.571650 -1.303585  0.951296
      ESP Fit Center  374 is at  -5.571650 -2.032478  0.951296
      ESP Fit Center  375 is at  -5.403555 -2.741724  0.951296
      ESP Fit Center  376 is at  -5.076428 -3.393087  0.951296
      ESP Fit Center  377 is at  -4.607905 -3.951452  0.951296
      ESP Fit Center  378 is at  -4.023242 -4.386717  0.951296
      ESP Fit Center  379 is at  -3.353960 -4.675417  0.951296
      ESP Fit Center  380 is at  -2.636141 -4.801988  0.951296
      ESP Fit Center  381 is at  -1.908480 -4.759607  0.951296
      ESP Fit Center  382 is at  -1.210208 -4.550558  0.951296
      ESP Fit Center  383 is at  -0.578968 -4.186111  0.951296
      ESP Fit Center  384 is at  -0.048790 -3.685914  0.951296
      ESP Fit Center  385 is at   0.351744 -3.076932  0.951296
      ESP Fit Center  386 is at  -5.354728 -0.270926  0.234779
      ESP Fit Center  387 is at  -5.592876 -0.951514  0.234779
      ESP Fit Center  388 is at  -5.673608 -1.668031  0.234779
      ESP Fit Center  389 is at  -5.592876 -2.384549  0.234779
      ESP Fit Center  390 is at  -5.354728 -3.065137  0.234779
      ESP Fit Center  391 is at  -4.971106 -3.675669  0.234779
      ESP Fit Center  392 is at  -4.461245 -4.185529  0.234779
      ESP Fit Center  393 is at  -3.850714 -4.569151  0.234779
      ESP Fit Center  394 is at  -3.170126 -4.807299  0.234779
      ESP Fit Center  395 is at  -2.453608 -4.888031  0.234779
      ESP Fit Center  396 is at  -1.737091 -4.807299  0.234779
      ESP Fit Center  397 is at  -1.056503 -4.569151  0.234779
      ESP Fit Center  398 is at  -0.445971 -4.185529  0.234779
      ESP Fit Center  399 is at   0.063889 -3.675669  0.234779
      ESP Fit Center  400 is at   0.447511 -3.065137  0.234779
      ESP Fit Center  401 is at  -5.076428  0.057025 -0.481738
      ESP Fit Center  402 is at  -5.403555 -0.594339 -0.481738
      ESP Fit Center  403 is at  -5.571650 -1.303585 -0.481738
      ESP Fit Center  404 is at  -5.571650 -2.032478 -0.481738
      ESP Fit Center  405 is at  -5.403555 -2.741724 -0.481738
      ESP Fit Center  406 is at  -5.076428 -3.393087 -0.481738
      ESP Fit Center  407 is at  -4.607905 -3.951452 -0.481738
      ESP Fit Center  408 is at  -4.023242 -4.386717 -0.481738
      ESP Fit Center  409 is at  -3.353960 -4.675417 -0.481738
      ESP Fit Center  410 is at  -2.636141 -4.801988 -0.481738
      ESP Fit Center  411 is at  -1.908480 -4.759607 -0.481738
      ESP Fit Center  412 is at  -1.210208 -4.550558 -0.481738
      ESP Fit Center  413 is at  -0.578968 -4.186111 -0.481738
      ESP Fit Center  414 is at  -0.048790 -3.685914 -0.481738
      ESP Fit Center  415 is at  -5.151001 -0.600058 -1.162327
      ESP Fit Center  416 is at  -5.331852 -1.304425 -1.162327
      ESP Fit Center  417 is at  -5.331852 -2.031638 -1.162327
      ESP Fit Center  418 is at  -5.151001 -2.736005 -1.162327
      ESP Fit Center  419 is at  -4.800663 -3.373267 -1.162327
      ESP Fit Center  420 is at  -4.302852 -3.903383 -1.162327
      ESP Fit Center  421 is at  -3.688845 -4.293043 -1.162327
      ESP Fit Center  422 is at  -2.997224 -4.517764 -1.162327
      ESP Fit Center  423 is at  -2.271445 -4.563426 -1.162327
      ESP Fit Center  424 is at  -1.557113 -4.427160 -1.162327
      ESP Fit Center  425 is at  -0.899111 -4.117528 -1.162327
      ESP Fit Center  426 is at  -0.338783 -3.653985 -1.162327
      ESP Fit Center  427 is at  -4.299064  0.044302 -1.772858
      ESP Fit Center  428 is at  -4.721795 -0.575730 -1.772858
      ESP Fit Center  429 is at  -4.942987 -1.292818 -1.772858
      ESP Fit Center  430 is at  -4.942987 -2.043245 -1.772858
      ESP Fit Center  431 is at  -4.721795 -2.760333 -1.772858
      ESP Fit Center  432 is at  -4.299064 -3.380364 -1.772858
      ESP Fit Center  433 is at  -3.712357 -3.848248 -1.772858
      ESP Fit Center  434 is at  -3.013804 -4.122410 -1.772858
      ESP Fit Center  435 is at  -2.265475 -4.178489 -1.772858
      ESP Fit Center  436 is at  -1.533863 -4.011504 -1.772858
      ESP Fit Center  437 is at  -0.883974 -3.636290 -1.772858
      ESP Fit Center  438 is at  -0.373554 -3.086188 -1.772858
      ESP Fit Center  439 is at  -0.445971 -1.668031 -2.282718
      ESP Fit Center  440 is at  -0.581542 -0.942789 -2.282718
      ESP Fit Center  441 is at  -0.969947 -0.315495 -2.282718
      ESP Fit Center  442 is at  -1.558727  0.129132 -2.282718
      ESP Fit Center  443 is at  -2.268367  0.331042 -2.282718
      ESP Fit Center  444 is at  -3.003024  0.262966 -2.282718
      ESP Fit Center  445 is at  -3.663480 -0.065902 -2.282718
      ESP Fit Center  446 is at  -4.160536 -0.611147 -2.282718
      ESP Fit Center  447 is at  -4.427062 -1.299129 -2.282718
      ESP Fit Center  448 is at  -4.427062 -2.036934 -2.282718
      ESP Fit Center  449 is at  -4.160536 -2.724916 -2.282718
      ESP Fit Center  450 is at  -3.663480 -3.270160 -2.282718
      ESP Fit Center  451 is at  -3.003024 -3.599028 -2.282718
      ESP Fit Center  452 is at  -2.268367 -3.667104 -2.282718
      ESP Fit Center  453 is at  -1.558727 -3.465194 -2.282718
      ESP Fit Center  454 is at  -0.969947 -3.020568 -2.282718
      ESP Fit Center  455 is at  -0.581542 -2.393274 -2.282718
      ESP Fit Center  456 is at  -1.056503 -1.668031 -2.666341
      ESP Fit Center  457 is at  -1.243679 -0.969479 -2.666341
      ESP Fit Center  458 is at  -1.755055 -0.458102 -2.666341
      ESP Fit Center  459 is at  -2.453608 -0.270926 -2.666341
      ESP Fit Center  460 is at  -3.152161 -0.458102 -2.666341
      ESP Fit Center  461 is at  -3.663537 -0.969479 -2.666341
      ESP Fit Center  462 is at  -3.850714 -1.668031 -2.666341
      ESP Fit Center  463 is at  -3.663537 -2.366584 -2.666341
      ESP Fit Center  464 is at  -3.152161 -2.877960 -2.666341
      ESP Fit Center  465 is at  -2.453608 -3.065137 -2.666341
      ESP Fit Center  466 is at  -1.755055 -2.877960 -2.666341
      ESP Fit Center  467 is at  -1.243679 -2.366584 -2.666341
      ESP Fit Center  468 is at  -1.737091 -1.668031 -2.904489
      ESP Fit Center  469 is at  -2.095350 -1.047509 -2.904489
      ESP Fit Center  470 is at  -2.811867 -1.047509 -2.904489
      ESP Fit Center  471 is at  -3.170126 -1.668031 -2.904489
      ESP Fit Center  472 is at  -2.811867 -2.288554 -2.904489
      ESP Fit Center  473 is at  -2.095350 -2.288554 -2.904489
      ESP Fit Center  474 is at  -2.453608 -1.668031 -2.985221
      ESP Fit Center  475 is at   0.424216 -0.856363  2.033491
      ESP Fit Center  476 is at   0.788678 -1.487630  1.867119
      ESP Fit Center  477 is at   0.830103 -2.105554  1.400954
      ESP Fit Center  478 is at   3.433302  1.217497  3.478984
      ESP Fit Center  479 is at   4.162227  1.217497  3.312612
      ESP Fit Center  480 is at   3.797765  1.848765  3.312612
      ESP Fit Center  481 is at   3.068840  1.848765  3.312612
      ESP Fit Center  482 is at   3.797765  0.586230  3.312612
      ESP Fit Center  483 is at   4.746779  1.217497  2.846447
      ESP Fit Center  484 is at   4.495927  1.989540  2.846447
      ESP Fit Center  485 is at   3.839189  2.466688  2.846447
      ESP Fit Center  486 is at   3.027416  2.466688  2.846447
      ESP Fit Center  487 is at   4.495927  0.445455  2.846447
      ESP Fit Center  488 is at   5.071181  1.217497  2.172819
      ESP Fit Center  489 is at   4.883572  1.978658  2.172819
      ESP Fit Center  490 is at   4.363724  2.565445  2.172819
      ESP Fit Center  491 is at   3.630727  2.843434  2.172819
      ESP Fit Center  492 is at   2.852502  2.748941  2.172819
      ESP Fit Center  493 is at   4.883572  0.456337  2.172819
      ESP Fit Center  494 is at   5.071181  1.217497  1.425149
      ESP Fit Center  495 is at   4.883572  1.978658  1.425149
      ESP Fit Center  496 is at   4.363724  2.565445  1.425149
      ESP Fit Center  497 is at   3.630727  2.843434  1.425149
      ESP Fit Center  498 is at   4.883572  0.456337  1.425149
      ESP Fit Center  499 is at   4.746779  1.217497  0.751521
      ESP Fit Center  500 is at   4.495927  1.989540  0.751521
      ESP Fit Center  501 is at   3.839189  2.466688  0.751521
      ESP Fit Center  502 is at   1.795361  0.719643  4.004612
      ESP Fit Center  503 is at   2.524286  0.719643  3.838240
      ESP Fit Center  504 is at   2.159824  1.350910  3.838240
      ESP Fit Center  505 is at   1.430899  1.350910  3.838240
      ESP Fit Center  506 is at   1.066437  0.719643  3.838240
      ESP Fit Center  507 is at   1.430899  0.088375  3.838240
      ESP Fit Center  508 is at   2.159824  0.088375  3.838240
      ESP Fit Center  509 is at   2.201248  1.968833  3.372075
      ESP Fit Center  510 is at   1.389475  1.968833  3.372075
      ESP Fit Center  511 is at   0.732736  1.491685  3.372075
      ESP Fit Center  512 is at   0.481884  0.719643  3.372075
      ESP Fit Center  513 is at   0.732736 -0.052400  3.372075
      ESP Fit Center  514 is at   1.389475 -0.529548  3.372075
      ESP Fit Center  515 is at   2.201248 -0.529548  3.372075
      ESP Fit Center  516 is at   1.992786  2.345580  2.698447
      ESP Fit Center  517 is at   1.214561  2.251086  2.698447
      ESP Fit Center  518 is at   0.569391  1.805757  2.698447
      ESP Fit Center  519 is at   0.205076  1.111613  2.698447
      ESP Fit Center  520 is at   0.205076  0.327673  2.698447
      ESP Fit Center  521 is at   0.569391 -0.366472  2.698447
      ESP Fit Center  522 is at   1.214561 -0.811801  2.698447
      ESP Fit Center  523 is at   5.345649 -1.984012 -1.358383
      ESP Fit Center  524 is at   5.158039 -1.222851 -1.358383
      ESP Fit Center  525 is at   5.158039 -2.745172 -1.358383
      ESP Fit Center  526 is at   5.345649 -1.984012 -2.106053
      ESP Fit Center  527 is at   5.158039 -1.222851 -2.106053
      ESP Fit Center  528 is at   4.638191 -0.636064 -2.106053
      ESP Fit Center  529 is at   3.905194 -0.358075 -2.106053
      ESP Fit Center  530 is at   3.905194 -3.609949 -2.106053
      ESP Fit Center  531 is at   4.638191 -3.331960 -2.106053
      ESP Fit Center  532 is at   5.158039 -2.745172 -2.106053
      ESP Fit Center  533 is at   5.021247 -1.984012 -2.779681
      ESP Fit Center  534 is at   4.770395 -1.211969 -2.779681
      ESP Fit Center  535 is at   4.113656 -0.734821 -2.779681
      ESP Fit Center  536 is at   3.301883 -0.734821 -2.779681
      ESP Fit Center  537 is at   2.645144 -1.211969 -2.779681
      ESP Fit Center  538 is at   2.645144 -2.756054 -2.779681
      ESP Fit Center  539 is at   3.301883 -3.233202 -2.779681
      ESP Fit Center  540 is at   4.113656 -3.233202 -2.779681
      ESP Fit Center  541 is at   4.770395 -2.756054 -2.779681
      ESP Fit Center  542 is at   4.436694 -1.984012 -3.245846
      ESP Fit Center  543 is at   4.072232 -1.352744 -3.245846
      ESP Fit Center  544 is at   3.343307 -1.352744 -3.245846
      ESP Fit Center  545 is at   2.978845 -1.984012 -3.245846
      ESP Fit Center  546 is at   3.343307 -2.615279 -3.245846
      ESP Fit Center  547 is at   4.072232 -2.615279 -3.245846
      ESP Fit Center  548 is at   3.707770 -1.984012 -3.412218
      ESP Fit Center  549 is at   3.540449 -2.780795  1.525881
      ESP Fit Center  550 is at   4.269374 -2.780795  1.359509
      ESP Fit Center  551 is at   2.811525 -2.780795  1.359509
      ESP Fit Center  552 is at   3.175987 -3.412062  1.359509
      ESP Fit Center  553 is at   3.904912 -3.412062  1.359509
      ESP Fit Center  554 is at   4.853926 -2.780795  0.893344
      ESP Fit Center  555 is at   4.603075 -2.008752  0.893344
      ESP Fit Center  556 is at   2.477824 -3.552837  0.893344
      ESP Fit Center  557 is at   3.134563 -4.029985  0.893344
      ESP Fit Center  558 is at   3.946336 -4.029985  0.893344
      ESP Fit Center  559 is at   4.603075 -3.552837  0.893344
      ESP Fit Center  560 is at   5.178328 -2.780795  0.219716
      ESP Fit Center  561 is at   4.990719 -2.019634  0.219716
      ESP Fit Center  562 is at   2.314479 -3.866909  0.219716
      ESP Fit Center  563 is at   2.959650 -4.312238  0.219716
      ESP Fit Center  564 is at   3.737874 -4.406732  0.219716
      ESP Fit Center  565 is at   4.470871 -4.128743  0.219716
      ESP Fit Center  566 is at   4.990719 -3.541955  0.219716
      ESP Fit Center  567 is at   5.178328 -2.780795 -0.527954
      ESP Fit Center  568 is at   2.959650 -4.312238 -0.527954
      ESP Fit Center  569 is at   3.737874 -4.406732 -0.527954
      ESP Fit Center  570 is at   4.470871 -4.128743 -0.527954
      ESP Fit Center  571 is at   4.990719 -3.541955 -0.527954
      ESP Fit Center  572 is at   3.946336 -4.029985 -1.201582
      ESP Fit Center  573 is at   4.603075 -3.552837 -1.201582
      ESP Fit Center  574 is at   0.850014 -0.130591 -2.029311
      ESP Fit Center  575 is at   0.204844 -0.575920 -2.029311
      ESP Fit Center  576 is at  -0.159471 -1.270064 -2.029311
      ESP Fit Center  577 is at  -0.159471 -2.054004 -2.029311
      ESP Fit Center  578 is at   2.493439 -0.889992 -2.702939
      ESP Fit Center  579 is at   1.836700 -0.412843 -2.702939
      ESP Fit Center  580 is at   1.024927 -0.412843 -2.702939
      ESP Fit Center  581 is at   0.368189 -0.889992 -2.702939
[...]
 2898 Fit      -0.014405
 2899 Fit      -0.015841
 2900 Fit      -0.015731
 2901 Fit      -0.013726
 2902 Fit      -0.009135
 2903 Fit      -0.000968
 2904 Fit      -0.005875
 2905 Fit      -0.009685
 2906 Fit      -0.012802
 2907 Fit      -0.014496
 2908 Fit      -0.014432
 2909 Fit      -0.012203
 2910 Fit      -0.007326
 2911 Fit      -0.007046
 2912 Fit      -0.010466
 2913 Fit      -0.012395
 2914 Fit      -0.011990
 2915 Fit      -0.008785
 2916 Fit      -0.003337
 2917 Fit      -0.003066
 2918 Fit      -0.006563
 2919 Fit      -0.009319
 2920 Fit      -0.007378
 2921 Fit      -0.002260
 2922 Fit      -0.004914
 2923 Fit       0.010071
 2924 Fit       0.024986
 2925 Fit       0.019595
 2926 Fit       0.014336
 2927 Fit       0.021191
 2928 Fit       0.014067
 2929 Fit       0.005448
 2930 Fit       0.023543
 2931 Fit       0.017676
 2932 Fit       0.011026
 2933 Fit       0.002077
 2934 Fit       0.018681
 2935 Fit       0.013861
 2936 Fit       0.007579
 2937 Fit       0.013418
 2938 Fit       0.009615
 2939 Fit       0.003554
 2940 Fit       0.007748
 2941 Fit       0.003840
 2942 Fit       0.002451
 2943 Fit      -0.003085
 2944 Fit       0.016912
 2945 Fit       0.019161
 2946 Fit       0.014676
 2947 Fit       0.016756
 2948 Fit       0.019151
 2949 Fit       0.020278
 2950 Fit       0.020908
 2951 Fit       0.010395
 2952 Fit       0.010608
 2953 Fit       0.013405
 2954 Fit       0.021224
 2955 Fit       0.008757
 2956 Fit       0.013393
 2957 Fit       0.021031
 2958 Fit       0.020691
 2959 Fit       0.014329
 2960 Fit       0.019980
 2961 Fit       0.018602
 2962 Fit       0.018958
 2963 Fit       0.019699
 2964 Fit       0.015988
 2965 Fit       0.004969
 2966 Fit       0.004090
 2967 Fit       0.005696
 2968 Fit       0.000534
 2969 Fit      -0.000913
 2970 Fit       0.000362
 2971 Fit       0.003555
 2972 Fit       0.009409
 2973 Fit      -0.002156
 2974 Fit      -0.003942
 2975 Fit      -0.003353
 2976 Fit      -0.001412
 2977 Fit       0.001293
 2978 Fit       0.004793
 2979 Fit       0.011781
 2980 Fit      -0.005938
 2981 Fit      -0.005896
 2982 Fit      -0.003885
 2983 Fit      -0.001153
 2984 Fit       0.001583
 2985 Fit       0.004364
 2986 Fit       0.007618
 2987 Fit       0.015814
 2988 Fit      -0.007188
 2989 Fit      -0.003343
 2990 Fit       0.007114
 2991 Fit       0.009469
 2992 Fit       0.012249
 2993 Fit       0.013349
 2994 Fit       0.015909
 2995 Fit       0.019215
 2996 Fit       0.017769
 2997 Fit       0.019103
 2998 Fit       0.020437
 2999 Fit       0.022687
 3000 Fit       0.018936
 3001 Fit       0.021079
 3002 Fit       0.022009
 3003 Fit       0.023729
 3004 Fit       0.020769
 3005 Fit       0.020666
 3006 Fit       0.021397
 3007 Fit       0.021580
 3008 Fit       0.022254
 3009 Fit       0.023729
 3010 Fit       0.022508
 3011 Fit       0.021651
 3012 Fit       0.021540
 3013 Fit       0.021091
 3014 Fit       0.020920
 3015 Fit       0.021080
 3016 Fit       0.021843
 3017 Fit       0.023819
 3018 Fit       0.022363
 3019 Fit       0.021597
 3020 Fit       0.020512
 3021 Fit       0.019513
 3022 Fit       0.018370
 3023 Fit       0.023024
 3024 Fit       0.021653
 3025 Fit       0.019595
 3026 Fit       0.017272
 3027 Fit       0.024179
 3028 Fit       0.021773
 3029 Fit       0.017977
 3030 Fit       0.014516
 3031 Fit       0.011057
 3032 Fit       0.008292
 3033 Fit       0.010121
 3034 Fit       0.006047
 3035 Fit       0.003309
 3036 Fit       0.001175
 3037 Fit       0.011264
 3038 Fit       0.006081
 3039 Fit       0.002407
 3040 Fit       0.000071
 3041 Fit      -0.001256
 3042 Fit      -0.000915
 3043 Fit       0.002561
 3044 Fit       0.008116
 3045 Fit       0.003383
 3046 Fit       0.000512
 3047 Fit      -0.000261
 3048 Fit       0.001499
 3049 Fit       0.005596
 3050 Fit       0.011591
 3051 Fit       0.006489
 3052 Fit       0.002493
 3053 Fit       0.003144
 3054 Fit       0.008387
 3055 Fit       0.013644
 3056 Fit       0.011867
 3057 Fit       0.006580
 3058 Fit      -0.008428
 3059 Fit       0.021690
 3060 Fit       0.024274
 3061 Fit       0.018899
 3062 Fit       0.021382
 3063 Fit      -0.002093
 3064 Fit       0.004262
 3065 Fit       0.008984
 3066 Fit       0.012572
 3067 Fit       0.015486
 3068 Fit       0.018105
 3069 Fit       0.020661
 3070 Fit       0.001552
 3071 Fit       0.006908
 3072 Fit       0.011034
 3073 Fit       0.003172
 3074 Fit       0.008421
 3075 Fit       0.006001
 3076 Fit      -0.009248
 3077 Fit      -0.007498
 3078 Fit      -0.008165
 3079 Fit      -0.010671
 3080 Fit      -0.014516
 3081 Fit      -0.010180
 3082 Fit      -0.014198
 3083 Fit      -0.010419
 3084 Fit      -0.004817
 3085 Fit      -0.013327
 3086 Fit      -0.010596
 3087 Fit      -0.006049
 3088 Fit      -0.010755
 3089 Fit      -0.010181
 3090 Fit      -0.007510
 3091 Fit      -0.002767
 3092 Fit      -0.005394
 3093 Fit      -0.006047
 3094 Fit      -0.003975
 3095 Fit       0.000674
 3096 Fit       0.003802
 3097 Fit       0.000026
 3098 Fit       0.000286
 3099 Fit       0.004317
 3100 Fit       0.006678
 3101 Fit       0.008245
 3102 Fit      -0.002735
 3103 Fit      -0.001166
 3104 Fit      -0.001081
 3105 Fit      -0.002953
 3106 Fit      -0.004172
 3107 Fit      -0.003877
 3108 Fit      -0.002705
 3109 Fit       0.000536
 3110 Fit       0.001805
 3111 Fit       0.001199
 3112 Fit      -0.000975
 3113 Fit      -0.003397
 3114 Fit      -0.005003
 3115 Fit      -0.005502
 3116 Fit      -0.005223
 3117 Fit      -0.004604
 3118 Fit      -0.003843
 3119 Fit      -0.002836
 3120 Fit      -0.001349
 3121 Fit       0.002301
 3122 Fit       0.004710
 3123 Fit       0.005554
 3124 Fit       0.004245
 3125 Fit       0.001593
 3126 Fit      -0.001441
 3127 Fit      -0.004122
 3128 Fit      -0.005935
 3129 Fit      -0.006743
 3130 Fit      -0.006752
 3131 Fit      -0.006287
 3132 Fit      -0.005641
 3133 Fit      -0.005001
 3134 Fit      -0.004428
 3135 Fit      -0.003853
 3136 Fit      -0.003103
 3137 Fit      -0.001949
 3138 Fit      -0.000160
 3139 Fit       0.003856
 3140 Fit       0.007848
 3141 Fit       0.010705
 3142 Fit       0.010629
 3143 Fit       0.008203
 3144 Fit       0.004815
 3145 Fit       0.001181
 3146 Fit      -0.002312
 3147 Fit      -0.005229
 3148 Fit      -0.007208
 3149 Fit      -0.008181
 3150 Fit      -0.008335
 3151 Fit      -0.007946
 3152 Fit      -0.007265
 3153 Fit      -0.006488
 3154 Fit      -0.005756
 3155 Fit      -0.005149
 3156 Fit      -0.004687
 3157 Fit      -0.004326
 3158 Fit      -0.003970
 3159 Fit      -0.003481
 3160 Fit      -0.002696
 3161 Fit      -0.001419
 3162 Fit       0.000649
 3163 Fit       0.004369
 3164 Fit       0.016886
 3165 Fit       0.012368
 3166 Fit       0.007842
 3167 Fit       0.003423
 3168 Fit      -0.000890
 3169 Fit      -0.004784
 3170 Fit      -0.007758
 3171 Fit      -0.009536
 3172 Fit      -0.010222
 3173 Fit      -0.010113
 3174 Fit      -0.009510
 3175 Fit      -0.008647
 3176 Fit      -0.007691
 3177 Fit      -0.006762
 3178 Fit      -0.005948
 3179 Fit      -0.005302
 3180 Fit      -0.004843
 3181 Fit      -0.004553
 3182 Fit      -0.004377
 3183 Fit      -0.004229
 3184 Fit      -0.004004
 3185 Fit      -0.003591
 3186 Fit      -0.002880
 3187 Fit      -0.001715
 3188 Fit       0.000351
 3189 Fit       0.015710
 3190 Fit       0.010124
 3191 Fit       0.004850
 3192 Fit      -0.000436
 3193 Fit      -0.005464
 3194 Fit      -0.009423
 3195 Fit      -0.011800
 3196 Fit      -0.012710
 3197 Fit      -0.012585
 3198 Fit      -0.011848
 3199 Fit      -0.010798
 3200 Fit      -0.009622
 3201 Fit      -0.008439
 3202 Fit      -0.007333
 3203 Fit      -0.006366
 3204 Fit      -0.005586
 3205 Fit      -0.005016
 3206 Fit      -0.004659
 3207 Fit      -0.004491
 3208 Fit      -0.004462
 3209 Fit      -0.004503
 3210 Fit      -0.004531
 3211 Fit      -0.004459
 3212 Fit      -0.004222
 3213 Fit      -0.003824
 3214 Fit      -0.003317
 3215 Fit      -0.002323
 3216 Fit       0.000014
 3217 Fit      -0.006583
 3218 Fit      -0.011987
 3219 Fit      -0.015152
 3220 Fit      -0.016231
 3221 Fit      -0.015923
 3222 Fit      -0.014876
 3223 Fit      -0.013504
 3224 Fit      -0.012030
 3225 Fit      -0.010570
 3226 Fit      -0.009187
 3227 Fit      -0.007925
 3228 Fit      -0.006824
 3229 Fit      -0.005914
 3230 Fit      -0.005219
 3231 Fit      -0.004750
 3232 Fit      -0.004499
 3233 Fit      -0.004444
 3234 Fit      -0.004544
 3235 Fit      -0.004746
 3236 Fit      -0.004990
 3237 Fit      -0.005209
 3238 Fit      -0.005345
 3239 Fit      -0.005396
 3240 Fit      -0.005570
 3241 Fit      -0.006577
 3242 Fit      -0.021228
 3243 Fit      -0.019963
 3244 Fit      -0.018084
 3245 Fit      -0.016070
 3246 Fit      -0.014121
 3247 Fit      -0.012307
 3248 Fit      -0.010648
 3249 Fit      -0.009152
 3250 Fit      -0.007833
 3251 Fit      -0.006708
 3252 Fit      -0.005796
 3253 Fit      -0.005112
 3254 Fit      -0.004660
 3255 Fit      -0.004437
 3256 Fit      -0.004424
 3257 Fit      -0.004592
 3258 Fit      -0.004906
 3259 Fit      -0.005325
 3260 Fit      -0.005808
 3261 Fit      -0.006307
 3262 Fit      -0.006768
 3263 Fit      -0.007175
 3264 Fit      -0.007858
 3265 Fit      -0.025472
 3266 Fit      -0.022303
 3267 Fit      -0.019290
 3268 Fit      -0.016614
 3269 Fit      -0.014278
 3270 Fit      -0.012233
 3271 Fit      -0.010440
 3272 Fit      -0.008873
 3273 Fit      -0.007530
 3274 Fit      -0.006417
 3275 Fit      -0.005546
 3276 Fit      -0.004924
 3277 Fit      -0.004555
 3278 Fit      -0.004429
 3279 Fit      -0.004530
 3280 Fit      -0.004834
 3281 Fit      -0.005318
 3282 Fit      -0.005967
 3283 Fit      -0.006775
 3284 Fit      -0.007739
 3285 Fit      -0.008804
 3286 Fit      -0.009759
 3287 Fit      -0.027265
 3288 Fit      -0.022961
 3289 Fit      -0.019397
 3290 Fit      -0.016455
 3291 Fit      -0.013992
 3292 Fit      -0.011896
 3293 Fit      -0.010095
 3294 Fit      -0.008552
 3295 Fit      -0.007255
 3296 Fit      -0.006206
 3297 Fit      -0.005410
 3298 Fit      -0.004874
 3299 Fit      -0.004595
 3300 Fit      -0.004564
 3301 Fit      -0.004769
 3302 Fit      -0.005198
 3303 Fit      -0.005852
 3304 Fit      -0.006758
 3305 Fit      -0.007993
 3306 Fit      -0.009685
 3307 Fit      -0.011950
 3308 Fit      -0.024635
 3309 Fit      -0.020514
 3310 Fit      -0.017234
 3311 Fit      -0.014563
 3312 Fit      -0.012335
 3313 Fit      -0.010450
 3314 Fit      -0.008853
 3315 Fit      -0.007521
 3316 Fit      -0.006449
 3317 Fit      -0.005639
 3318 Fit      -0.005095
 3319 Fit      -0.004815
 3320 Fit      -0.004793
 3321 Fit      -0.005022
 3322 Fit      -0.005501
 3323 Fit      -0.006257
 3324 Fit      -0.007369
 3325 Fit      -0.009027
 3326 Fit      -0.011625
 3327 Fit      -0.028214
 3328 Fit      -0.023197
 3329 Fit      -0.019295
 3330 Fit      -0.016199
 3331 Fit      -0.013679
 3332 Fit      -0.011583
 3333 Fit      -0.009822
 3334 Fit      -0.008353
 3335 Fit      -0.007157
 3336 Fit      -0.006233
 3337 Fit      -0.005580
 3338 Fit      -0.005200
 3339 Fit      -0.005087
 3340 Fit      -0.005238
 3341 Fit      -0.005659
 3342 Fit      -0.006385
 3343 Fit      -0.007524
 3344 Fit      -0.009338
 3345 Fit      -0.012451
 3346 Fit      -0.025112
 3347 Fit      -0.020929
 3348 Fit      -0.017592
 3349 Fit      -0.014890
 3350 Fit      -0.012659
 3351 Fit      -0.010792
 3352 Fit      -0.009231
 3353 Fit      -0.007946
 3354 Fit      -0.006929
 3355 Fit      -0.006178
 3356 Fit      -0.005692
 3357 Fit      -0.005469
 3358 Fit      -0.005506
 3359 Fit      -0.005806
 3360 Fit      -0.006402
 3361 Fit      -0.007391
 3362 Fit      -0.009024
 3363 Fit      -0.011907
 3364 Fit      -0.026001
 3365 Fit      -0.022006
 3366 Fit      -0.018607
 3367 Fit      -0.015788
 3368 Fit      -0.013448
 3369 Fit      -0.011490
 3370 Fit      -0.009853
 3371 Fit      -0.008503
 3372 Fit      -0.007430
 3373 Fit      -0.006630
 3374 Fit      -0.006101
 3375 Fit      -0.005839
 3376 Fit      -0.005838
 3377 Fit      -0.006103
 3378 Fit      -0.006671
 3379 Fit      -0.007661
 3380 Fit      -0.009372
 3381 Fit      -0.012509
 3382 Fit      -0.022911
 3383 Fit      -0.020217
 3384 Fit      -0.017473
 3385 Fit      -0.015003
 3386 Fit      -0.012867
 3387 Fit      -0.011048
 3388 Fit      -0.009522
 3389 Fit      -0.008279
 3390 Fit      -0.007314
 3391 Fit      -0.006627
 3392 Fit      -0.006211
 3393 Fit      -0.006051
 3394 Fit      -0.006135
 3395 Fit      -0.006466
 3396 Fit      -0.007090
 3397 Fit      -0.008103
 3398 Fit      -0.009537
 3399 Fit       0.013473
 3400 Fit       0.010700
 3401 Fit       0.008336
 3402 Fit      -0.006480
 3403 Fit      -0.013193
 3404 Fit      -0.017294
 3405 Fit      -0.018317
 3406 Fit      -0.017406
 3407 Fit      -0.015689
 3408 Fit      -0.013802
 3409 Fit      -0.012013
 3410 Fit      -0.010421
 3411 Fit      -0.009064
 3412 Fit      -0.007959
 3413 Fit      -0.007115
 3414 Fit      -0.006523
 3415 Fit      -0.006161
 3416 Fit      -0.005982
 3417 Fit      -0.005919
 3418 Fit      -0.005848
 3419 Fit      -0.005440
 3420 Fit      -0.003650
 3421 Fit       0.014933
 3422 Fit       0.011606
 3423 Fit       0.008297
 3424 Fit       0.005452
 3425 Fit       0.002086
 3426 Fit      -0.002359
 3427 Fit      -0.007458
 3428 Fit      -0.011618
 3429 Fit      -0.013663
 3430 Fit      -0.013819
 3431 Fit      -0.012906
 3432 Fit      -0.011575
 3433 Fit      -0.010185
 3434 Fit      -0.008907
 3435 Fit      -0.007822
 3436 Fit      -0.006958
 3437 Fit      -0.006297
 3438 Fit      -0.005764
 3439 Fit      -0.005210
 3440 Fit      -0.004333
 3441 Fit      -0.002497
 3442 Fit       0.001452
 3443 Fit       0.008159
 3444 Fit       0.006713
 3445 Fit       0.007281
 3446 Fit       0.005370
 3447 Fit       0.002595
 3448 Fit      -0.000878
 3449 Fit      -0.004948
 3450 Fit      -0.008527
 3451 Fit      -0.010457
 3452 Fit      -0.010722
 3453 Fit      -0.010001
 3454 Fit      -0.008903
 3455 Fit      -0.007773
 3456 Fit      -0.006755
 3457 Fit      -0.005839
 3458 Fit      -0.004847
 3459 Fit      -0.003388
 3460 Fit      -0.000831
 3461 Fit       0.003112
 3462 Fit       0.002047
 3463 Fit       0.002179
 3464 Fit       0.000062
 3465 Fit      -0.003222
 3466 Fit      -0.006429
 3467 Fit      -0.008142
 3468 Fit      -0.008200
 3469 Fit      -0.007359
 3470 Fit      -0.006214
 3471 Fit      -0.004885
 3472 Fit      -0.003056
 3473 Fit      -0.000399
 3474 Fit      -0.001273
 3475 Fit      -0.002127
 3476 Fit      -0.004955
 3477 Fit      -0.006184
 3478 Fit      -0.005278
 3479 Fit      -0.003267
 3480 Fit      -0.003917
 3481 Fit       0.018655
 3482 Fit       0.020060
 3483 Fit       0.018455
 3484 Fit       0.019577
 3485 Fit       0.020323
 3486 Fit       0.016450
 3487 Fit       0.019048
 3488 Fit       0.019903
 3489 Fit       0.020254
 3490 Fit       0.020469
 3491 Fit       0.021035
 3492 Fit       0.017214
 3493 Fit       0.020288
 3494 Fit       0.020765
 3495 Fit       0.020837
 3496 Fit       0.020707
 3497 Fit       0.020542
 3498 Fit       0.020637
 3499 Fit       0.015953
 3500 Fit       0.018989
 3501 Fit       0.022187
 3502 Fit       0.022054
 3503 Fit       0.021725
 3504 Fit       0.021302
 3505 Fit       0.020812
 3506 Fit       0.020317
 3507 Fit       0.021738
 3508 Fit       0.024848
 3509 Fit       0.023691
 3510 Fit       0.022830
 3511 Fit       0.022167
 3512 Fit       0.021587
 3513 Fit       0.025582
 3514 Fit       0.024140
 3515 Fit       0.023503
 3516 Fit       0.016931
 3517 Fit       0.017356
 3518 Fit       0.018670
 3519 Fit       0.018186
 3520 Fit       0.016745
 3521 Fit       0.015072
 3522 Fit       0.015094
 3523 Fit       0.020441
 3524 Fit       0.019655
 3525 Fit       0.018776
 3526 Fit       0.017536
 3527 Fit       0.015699
 3528 Fit       0.013614
 3529 Fit       0.011903
 3530 Fit       0.011943
 3531 Fit       0.020908
 3532 Fit       0.019971
 3533 Fit       0.019422
 3534 Fit       0.018501
 3535 Fit       0.016811
 3536 Fit       0.009663
 3537 Fit       0.007212
 3538 Fit       0.020507
 3539 Fit       0.020530
 3540 Fit       0.020642
 3541 Fit       0.019692
 3542 Fit       0.020799
 3543 Fit       0.022520
 3544 Fit       0.014607
 3545 Fit       0.016873
 3546 Fit       0.018893
 3547 Fit       0.018601
 3548 Fit       0.019525
 3549 Fit       0.019519
 3550 Fit       0.017671
 3551 Fit       0.010537
 3552 Fit       0.013294
 3553 Fit       0.015438
 3554 Fit       0.017191
 3555 Fit       0.016916
 3556 Fit       0.017389
 3557 Fit       0.016638
 3558 Fit       0.014219
 3559 Fit       0.008462
 3560 Fit       0.011471
 3561 Fit       0.013849
 3562 Fit       0.015667
 3563 Fit       0.015588
 3564 Fit       0.015767
 3565 Fit       0.014738
 3566 Fit       0.014083
 3567 Fit       0.016731
 3568 Fit       0.009701
 3569 Fit       0.010092
 3570 Fit       0.012265
 3571 Fit       0.014296
 3572 Fit       0.014595
 3573 Fit       0.014769
 3574 Fit       0.015030
 3575 Fit       0.014586
 3576 Fit       0.012495
 3577 Fit       0.013251
 3578 Fit       0.014099
 3579 Fit       0.003651
 3580 Fit       0.010356
 3581 Fit      -0.002271
 3582 Fit       0.002985
 3583 Fit       0.006897
 3584 Fit       0.009455
 3585 Fit       0.015533
 3586 Fit      -0.004905
 3587 Fit       0.000513
 3588 Fit       0.004941
 3589 Fit       0.008392
 3590 Fit       0.011113
 3591 Fit       0.013408
 3592 Fit       0.019024
 3593 Fit      -0.005330
 3594 Fit       0.000516
 3595 Fit       0.004981
 3596 Fit       0.008431
 3597 Fit       0.011214
 3598 Fit       0.013654
 3599 Fit       0.016108
 3600 Fit       0.021179
 3601 Fit       0.000832
 3602 Fit       0.005633
 3603 Fit       0.009225
 3604 Fit       0.012129
 3605 Fit       0.014767
 3606 Fit       0.017583
 3607 Fit      -0.000350
 3608 Fit       0.005200
 3609 Fit       0.009173
 3610 Fit       0.012338
 3611 Fit       0.015231
 3612 Fit       0.018366
 3613 Fit       0.008381
 3614 Fit       0.012013
 3615 Fit       0.015938
 3616 Fit       0.017845
 3617 Fit       0.015412
 3618 Fit       0.015898
 3619 Fit       0.016318
 3620 Fit       0.006792
 3621 Fit       0.016490
 3622 Fit       0.016810
 3623 Fit       0.016180
 3624 Fit       0.013888
 3625 Fit       0.011377
 3626 Fit       0.012831
 3627 Fit       0.015110
 -----------------------------------------------------------------
 Leave Link  602 at Thu Jan 16 22:41:02 2014, MaxMem=   235929600 cpu:         1.6

 Test job not archived.
 1\1\GINC-G59\SP\RHF\Gen\C8H9Br1N2O5\KOLAR\16-Jan-2014\0\\# hf/gen pop=
 mk iop(6/33=2,6/41=5,6/42=2)\\na resp\\0,1\C,0,0.179547,0.027706,-0.18
 0417\C,0,1.524347,-0.033257,-0.064563\C,0,2.309367,1.172157,0.21024\O,
 0,3.515557,1.252153,0.336831\N,0,1.494199,2.315786,0.328421\H,0,1.9821
 37,3.183731,0.522134\C,0,0.120439,2.430426,0.216942\O,0,-0.468269,3.49
 1688,0.335727\N,0,-0.523591,1.213389,-0.057599\C,0,-1.986115,1.227705,
 -0.170195\H,0,-2.27673,2.260077,0.019699\C,0,-2.519079,0.678488,-1.509
 265\O,0,-2.804912,-0.682084,-1.210491\C,0,-3.313838,-0.655269,0.100467
 \H,0,-4.379083,-0.365323,0.089969\O,0,-2.568941,0.359059,0.792807\C,0,
 -3.128682,-1.997448,0.796812\O,0,-1.771042,-2.31564,1.023234\Br,0,2.45
 3608,-1.668032,-0.234779\H,0,-0.424216,-0.856363,-0.353491\H,0,-3.4333
 02,1.217498,-1.798984\H,0,-1.795361,0.719643,-2.324612\H,0,-3.70777,-1
 .984011,1.732218\H,0,-3.54045,-2.780794,0.154119\H,0,-1.430814,-1.6620
 34,1.655476\\Version=AM64L-G09RevD.01\State=1-A\HF=-3360.9890774\RMSD=
 2.819e-09\Dipole=-2.2967785,0.0745893,-0.3123602\Quadrupole=1.184939,-
 5.4864352,4.3014962,1.3635464,0.062674,-3.6015142\PG=C01 [X(C8H9Br1N2O
 5)]\\@


 WOMEN HOLD UP HALF THE SKY. -- MAO TSE TUNG
 Job cpu time:       0 days  0 hours  4 minutes 14.8 seconds.
 File lengths (MBytes):  RWF=     37 Int=      0 D2E=      0 Chk=      3 Scr=      1
 Normal termination of Gaussian 09 at Thu Jan 16 22:41:02 2014.
254.41user 0.38system 4:15.29elapsed 99%CPU (0avgtext+0avgdata 603456maxresident)k
8inputs+194416outputs (0major+172903minor)pagefaults 0swaps
