Linux g42 2.6.38.6-client #1 SMP Tue Jun 12 11:27:21 CEST 2012 x86_64 GNU/Linux
Thu Jan 16 21:46:47 CET 2014

 Entering Gaussian System, Link 0=/usr/local/programs/common/gaussian/gaussian09_d01/arch/amd64-pgi_10.4.0-acml/g09/g09
 Initial command:
 /usr/local/programs/common/gaussian/gaussian09_d01/arch/amd64-pgi_10.4.0-acml/g09/l1.exe "/scratch/kolar/g09_17644/Gau-2213.inp" -scrdir="/scratch/kolar/g09_17644/"
 Entering Link 1 = /usr/local/programs/common/gaussian/gaussian09_d01/arch/amd64-pgi_10.4.0-acml/g09/l1.exe PID=      2219.
  
 Copyright (c) 1988,1990,1992,1993,1995,1998,2003,2009,2013,
            Gaussian, Inc.  All Rights Reserved.
  
 This is part of the Gaussian(R) 09 program.  It is based on
 the Gaussian(R) 03 system (copyright 2003, Gaussian, Inc.),
 the Gaussian(R) 98 system (copyright 1998, Gaussian, Inc.),
 the Gaussian(R) 94 system (copyright 1995, Gaussian, Inc.),
 the Gaussian 92(TM) system (copyright 1992, Gaussian, Inc.),
 the Gaussian 90(TM) system (copyright 1990, Gaussian, Inc.),
 the Gaussian 88(TM) system (copyright 1988, Gaussian, Inc.),
 the Gaussian 86(TM) system (copyright 1986, Carnegie Mellon
 University), and the Gaussian 82(TM) system (copyright 1983,
 Carnegie Mellon University). Gaussian is a federally registered
 trademark of Gaussian, Inc.
  
 This software contains proprietary and confidential information,
 including trade secrets, belonging to Gaussian, Inc.
  
 This software is provided under written license and may be
 used, copied, transmitted, or stored only in accord with that
 written license.
  
 The following legend is applicable only to US Government
 contracts under FAR:
  
                    RESTRICTED RIGHTS LEGEND
  
 Use, reproduction and disclosure by the US Government is
 subject to restrictions as set forth in subparagraphs (a)
 and (c) of the Commercial Computer Software - Restricted
 Rights clause in FAR 52.227-19.
  
 Gaussian, Inc.
 340 Quinnipiac St., Bldg. 40, Wallingford CT 06492
  
  
 ---------------------------------------------------------------
 Warning -- This program may not be used in any manner that
 competes with the business of Gaussian, Inc. or will provide
 assistance to any competitor of Gaussian, Inc.  The licensee
 of this program is prohibited from giving any competitor of
 Gaussian, Inc. access to this program.  By using this program,
 the user acknowledges that Gaussian, Inc. is engaged in the
 business of creating and licensing software in the field of
 computational chemistry and represents and warrants to the
 licensee that it is not a competitor of Gaussian, Inc. and that
 it will not use this program in any manner prohibited above.
 ---------------------------------------------------------------
  

 Cite this work as:
 Gaussian 09, Revision D.01,
 M. J. Frisch, G. W. Trucks, H. B. Schlegel, G. E. Scuseria, 
 M. A. Robb, J. R. Cheeseman, G. Scalmani, V. Barone, B. Mennucci, 
 G. A. Petersson, H. Nakatsuji, M. Caricato, X. Li, H. P. Hratchian, 
 A. F. Izmaylov, J. Bloino, G. Zheng, J. L. Sonnenberg, M. Hada, 
 M. Ehara, K. Toyota, R. Fukuda, J. Hasegawa, M. Ishida, T. Nakajima, 
 Y. Honda, O. Kitao, H. Nakai, T. Vreven, J. A. Montgomery, Jr., 
 J. E. Peralta, F. Ogliaro, M. Bearpark, J. J. Heyd, E. Brothers, 
 K. N. Kudin, V. N. Staroverov, T. Keith, R. Kobayashi, J. Normand, 
 K. Raghavachari, A. Rendell, J. C. Burant, S. S. Iyengar, J. Tomasi, 
 M. Cossi, N. Rega, J. M. Millam, M. Klene, J. E. Knox, J. B. Cross, 
 V. Bakken, C. Adamo, J. Jaramillo, R. Gomperts, R. E. Stratmann, 
 O. Yazyev, A. J. Austin, R. Cammi, C. Pomelli, J. W. Ochterski, 
 R. L. Martin, K. Morokuma, V. G. Zakrzewski, G. A. Voth, 
 P. Salvador, J. J. Dannenberg, S. Dapprich, A. D. Daniels, 
 O. Farkas, J. B. Foresman, J. V. Ortiz, J. Cioslowski, 
 and D. J. Fox, Gaussian, Inc., Wallingford CT, 2013.
 
 ******************************************
 Gaussian 09:  AM64L-G09RevD.01 24-Apr-2013
                16-Jan-2014 
 ******************************************
 %mem=1800mb
 -----------------------------------------
 # hf/gen pop=mk iop(6/33=2,6/41=5,6/42=2)
 -----------------------------------------
 1/38=1/1;
 2/12=2,17=6,18=5,40=1/2;
 3/5=7,11=9,16=1,25=1,30=1/1,2,3;
 4//1;
 5/5=2,38=5/2;
 6/7=2,8=2,9=2,10=2,15=8,20=1,28=1,33=2,41=5,42=2/1,2;
 99/5=1,9=1/99;
 -------
 na resp
 -------
 Symbolic Z-matrix:
 Charge =  0 Multiplicity = 1
 6                    -3.15878   1.27423  -0.00006 
 6                    -1.71108   0.85515   0.00007 
 6                    -0.68692   1.80781   0.00022 
 6                     0.66363   1.44832   0.0003 
 6                     1.05032   0.09732   0.00026 
 6                     0.02803  -0.85589   0.00005 
 6                    -1.31473  -0.48776  -0.00006 
 17                   -2.53575  -1.76543  -0.00028 
 6                     2.51743  -0.31417   0.00035 
 6                     2.88409  -1.10607   1.27003 
 6                     2.88483  -1.10336  -1.27081 
 8                     1.65282   2.3993    0.00051 
 1                    -3.68603   0.88666   0.87936 
 1                    -3.24916   2.36452   0.00001 
 1                    -3.68588   0.88677  -0.87962 
 1                    -0.9555    2.8636    0.0003 
 1                     0.27972  -1.91155  -0.00002 
 1                     3.11049   0.6052    0.00149 
 1                     2.6584   -0.5313    2.17476 
 1                     2.33105  -2.05144   1.32728 
 1                     3.954    -1.34625   1.27664 
 1                     2.65978  -0.52659  -2.17442 
 1                     3.95471  -1.34368  -1.27727 
 1                     2.33166  -2.04851  -1.33043 
 1                     1.24114   3.27701   0.00051 
 
                          Input orientation:                          
 ---------------------------------------------------------------------
 Center     Atomic      Atomic             Coordinates (Angstroms)
 Number     Number       Type             X           Y           Z
 ---------------------------------------------------------------------
      1          6           0       -3.158777    1.274225   -0.000057
      2          6           0       -1.711079    0.855153    0.000067
      3          6           0       -0.686918    1.807808    0.000223
      4          6           0        0.663628    1.448320    0.000296
      5          6           0        1.050319    0.097323    0.000258
      6          6           0        0.028025   -0.855888    0.000054
      7          6           0       -1.314732   -0.487758   -0.000056
      8         17           0       -2.535754   -1.765433   -0.000283
      9          6           0        2.517430   -0.314169    0.000347
     10          6           0        2.884091   -1.106067    1.270034
     11          6           0        2.884829   -1.103360   -1.270813
     12          8           0        1.652819    2.399299    0.000512
     13          1           0       -3.686030    0.886659    0.879355
     14          1           0       -3.249164    2.364523    0.000005
     15          1           0       -3.685882    0.886773   -0.879616
     16          1           0       -0.955501    2.863601    0.000299
     17          1           0        0.279715   -1.911553   -0.000023
     18          1           0        3.110488    0.605199    0.001487
     19          1           0        2.658401   -0.531297    2.174757
     20          1           0        2.331048   -2.051437    1.327280
     21          1           0        3.954003   -1.346249    1.276644
     22          1           0        2.659778   -0.526592   -2.174418
     23          1           0        3.954710   -1.343679   -1.277265
     24          1           0        2.331658   -2.048507   -1.330432
     25          1           0        1.241144    3.277006    0.000508
 ---------------------------------------------------------------------
                    Distance matrix (angstroms):
                    1          2          3          4          5
     1  C    0.000000
     2  C    1.507133   0.000000
     3  C    2.528794   1.398734   0.000000
     4  C    3.826368   2.447668   1.397572   0.000000
     5  C    4.370536   2.863499   2.437981   1.405248   0.000000
     6  C    3.833156   2.439702   2.757974   2.390265   1.397747
     7  C    2.550507   1.400179   2.379868   2.768087   2.436347
     8  Cl   3.102850   2.747282   4.023213   4.534783   4.041012
     9  C    5.894262   4.387209   3.843258   2.557919   1.523726
    10  C    6.617792   5.155074   4.780710   3.614911   2.534403
    11  C    6.617621   5.154928   4.779938   3.613935   2.534302
    12  O    4.941381   3.701378   2.413344   1.372173   2.379517
    13  H    1.096161   2.162076   3.258230   4.473000   4.881482
    14  H    1.094038   2.154972   2.622029   4.018628   4.860633
    15  H    1.096167   2.162103   3.258252   4.473010   4.881497
    16  H    2.716715   2.145871   1.089420   2.150488   3.416959
    17  H    4.687474   3.408507   3.842919   3.381736   2.151607
    18  H    6.304862   4.828042   3.983285   2.588045   2.121847
    19  H    6.467556   5.073842   4.625059   3.553348   2.776605
    20  H    6.554390   5.152529   5.075724   4.097496   2.831682
    21  H    7.686904   6.210392   5.754605   4.501694   3.484888
    22  H    6.467331   5.073657   4.623728   3.551658   2.776480
    23  H    7.686766   6.210282   5.754004   4.500960   3.484830
    24  H    6.554031   5.152203   5.074801   4.096457   2.831458
    25  H    4.834298   3.818507   2.424039   1.917711   3.185404
                    6          7          8          9         10
     6  C    0.000000
     7  C    1.392306   0.000000
     8  Cl   2.720337   1.767300   0.000000
     9  C    2.547665   3.836092   5.257455   0.000000
    10  C    3.135690   4.430073   5.605639   1.540665   0.000000
    11  C    3.136507   4.430587   5.606720   1.540666   2.540849
    12  O    3.638159   4.140224   5.906703   2.847887   3.926233
    13  H    4.195694   2.878444   3.021670   6.379464   6.876778
    14  H    4.594672   3.446380   4.191120   6.358380   7.160641
    15  H    4.195687   2.878422   3.021625   6.379473   7.194230
    16  H    3.847327   3.370557   4.891335   4.707385   5.666830
    17  H    1.085254   2.137628   2.819258   2.749364   3.007429
    18  H    3.411210   4.558194   6.123720   1.094055   2.142171
    19  H    3.428348   4.529624   5.764819   2.189766   1.095363
    20  H    2.914581   4.183136   5.052720   2.193989   1.096749
    21  H    4.157336   5.488765   6.627458   2.181253   1.096560
    22  H    3.429707   4.530573   5.766727   2.189746   3.500051
    23  H    4.157925   5.489160   6.628324   2.181274   2.773340
    24  H    2.915349   4.183539   5.053823   2.193949   2.820603
    25  H    4.307258   4.550379   6.300091   3.811226   4.849979
                   11         12         13         14         15
    11  C    0.000000
    12  O    3.924632   0.000000
    13  H    7.194414   5.618163   0.000000
    14  H    7.160102   4.902106   1.774314   0.000000
    15  H    6.876620   5.618193   1.758971   1.774317   0.000000
    16  H    5.665743   2.649322   3.483795   2.347332   3.483831
    17  H    3.009103   4.524252   4.932589   5.544169   4.932573
    18  H    2.142159   2.311622   6.858756   6.598515   6.859028
    19  H    3.500068   3.785093   6.628761   6.929260   7.182621
    20  H    2.820569   4.693544   6.711056   7.238862   7.050313
    21  H    2.773385   4.577455   7.969556   8.202759   8.246435
    22  H    1.095359   3.782212   7.182763   6.928366   6.628840
    23  H    1.096558   4.576167   8.246595   8.202316   7.969422
    24  H    1.096748   4.692037   7.050598   7.238126   6.710432
    25  H    4.848254   0.969456   5.546456   4.582084   5.546478
                   16         17         18         19         20
    16  H    0.000000
    17  H    4.932327   0.000000
    18  H    4.651091   3.787785   0.000000
    19  H    5.414230   3.506126   2.493814   0.000000
    20  H    6.059693   2.447298   3.069685   1.770933   0.000000
    21  H    6.592050   3.930628   2.479051   1.774638   1.770265
    22  H    5.412305   3.508676   2.493723   4.349178   3.833419
    23  H    6.591172   3.931846   2.479121   3.775823   3.149739
    24  H    6.058470   2.449329   3.069648   3.833411   2.657714
    25  H    2.235208   5.276883   3.260828   4.608595   5.598260
                   21         22         23         24         25
    21  H    0.000000
    22  H    3.775803   0.000000
    23  H    2.553910   1.774645   0.000000
    24  H    3.149923   1.770932   1.770284   0.000000
    25  H    5.510228   4.605451   5.508800   5.596580   0.000000
 Stoichiometry    C10H13ClO
 Framework group  C1[X(C10H13ClO)]
 Deg. of freedom    69
 Full point group                 C1      NOp   1
 Largest Abelian subgroup         C1      NOp   1
 Largest concise Abelian subgroup C1      NOp   1
                         Standard orientation:                         
 ---------------------------------------------------------------------
 Center     Atomic      Atomic             Coordinates (Angstroms)
 Number     Number       Type             X           Y           Z
 ---------------------------------------------------------------------
      1          6           0        3.158777    1.274225    0.000057
      2          6           0        1.711079    0.855153   -0.000067
      3          6           0        0.686918    1.807808   -0.000223
      4          6           0       -0.663628    1.448320   -0.000296
      5          6           0       -1.050319    0.097323   -0.000258
      6          6           0       -0.028025   -0.855888   -0.000054
      7          6           0        1.314732   -0.487758    0.000056
      8         17           0        2.535754   -1.765433    0.000283
      9          6           0       -2.517430   -0.314169   -0.000347
     10          6           0       -2.884091   -1.106067   -1.270034
     11          6           0       -2.884829   -1.103360    1.270813
     12          8           0       -1.652819    2.399299   -0.000512
     13          1           0        3.686030    0.886659   -0.879355
     14          1           0        3.249164    2.364523   -0.000005
     15          1           0        3.685882    0.886773    0.879616
     16          1           0        0.955501    2.863601   -0.000299
     17          1           0       -0.279715   -1.911553    0.000023
     18          1           0       -3.110488    0.605199   -0.001487
     19          1           0       -2.658401   -0.531297   -2.174757
     20          1           0       -2.331048   -2.051437   -1.327280
     21          1           0       -3.954003   -1.346249   -1.276644
     22          1           0       -2.659778   -0.526592    2.174418
     23          1           0       -3.954710   -1.343679    1.277265
     24          1           0       -2.331658   -2.048507    1.330432
     25          1           0       -1.241144    3.277006   -0.000508
 ---------------------------------------------------------------------
 Rotational constants (GHZ):      1.1684832      0.5553910      0.4111729
 General basis read from cards:  (5D, 7F)
 There are   210 symmetry adapted cartesian basis functions of A   symmetry.
 There are   198 symmetry adapted basis functions of A   symmetry.
   198 basis functions,   412 primitive gaussians,   210 cartesian basis functions
    49 alpha electrons       49 beta electrons
       nuclear repulsion energy       782.2185105546 Hartrees.
 NAtoms=   25 NActive=   25 NUniq=   25 SFac= 1.00D+00 NAtFMM=   60 NAOKFM=F Big=F
 Integral buffers will be    131072 words long.
 Raffenetti 1 integral format.
 Two-electron integral symmetry is turned on.
 One-electron integrals computed using PRISM.
 NBasis=   198 RedAO= T EigKep=  3.80D-04  NBF=   198
 NBsUse=   198 1.00D-06 EigRej= -1.00D+00 NBFU=   198
 ExpMin= 1.43D-01 ExpMax= 2.52D+04 ExpMxC= 3.78D+03 IAcc=1 IRadAn=         1 AccDes= 0.00D+00
 Harris functional with IExCor=  205 and IRadAn=       1 diagonalized for initial guess.
 HarFok:  IExCor=  205 AccDes= 0.00D+00 IRadAn=         1 IDoV= 1 UseB2=F ITyADJ=14
 ICtDFT=  3500011 ScaDFX=  1.000000  1.000000  1.000000  1.000000
 FoFCou: FMM=F IPFlag=           0 FMFlag=      100000 FMFlg1=           0
         NFxFlg=           0 DoJE=T BraDBF=F KetDBF=T FulRan=T
         wScrn=  0.000000 ICntrl=     500 IOpCl=  0 I1Cent=   200000004 NGrid=           0
         NMat0=    1 NMatS0=      1 NMatT0=    0 NMatD0=    1 NMtDS0=    0 NMtDT0=    0
 Petite list used in FoFCou.
 Keep R1 ints in memory in canonical form, NReq=198925104.
 Requested convergence on RMS density matrix=1.00D-08 within 128 cycles.
 Requested convergence on MAX density matrix=1.00D-06.
 Requested convergence on             energy=1.00D-06.
 No special actions if energy rises.
 SCF Done:  E(RHF) =  -920.592275767     A.U. after   14 cycles
            NFock= 14  Conv=0.77D-08     -V/T= 2.0003

 **********************************************************************

            Population analysis using the SCF density.

 **********************************************************************

 Orbital symmetries:
 BldTbl:  Degeneracy threshold= 1.00D-02
       Occupied  (A) (A) (A) (A) (A) (A) (A) (A) (A) (A) (A) (A)
                 (A) (A) (A) (A) (A) (A) (A) (A) (A) (A) (A) (A)
                 (A) (A) (A) (A) (A) (A) (A) (A) (A) (A) (A) (A)
                 (A) (A) (A) (A) (A) (A) (A) (A) (A) (A) (A) (A)
                 (A)
       Virtual   (A) (A) (A) (A) (A) (A) (A) (A) (A) (A) (A) (A)
                 (A) (A) (A) (A) (A) (A) (A) (A) (A) (A) (A) (A)
                 (A) (A) (A) (A) (A) (A) (A) (A) (A) (A) (A) (A)
                 (A) (A) (A) (A) (A) (A) (A) (A) (A) (A) (A) (A)
                 (A) (A) (A) (A) (A) (A) (A) (A) (A) (A) (A) (A)
                 (A) (A) (A) (A) (A) (A) (A) (A) (A) (A) (A) (A)
                 (A) (A) (A) (A) (A) (A) (A) (A) (A) (A) (A) (A)
                 (A) (A) (A) (A) (A) (A) (A) (A) (A) (A) (A) (A)
                 (A) (A) (A) (A) (A) (A) (A) (A) (A) (A) (A) (A)
                 (A) (A) (A) (A) (A) (A) (A) (A) (A) (A) (A) (A)
                 (A) (A) (A) (A) (A) (A) (A) (A) (A) (A) (A) (A)
                 (A) (A) (A) (A) (A) (A) (A) (A) (A) (A) (A) (A)
                 (A) (A) (A) (A) (A)
 The electronic state is 1-A.
 Alpha  occ. eigenvalues -- -104.81315 -20.59747 -11.30927 -11.29087 -11.26204
 Alpha  occ. eigenvalues --  -11.24779 -11.24115 -11.24071 -11.23183 -11.22981
 Alpha  occ. eigenvalues --  -11.21207 -11.21204 -10.55137  -8.01992  -8.01674
 Alpha  occ. eigenvalues --   -8.01667  -1.40667  -1.18316  -1.11383  -1.08358
 Alpha  occ. eigenvalues --   -1.02829  -0.98685  -0.93898  -0.92740  -0.85229
 Alpha  occ. eigenvalues --   -0.82060  -0.76618  -0.72871  -0.68628  -0.63583
 Alpha  occ. eigenvalues --   -0.60506  -0.60323  -0.60140  -0.59174  -0.58798
 Alpha  occ. eigenvalues --   -0.57786  -0.55630  -0.54706  -0.53604  -0.52646
 Alpha  occ. eigenvalues --   -0.51507  -0.50759  -0.48087  -0.47214  -0.46491
 Alpha  occ. eigenvalues --   -0.44345  -0.44124  -0.33621  -0.30585
 Alpha virt. eigenvalues --    0.13038   0.14486   0.19951   0.21591   0.23400
 Alpha virt. eigenvalues --    0.25031   0.27909   0.28054   0.29966   0.30083
 Alpha virt. eigenvalues --    0.31376   0.33187   0.33848   0.34780   0.35265
 Alpha virt. eigenvalues --    0.36370   0.37477   0.38115   0.41238   0.44323
 Alpha virt. eigenvalues --    0.44895   0.46373   0.48599   0.51303   0.52769
 Alpha virt. eigenvalues --    0.56918   0.60277   0.62113   0.65197   0.65325
 Alpha virt. eigenvalues --    0.67552   0.69865   0.72671   0.73468   0.73688
 Alpha virt. eigenvalues --    0.73937   0.74506   0.75727   0.78901   0.81215
 Alpha virt. eigenvalues --    0.82441   0.84595   0.84681   0.87295   0.90062
 Alpha virt. eigenvalues --    0.92156   0.93812   0.95765   0.96281   0.96943
 Alpha virt. eigenvalues --    0.99398   1.00924   1.02005   1.02511   1.02568
 Alpha virt. eigenvalues --    1.07281   1.09131   1.09620   1.10021   1.12504
 Alpha virt. eigenvalues --    1.13355   1.14225   1.15007   1.16745   1.17514
 Alpha virt. eigenvalues --    1.18011   1.18368   1.18729   1.19541   1.21935
 Alpha virt. eigenvalues --    1.23245   1.24393   1.24793   1.27255   1.27388
 Alpha virt. eigenvalues --    1.28149   1.28238   1.30790   1.34851   1.36201
 Alpha virt. eigenvalues --    1.39249   1.42485   1.47224   1.47662   1.50213
 Alpha virt. eigenvalues --    1.56227   1.61323   1.62054   1.64481   1.64686
 Alpha virt. eigenvalues --    1.65917   1.67635   1.69815   1.72727   1.75456
 Alpha virt. eigenvalues --    1.77477   1.83784   1.90802   1.91912   2.01012
 Alpha virt. eigenvalues --    2.02740   2.04856   2.06739   2.08678   2.09776
 Alpha virt. eigenvalues --    2.15974   2.16948   2.17109   2.19906   2.20393
 Alpha virt. eigenvalues --    2.21625   2.25399   2.28273   2.29736   2.34319
 Alpha virt. eigenvalues --    2.37560   2.38085   2.38629   2.41188   2.47038
 Alpha virt. eigenvalues --    2.47481   2.50326   2.52875   2.55624   2.59171
 Alpha virt. eigenvalues --    2.60844   2.62387   2.64296   2.66912   2.68503
 Alpha virt. eigenvalues --    2.70857   2.72081   2.76237   2.76965   2.80269
 Alpha virt. eigenvalues --    2.88795   2.89395   2.92212   2.98331   3.00992
 Alpha virt. eigenvalues --    3.07617   3.10960   3.16163   3.19430   3.20843
 Alpha virt. eigenvalues --    3.24508   3.36429   3.53298   3.77367
          Condensed to atoms (all electrons):
               1          2          3          4          5          6
     1  C    5.112778   0.321586  -0.031738   0.002183   0.000321   0.002137
     2  C    0.321586   4.840438   0.525750  -0.029455  -0.023488  -0.044926
     3  C   -0.031738   0.525750   5.117935   0.524545  -0.055938  -0.044816
     4  C    0.002183  -0.029455   0.524545   4.427869   0.583303  -0.028832
     5  C    0.000321  -0.023488  -0.055938   0.583303   4.954584   0.536217
     6  C    0.002137  -0.044926  -0.044816  -0.028832   0.536217   4.977672
     7  C   -0.048191   0.523987  -0.042355  -0.038068  -0.037880   0.513268
     8  Cl  -0.003521  -0.068397   0.002085   0.000409   0.001629  -0.069575
     9  C    0.000003  -0.000026   0.004201  -0.034397   0.301897  -0.045368
    10  C    0.000000   0.000005  -0.000122  -0.000969  -0.060866  -0.004056
    11  C    0.000000   0.000005  -0.000122  -0.000984  -0.060887  -0.004043
    12  O   -0.000042   0.004500  -0.055988   0.231107  -0.051533   0.002557
    13  H    0.390376  -0.035803   0.000251  -0.000048   0.000010  -0.000010
    14  H    0.392403  -0.043744  -0.002861   0.000321  -0.000013  -0.000014
    15  H    0.390376  -0.035799   0.000251  -0.000048   0.000010  -0.000010
    16  H   -0.003442  -0.022280   0.373072  -0.035997   0.002151   0.000236
    17  H   -0.000099   0.001601   0.000308   0.002083  -0.028149   0.379355
    18  H    0.000000  -0.000024   0.000535  -0.002588  -0.054432   0.003218
    19  H    0.000000  -0.000007  -0.000017   0.000113  -0.001818   0.000510
    20  H    0.000000  -0.000004   0.000005   0.000089  -0.005692   0.001775
    21  H    0.000000   0.000000   0.000001   0.000009   0.005838  -0.000022
    22  H    0.000000  -0.000007  -0.000017   0.000114  -0.001823   0.000509
    23  H    0.000000   0.000000   0.000001   0.000009   0.005840  -0.000022
    24  H    0.000000  -0.000004   0.000005   0.000091  -0.005688   0.001778
    25  H   -0.000013   0.000657   0.001540  -0.039008   0.004633  -0.000096
               7          8          9         10         11         12
     1  C   -0.048191  -0.003521   0.000003   0.000000   0.000000  -0.000042
     2  C    0.523987  -0.068397  -0.000026   0.000005   0.000005   0.004500
     3  C   -0.042355   0.002085   0.004201  -0.000122  -0.000122  -0.055988
     4  C   -0.038068   0.000409  -0.034397  -0.000969  -0.000984   0.231107
     5  C   -0.037880   0.001629   0.301897  -0.060866  -0.060887  -0.051533
     6  C    0.513268  -0.069575  -0.045368  -0.004056  -0.004043   0.002557
     7  C    5.129485   0.220661   0.002106   0.000091   0.000090   0.000024
     8  Cl   0.220661  16.929636  -0.000095   0.000001   0.000001   0.000001
     9  C    0.002106  -0.000095   5.086260   0.344618   0.344603  -0.006372
    10  C    0.000091   0.000001   0.344618   5.139876  -0.067359   0.000258
    11  C    0.000090   0.000001   0.344603  -0.067359   5.139874   0.000259
    12  O    0.000024   0.000001  -0.006372   0.000258   0.000259   8.420893
    13  H   -0.004961  -0.000276   0.000000   0.000000   0.000000   0.000000
    14  H    0.003963   0.000464   0.000000   0.000000   0.000000  -0.000001
    15  H   -0.004960  -0.000277   0.000000   0.000000   0.000000   0.000000
    16  H    0.003172  -0.000100  -0.000102   0.000002   0.000002  -0.003042
    17  H   -0.027305   0.001216  -0.001867   0.000073   0.000075  -0.000036
    18  H   -0.000029   0.000001   0.424634  -0.039055  -0.039052   0.001062
    19  H   -0.000034   0.000001  -0.035604   0.390773   0.004329   0.000080
    20  H    0.000070   0.000000  -0.035344   0.385807  -0.003047  -0.000007
    21  H    0.000000   0.000000  -0.039217   0.389072  -0.002338  -0.000003
    22  H   -0.000033   0.000001  -0.035599   0.004329   0.390776   0.000081
    23  H    0.000000   0.000000  -0.039217  -0.002339   0.389055  -0.000003
    24  H    0.000069   0.000000  -0.035353  -0.003047   0.385814  -0.000007
    25  H   -0.000008   0.000000   0.000056  -0.000007  -0.000007   0.269461
              13         14         15         16         17         18
     1  C    0.390376   0.392403   0.390376  -0.003442  -0.000099   0.000000
     2  C   -0.035803  -0.043744  -0.035799  -0.022280   0.001601  -0.000024
     3  C    0.000251  -0.002861   0.000251   0.373072   0.000308   0.000535
     4  C   -0.000048   0.000321  -0.000048  -0.035997   0.002083  -0.002588
     5  C    0.000010  -0.000013   0.000010   0.002151  -0.028149  -0.054432
     6  C   -0.000010  -0.000014  -0.000010   0.000236   0.379355   0.003218
     7  C   -0.004961   0.003963  -0.004960   0.003172  -0.027305  -0.000029
     8  Cl  -0.000276   0.000464  -0.000277  -0.000100   0.001216   0.000001
     9  C    0.000000   0.000000   0.000000  -0.000102  -0.001867   0.424634
    10  C    0.000000   0.000000   0.000000   0.000002   0.000073  -0.039055
    11  C    0.000000   0.000000   0.000000   0.000002   0.000075  -0.039052
    12  O    0.000000  -0.000001   0.000000  -0.003042  -0.000036   0.001062
    13  H    0.505154  -0.025239  -0.029131   0.000061   0.000001   0.000000
    14  H   -0.025239   0.520705  -0.025239   0.002807   0.000001   0.000000
    15  H   -0.029131  -0.025239   0.505149   0.000061   0.000001   0.000000
    16  H    0.000061   0.002807   0.000061   0.482386   0.000009  -0.000003
    17  H    0.000001   0.000001   0.000001   0.000009   0.439184   0.000012
    18  H    0.000000   0.000000   0.000000  -0.000003   0.000012   0.491886
    19  H    0.000000   0.000000   0.000000   0.000000   0.000029  -0.002118
    20  H    0.000000   0.000000   0.000000   0.000000   0.000683   0.003771
    21  H    0.000000   0.000000   0.000000   0.000000  -0.000030  -0.002915
    22  H    0.000000   0.000000   0.000000   0.000000   0.000029  -0.002120
    23  H    0.000000   0.000000   0.000000   0.000000  -0.000030  -0.002910
    24  H    0.000000   0.000000   0.000000   0.000000   0.000680   0.003771
    25  H    0.000000   0.000002   0.000000   0.004360   0.000003   0.000010
              19         20         21         22         23         24
     1  C    0.000000   0.000000   0.000000   0.000000   0.000000   0.000000
     2  C   -0.000007  -0.000004   0.000000  -0.000007   0.000000  -0.000004
     3  C   -0.000017   0.000005   0.000001  -0.000017   0.000001   0.000005
     4  C    0.000113   0.000089   0.000009   0.000114   0.000009   0.000091
     5  C   -0.001818  -0.005692   0.005838  -0.001823   0.005840  -0.005688
     6  C    0.000510   0.001775  -0.000022   0.000509  -0.000022   0.001778
     7  C   -0.000034   0.000070   0.000000  -0.000033   0.000000   0.000069
     8  Cl   0.000001   0.000000   0.000000   0.000001   0.000000   0.000000
     9  C   -0.035604  -0.035344  -0.039217  -0.035599  -0.039217  -0.035353
    10  C    0.390773   0.385807   0.389072   0.004329  -0.002339  -0.003047
    11  C    0.004329  -0.003047  -0.002338   0.390776   0.389055   0.385814
    12  O    0.000080  -0.000007  -0.000003   0.000081  -0.000003  -0.000007
    13  H    0.000000   0.000000   0.000000   0.000000   0.000000   0.000000
    14  H    0.000000   0.000000   0.000000   0.000000   0.000000   0.000000
    15  H    0.000000   0.000000   0.000000   0.000000   0.000000   0.000000
    16  H    0.000000   0.000000   0.000000   0.000000   0.000000   0.000000
    17  H    0.000029   0.000683  -0.000030   0.000029  -0.000030   0.000680
    18  H   -0.002118   0.003771  -0.002915  -0.002120  -0.002910   0.003771
    19  H    0.523072  -0.027564  -0.025708  -0.000096  -0.000053  -0.000073
    20  H   -0.027564   0.548798  -0.028761  -0.000073   0.000017   0.002457
    21  H   -0.025708  -0.028761   0.538703  -0.000053   0.001456   0.000017
    22  H   -0.000096  -0.000073  -0.000053   0.523069  -0.025710  -0.027562
    23  H   -0.000053   0.000017   0.001456  -0.025710   0.538727  -0.028756
    24  H   -0.000073   0.002457   0.000017  -0.027562  -0.028756   0.548777
    25  H   -0.000003   0.000000   0.000000  -0.000003   0.000000   0.000000
              25
     1  C   -0.000013
     2  C    0.000657
     3  C    0.001540
     4  C   -0.039008
     5  C    0.004633
     6  C   -0.000096
     7  C   -0.000008
     8  Cl   0.000000
     9  C    0.000056
    10  C   -0.000007
    11  C   -0.000007
    12  O    0.269461
    13  H    0.000000
    14  H    0.000002
    15  H    0.000000
    16  H    0.004360
    17  H    0.000003
    18  H    0.000010
    19  H   -0.000003
    20  H    0.000000
    21  H    0.000000
    22  H   -0.000003
    23  H    0.000000
    24  H    0.000000
    25  H    0.291631
 Mulliken charges:
               1
     1  C   -0.525116
     2  C    0.085437
     3  C   -0.316512
     4  C    0.438146
     5  C   -0.008228
     6  C   -0.177442
     7  C   -0.193162
     8  Cl  -0.013863
     9  C   -0.199819
    10  C   -0.477084
    11  C   -0.477045
    12  O   -0.813249
    13  H    0.199614
    14  H    0.176443
    15  H    0.199615
    16  H    0.196642
    17  H    0.232173
    18  H    0.216347
    19  H    0.174187
    20  H    0.157020
    21  H    0.163952
    22  H    0.174187
    23  H    0.163936
    24  H    0.157031
    25  H    0.466791
 Sum of Mulliken charges =   0.00000
 Mulliken charges with hydrogens summed into heavy atoms:
               1
     1  C    0.050556
     2  C    0.085437
     3  C   -0.119870
     4  C    0.438146
     5  C   -0.008228
     6  C    0.054730
     7  C   -0.193162
     8  Cl  -0.013863
     9  C    0.016528
    10  C    0.018075
    11  C    0.018108
    12  O   -0.346458
 DipInt: DoE/N= T F RetVal/Mat= T F Init=T NMatP=  1 IDeriv=0 Min/MaxMlt=  0  4
 Entering OneElI...
 OneElI was handed   235814010 working-precision words.
 Multipole integrals L=0 to 4 MinM= 0 MaxM= 0.
 Requested accuracy = 0.1000D-12
 ShPair: Thresh= 1.00D-13 NBox=     0 BxSize= 0.00D+00 RnKept= 1.56D+01
         NSMCal=                 2850 NSMKep=                2565
 PrsmSu:  NPrtUS=   1 ThrOK=F IAlg=1 NPAlg=1 LenDen=           0.
 Prism:   IPart=     0 DynPar=F LinDyn=F Incr=          25.
 PRISM was handed   235587653 working-precision words and  2565 shell-pairs
 IPart=  0 NShTot=        2565 NBatch=          80 AvBLen=        32.1
 PrSmSu:  NxtVal=             26.
 Electronic moments (au):
        -98.00000000         -0.11252819          0.98730487         -0.00009839
      -1757.02983231       -799.98980286       -194.53086535          4.72734438
          0.00011576         -0.00045301          8.70751989       -677.84555343
         -0.26228972       -274.20594870       1197.32084999         -0.78640000
        652.50877508        249.18739904          0.57831489          0.44672408
     -53843.66962201     -12874.26278358      -1847.82057203      -5330.42450889
          3.23661785       2760.83767567         -0.04665252          1.66783435
         -0.43046096     -13448.76135681      -5258.53784679      -1222.51147358
         -1.01105699         -3.24047151      -1497.16964931
 Electronic spatial extent (au):  <R**2>=           2751.5505
 DipInt: DoE/N= F T RetVal/Mat= T F Init=T NMatP=  1 IDeriv=0 Min/MaxMlt=  0  4
 Nuclear    moments (au):
         98.00000000          0.00000000          0.00000000          0.00000000
       1696.81266894        747.00887468        132.71976373          0.00000000
          0.00000305          0.00004267          0.53151183        743.07958690
          0.25741646        273.42026270      -1190.10693699          0.78207636
       -650.82138832       -247.34498200         -0.58084146         -0.44785445
      47647.20874239      10607.80740309       1131.57647313       5339.06793251
         -3.17563679      -2898.73921783         -0.05870673         -1.62461838
          0.43067622      11910.05986507       4070.89806911        615.17640596
          1.01778237          3.23671635       1457.57538683
 Total      moments (au):
          0.00000000         -0.11252819          0.98730487         -0.00009839
        -60.21716337        -52.98092817        -61.81110162          4.72734438
          0.00011881         -0.00041035          9.23903172         65.23403348
         -0.00487326         -0.78568600          7.21391300         -0.00432364
          1.68738677          1.84241704         -0.00252657         -0.00113037
      -6196.46087963      -2266.45538049       -716.24409890          8.64342362
          0.06098106       -137.90154216         -0.10535925          0.04321597
          0.00021527      -1538.70149175      -1187.63977768       -607.33506762
          0.00672538         -0.00375515        -39.59426248
 Traceless Quadrup. (au):
         -1.88076565          5.35546955         -3.47470390          4.72734438
          0.00011881         -0.00041035
 Charge=              0.0000 electrons
 Dipole moment (field-independent basis, Debye):
    X=             -0.2860    Y=              2.5095    Z=             -0.0003  Tot=              2.5257
 Quadrupole moment (field-independent basis, Debye-Ang):
   XX=            -80.9941   YY=            -71.2612   ZZ=            -83.1380
   XY=              6.3584   XZ=              0.0002   YZ=             -0.0006
 Traceless Quadrupole moment (field-independent basis, Debye-Ang):
   XX=             -2.5297   YY=              7.2033   ZZ=             -4.6736
   XY=              6.3584   XZ=              0.0002   YZ=             -0.0006
 Octapole moment (field-independent basis, Debye-Ang**2):
  XXX=              6.5760  YYY=             46.4311  ZZZ=             -0.0035  XYY=             -0.5592
  XXY=              5.1346  XXZ=             -0.0031  XZZ=              1.2010  YZZ=              1.3114
  YYZ=             -0.0018  XYZ=             -0.0008
 Hexadecapole moment (field-independent basis, Debye-Ang**3):
 XXXX=          -2333.8841 YYYY=           -853.6557 ZZZZ=           -269.7719 XXXY=              3.2555
 XXXZ=              0.0230 YYYX=            -51.9403 YYYZ=             -0.0397 ZZZX=              0.0163
 ZZZY=              0.0001 XXYY=           -579.5487 XXZZ=           -447.3221 YYZZ=           -228.7515
 XXYZ=              0.0025 YYXZ=             -0.0014 ZZXY=            -14.9131
 N-N= 7.822185105546D+02 E-N=-3.735241319581D+03  KE= 9.203238054890D+02
 Entering OneElI...
 OneElI was handed   235840238 working-precision words.
 Calculate electrostatic properties
    NBasis =   198  MinDer = 0  MaxDer = 0
    NGrid  =    25  NMatD  =   1
 Requested accuracy = 0.1000D-12
 ShPair: Thresh= 1.00D-13 NBox=     0 BxSize= 0.00D+00 RnKept= 1.56D+01
         NSMCal=                 2850 NSMKep=                2378
 PrsmSu:  NPrtUS=   1 ThrOK=F IAlg=1 NPAlg=1 LenDen=           0.
 Prism:   IPart=     0 DynPar=F LinDyn=F Incr=         512.
 PRISM was handed   235633066 working-precision words and  2378 shell-pairs
 IPart=  0 NShTot=       59450 NBatch=        2445 AvBLen=        24.3
 PrSmSu:  NxtVal=            513.
 --------------------------------------------------------
       Center         ----      EFG at Nuclei      ----
                      3XX-RR        3YY-RR        3ZZ-RR
 --------------------------------------------------------
     1   Atom       -0.059548      0.018093      0.041455
     2   Atom        0.174329      0.166395     -0.340724
     3   Atom        0.120302      0.051107     -0.171409
     4   Atom        0.125015      0.124077     -0.249091
     5   Atom        0.140814      0.109568     -0.250382
     6   Atom        0.156707      0.170344     -0.327051
     7   Atom        0.013746     -0.023421      0.009676
     8   Atom       -0.678819     -1.046434      1.725253
     9   Atom       -0.058482      0.064918     -0.006437
    10   Atom        0.009947     -0.001930     -0.008017
    11   Atom        0.009936     -0.001832     -0.008105
    12   Atom       -0.042770     -1.664642      1.707411
    13   Atom        0.041313      0.094667     -0.135980
    14   Atom        0.137710     -0.295553      0.157843
    15   Atom        0.041372      0.094696     -0.136068
    16   Atom        0.106686     -0.280588      0.173902
    17   Atom        0.115775     -0.281914      0.166139
    18   Atom        0.008144     -0.153711      0.145567
    19   Atom        0.132820      0.023811     -0.156631
    20   Atom        0.035090     -0.179820      0.144730
    21   Atom       -0.275060      0.129828      0.145232
    22   Atom        0.132928      0.022964     -0.155892
    23   Atom       -0.275037      0.129819      0.145218
    24   Atom        0.035042     -0.179669      0.144628
    25   Atom        0.079292     -0.334771      0.255479
 --------------------------------------------------------
                        XY            XZ            YZ
 --------------------------------------------------------
     1   Atom       -0.049762     -0.000012     -0.000003
     2   Atom       -0.018742      0.000051     -0.000050
     3   Atom       -0.030464      0.000045     -0.000027
     4   Atom        0.278382      0.000011      0.000000
     5   Atom       -0.010344      0.000037     -0.000037
     6   Atom       -0.033499      0.000049     -0.000034
     7   Atom        0.346895     -0.000032      0.000039
     8   Atom        2.706563     -0.000450      0.000486
     9   Atom       -0.059711      0.000026     -0.000093
    10   Atom       -0.003414     -0.012548     -0.024035
    11   Atom       -0.003416      0.012564      0.024042
    12   Atom        0.381600     -0.000341      0.000296
    13   Atom        0.069811      0.170637     -0.127459
    14   Atom       -0.034639      0.000000      0.000026
    15   Atom        0.069763     -0.170609      0.127437
    16   Atom       -0.101440      0.000005      0.000034
    17   Atom       -0.103214      0.000002      0.000032
    18   Atom        0.195067     -0.000251      0.000379
    19   Atom       -0.050892      0.074582      0.191961
    20   Atom        0.194784      0.005883     -0.020424
    21   Atom       -0.094914     -0.000794     -0.003865
    22   Atom       -0.050923     -0.074267     -0.192397
    23   Atom       -0.094973      0.000732      0.003838
    24   Atom        0.194794     -0.006377      0.021240
    25   Atom       -0.245544     -0.000011      0.000003
 --------------------------------------------------------


 ---------------------------------------------------------------------------------
              Nuclear Quadrupole Coupling Constant in Principal Axis System
 ---------------------------------------------------------------------------------

       Atom             a.u.   MegaHertz   Gauss  10(-4) cm-1        Axes

              Baa    -3.5754   -68.594   -24.476   -22.881 -0.6827  0.7307 -0.0001
     8 Cl(35) Bbb     1.7253    33.099    11.810    11.041 -0.0001  0.0001  1.0000
              Bcc     1.8502    35.495    12.666    11.840  0.7307  0.6827  0.0000
 

 ---------------------------------------------------------------------------------

 No NMR shielding tensors so no spin-rotation constants.
 Leave Link  601 at Thu Jan 16 21:47:24 2014, MaxMem=   235929600 cpu:         0.3
 FitSet:  NAtFit=    25 NAtPot=    25 NAtFrz=     0 MDM=    29 TotChg=   0.00000
 Merz-Kollman atomic radii used.
 Atom Element Radius
    1     6    1.50
    2     6    1.50
    3     6    1.50
    4     6    1.50
    5     6    1.50
    6     6    1.50
    7     6    1.50
    8    17    1.70
    9     6    1.50
   10     6    1.50
   11     6    1.50
   12     8    1.40
   13     1    1.20
   14     1    1.20
   15     1    1.20
   16     1    1.20
   17     1    1.20
   18     1    1.20
   19     1    1.20
   20     1    1.20
   21     1    1.20
   22     1    1.20
   23     1    1.20
   24     1    1.20
   25     1    1.20
 Generate VDW surfaces: Layer= 5 Dens= 2 Start= 1.400 Inc= 0.179

 **********************************************************************

            Electrostatic Properties Using The SCF Density

 **********************************************************************

       Atomic Center    1 is at   3.158777  1.274225  0.000057
       Atomic Center    2 is at   1.711079  0.855153 -0.000067
       Atomic Center    3 is at   0.686918  1.807808 -0.000223
       Atomic Center    4 is at  -0.663628  1.448320 -0.000296
       Atomic Center    5 is at  -1.050319  0.097323 -0.000258
       Atomic Center    6 is at  -0.028025 -0.855888 -0.000054
       Atomic Center    7 is at   1.314732 -0.487758  0.000056
       Atomic Center    8 is at   2.535754 -1.765433  0.000283
       Atomic Center    9 is at  -2.517430 -0.314169 -0.000347
       Atomic Center   10 is at  -2.884091 -1.106067 -1.270034
       Atomic Center   11 is at  -2.884829 -1.103360  1.270813
       Atomic Center   12 is at  -1.652819  2.399299 -0.000512
       Atomic Center   13 is at   3.686030  0.886659 -0.879355
       Atomic Center   14 is at   3.249164  2.364523 -0.000005
       Atomic Center   15 is at   3.685882  0.886773  0.879616
       Atomic Center   16 is at   0.955501  2.863601 -0.000299
       Atomic Center   17 is at  -0.279715 -1.911553  0.000023
       Atomic Center   18 is at  -3.110488  0.605199 -0.001487
       Atomic Center   19 is at  -2.658401 -0.531297 -2.174757
       Atomic Center   20 is at  -2.331048 -2.051437 -1.327280
       Atomic Center   21 is at  -3.954003 -1.346249 -1.276644
       Atomic Center   22 is at  -2.659778 -0.526592  2.174418
       Atomic Center   23 is at  -3.954710 -1.343679  1.277265
       Atomic Center   24 is at  -2.331658 -2.048507  1.330432
       Atomic Center   25 is at  -1.241144  3.277006 -0.000508
      ESP Fit Center   26 is at   2.799656  1.896241  1.973411
      ESP Fit Center   27 is at   2.440535  1.274225  1.973411
      ESP Fit Center   28 is at   3.719527  2.502096  1.608750
      ESP Fit Center   29 is at   2.274811  2.294377  1.608750
      ESP Fit Center   30 is at   5.087219  2.021308  0.364718
      ESP Fit Center   31 is at   5.087219  2.021308 -0.364604
      ESP Fit Center   32 is at   3.719527  2.502096 -1.608636
      ESP Fit Center   33 is at   2.274811  2.294377 -1.608636
      ESP Fit Center   34 is at   2.799656  1.896241 -1.973298
      ESP Fit Center   35 is at   2.440535  1.274225 -1.973298
      ESP Fit Center   36 is at   1.711079  0.855153  2.099933
      ESP Fit Center   37 is at   2.070200  1.477169  1.973287
      ESP Fit Center   38 is at   1.351958  1.477169  1.973287
      ESP Fit Center   39 is at   0.992837  0.855153  1.973287
      ESP Fit Center   40 is at   1.351958  0.233137  1.973287
      ESP Fit Center   41 is at   2.070200  0.233137  1.973287
      ESP Fit Center   42 is at   2.070200  1.477169 -1.973422
      ESP Fit Center   43 is at   1.351958  1.477169 -1.973422
      ESP Fit Center   44 is at   0.992837  0.855153 -1.973422
      ESP Fit Center   45 is at   1.351958  0.233137 -1.973422
      ESP Fit Center   46 is at   2.070200  0.233137 -1.973422
      ESP Fit Center   47 is at   1.711079  0.855153 -2.100067
      ESP Fit Center   48 is at   0.686918  1.807808  2.099777
      ESP Fit Center   49 is at   1.405160  1.807808  1.973131
      ESP Fit Center   50 is at   1.046039  2.429824  1.973131
      ESP Fit Center   51 is at   0.327797  2.429824  1.973131
      ESP Fit Center   52 is at  -0.031324  1.807808  1.973131
      ESP Fit Center   53 is at   0.327797  1.185792  1.973131
      ESP Fit Center   54 is at   1.046039  1.185792  1.973131
      ESP Fit Center   55 is at   1.822487  2.537594  1.608470
      ESP Fit Center   56 is at   0.494814  3.143922  1.608470
      ESP Fit Center   57 is at  -0.197048  2.827960  1.608470
      ESP Fit Center   58 is at   1.822487  2.537594 -1.608916
      ESP Fit Center   59 is at   0.494814  3.143922 -1.608916
      ESP Fit Center   60 is at  -0.197048  2.827960 -1.608916
      ESP Fit Center   61 is at   1.405160  1.807808 -1.973578
      ESP Fit Center   62 is at   1.046039  2.429824 -1.973578
      ESP Fit Center   63 is at   0.327797  2.429824 -1.973578
      ESP Fit Center   64 is at  -0.031324  1.807808 -1.973578
      ESP Fit Center   65 is at   0.327797  1.185792 -1.973578
      ESP Fit Center   66 is at   1.046039  1.185792 -1.973578
      ESP Fit Center   67 is at   0.686918  1.807808 -2.100223
      ESP Fit Center   68 is at  -0.663628  1.448320  2.099704
      ESP Fit Center   69 is at   0.054614  1.448320  1.973058
      ESP Fit Center   70 is at  -0.304507  2.070336  1.973058
      ESP Fit Center   71 is at  -1.022749  2.070336  1.973058
      ESP Fit Center   72 is at  -1.381870  1.448320  1.973058
      ESP Fit Center   73 is at  -1.022749  0.826304  1.973058
      ESP Fit Center   74 is at  -0.304507  0.826304  1.973058
      ESP Fit Center   75 is at   0.054614  1.448320 -1.973651
      ESP Fit Center   76 is at  -0.304507  2.070336 -1.973651
      ESP Fit Center   77 is at  -1.022749  2.070336 -1.973651
      ESP Fit Center   78 is at  -1.381870  1.448320 -1.973651
      ESP Fit Center   79 is at  -1.022749  0.826304 -1.973651
      ESP Fit Center   80 is at  -0.304507  0.826304 -1.973651
      ESP Fit Center   81 is at  -0.663628  1.448320 -2.100296
      ESP Fit Center   82 is at  -1.050319  0.097323  2.099742
      ESP Fit Center   83 is at  -0.332077  0.097323  1.973096
      ESP Fit Center   84 is at  -0.691198  0.719339  1.973096
      ESP Fit Center   85 is at  -1.409440  0.719339  1.973096
      ESP Fit Center   86 is at  -0.691198 -0.524693  1.973096
      ESP Fit Center   87 is at  -0.332077  0.097323 -1.973613
      ESP Fit Center   88 is at  -0.691198  0.719339 -1.973613
      ESP Fit Center   89 is at  -1.409440  0.719339 -1.973613
      ESP Fit Center   90 is at  -0.691198 -0.524693 -1.973613
      ESP Fit Center   91 is at  -1.050319  0.097323 -2.100258
      ESP Fit Center   92 is at  -0.028025 -0.855888  2.099946
      ESP Fit Center   93 is at   0.690217 -0.855888  1.973300
      ESP Fit Center   94 is at   0.331096 -0.233872  1.973300
      ESP Fit Center   95 is at  -0.387146 -0.233872  1.973300
      ESP Fit Center   96 is at  -0.746267 -0.855888  1.973300
      ESP Fit Center   97 is at  -0.387146 -1.477904  1.973300
      ESP Fit Center   98 is at   0.331096 -1.477904  1.973300
      ESP Fit Center   99 is at   0.532725 -2.083758  1.608639
      ESP Fit Center  100 is at   0.532725 -2.083758 -1.608747
      ESP Fit Center  101 is at   0.690217 -0.855888 -1.973409
      ESP Fit Center  102 is at   0.331096 -0.233872 -1.973409
      ESP Fit Center  103 is at  -0.387146 -0.233872 -1.973409
      ESP Fit Center  104 is at  -0.746267 -0.855888 -1.973409
      ESP Fit Center  105 is at  -0.387146 -1.477904 -1.973409
      ESP Fit Center  106 is at   0.331096 -1.477904 -1.973409
      ESP Fit Center  107 is at  -0.028025 -0.855888 -2.100054
      ESP Fit Center  108 is at   1.314732 -0.487758  2.100056
      ESP Fit Center  109 is at   2.032974 -0.487758  1.973410
      ESP Fit Center  110 is at   1.673853  0.134258  1.973410
      ESP Fit Center  111 is at   0.955611  0.134258  1.973410
      ESP Fit Center  112 is at   0.596490 -0.487758  1.973410
      ESP Fit Center  113 is at   0.955611 -1.109774  1.973410
      ESP Fit Center  114 is at   2.032974 -0.487758 -1.973299
      ESP Fit Center  115 is at   1.673853  0.134258 -1.973299
      ESP Fit Center  116 is at   0.955611  0.134258 -1.973299
      ESP Fit Center  117 is at   0.596490 -0.487758 -1.973299
      ESP Fit Center  118 is at   0.955611 -1.109774 -1.973299
      ESP Fit Center  119 is at   1.314732 -0.487758 -2.099944
      ESP Fit Center  120 is at   2.535754 -1.765433  2.380283
      ESP Fit Center  121 is at   3.271215 -1.765433  2.263797
      ESP Fit Center  122 is at   2.903484 -1.128505  2.263797
      ESP Fit Center  123 is at   2.168024 -1.128505  2.263797
      ESP Fit Center  124 is at   1.800294 -1.765433  2.263797
      ESP Fit Center  125 is at   2.168024 -2.402360  2.263797
      ESP Fit Center  126 is at   2.903484 -2.402360  2.263797
      ESP Fit Center  127 is at   3.934683 -1.765433  1.925743
      ESP Fit Center  128 is at   3.747262 -1.065968  1.925743
      ESP Fit Center  129 is at   3.235219 -0.553925  1.925743
      ESP Fit Center  130 is at   2.535754 -0.366504  1.925743
      ESP Fit Center  131 is at   1.136825 -1.765433  1.925743
      ESP Fit Center  132 is at   1.324246 -2.464897  1.925743
      ESP Fit Center  133 is at   1.836290 -2.976941  1.925743
      ESP Fit Center  134 is at   2.535754 -3.164362  1.925743
      ESP Fit Center  135 is at   3.235219 -2.976941  1.925743
      ESP Fit Center  136 is at   3.747262 -2.464897  1.925743
      ESP Fit Center  137 is at   4.461215 -1.765433  1.399212
      ESP Fit Center  138 is at   4.314648 -1.028591  1.399212
      ESP Fit Center  139 is at   0.756861 -2.502275  1.399212
      ESP Fit Center  140 is at   1.174248 -3.126939  1.399212
      ESP Fit Center  141 is at   1.798912 -3.544326  1.399212
      ESP Fit Center  142 is at   2.535754 -3.690893  1.399212
      ESP Fit Center  143 is at   3.272596 -3.544326  1.399212
      ESP Fit Center  144 is at   3.897260 -3.126939  1.399212
      ESP Fit Center  145 is at   4.314648 -2.502275  1.399212
      ESP Fit Center  146 is at   4.799269 -1.765433  0.735743
      ESP Fit Center  147 is at   4.676625 -1.030471  0.735743
      ESP Fit Center  148 is at   1.002717 -3.430755  0.735743
      ESP Fit Center  149 is at   1.626511 -3.838299  0.735743
      ESP Fit Center  150 is at   2.348835 -4.021216  0.735743
      ESP Fit Center  151 is at   3.091414 -3.959684  0.735743
      ESP Fit Center  152 is at   3.773779 -3.660371  0.735743
      ESP Fit Center  153 is at   4.321985 -3.155712  0.735743
      ESP Fit Center  154 is at   4.676625 -2.500395  0.735743
      ESP Fit Center  155 is at   4.915754 -1.765433  0.000283
      ESP Fit Center  156 is at   4.810017 -1.063916  0.000283
      ESP Fit Center  157 is at   4.502202 -0.424731  0.000283
      ESP Fit Center  158 is at   0.791091 -3.384244  0.000283
      ESP Fit Center  159 is at   1.345754 -3.826573  0.000283
      ESP Fit Center  160 is at   2.006154 -4.085761  0.000283
      ESP Fit Center  161 is at   2.713612 -4.138778  0.000283
      ESP Fit Center  162 is at   3.405266 -3.980912  0.000283
      ESP Fit Center  163 is at   4.019660 -3.626192  0.000283
      ESP Fit Center  164 is at   4.502202 -3.106135  0.000283
      ESP Fit Center  165 is at   4.810017 -2.466950  0.000283
      ESP Fit Center  166 is at   4.799269 -1.765433 -0.735178
      ESP Fit Center  167 is at   4.676625 -1.030471 -0.735178
      ESP Fit Center  168 is at   1.002717 -3.430755 -0.735178
      ESP Fit Center  169 is at   1.626511 -3.838299 -0.735178
      ESP Fit Center  170 is at   2.348835 -4.021216 -0.735178
      ESP Fit Center  171 is at   3.091414 -3.959684 -0.735178
      ESP Fit Center  172 is at   3.773779 -3.660371 -0.735178
      ESP Fit Center  173 is at   4.321985 -3.155712 -0.735178
      ESP Fit Center  174 is at   4.676625 -2.500395 -0.735178
      ESP Fit Center  175 is at   4.461215 -1.765433 -1.398646
      ESP Fit Center  176 is at   4.314648 -1.028591 -1.398646
      ESP Fit Center  177 is at   0.756861 -2.502275 -1.398646
      ESP Fit Center  178 is at   1.174248 -3.126939 -1.398646
      ESP Fit Center  179 is at   1.798912 -3.544326 -1.398646
      ESP Fit Center  180 is at   2.535754 -3.690893 -1.398646
      ESP Fit Center  181 is at   3.272596 -3.544326 -1.398646
      ESP Fit Center  182 is at   3.897260 -3.126939 -1.398646
      ESP Fit Center  183 is at   4.314648 -2.502275 -1.398646
      ESP Fit Center  184 is at   3.934683 -1.765433 -1.925178
      ESP Fit Center  185 is at   3.747262 -1.065968 -1.925178
      ESP Fit Center  186 is at   3.235219 -0.553925 -1.925178
      ESP Fit Center  187 is at   2.535754 -0.366504 -1.925178
      ESP Fit Center  188 is at   1.136825 -1.765433 -1.925178
      ESP Fit Center  189 is at   1.324246 -2.464897 -1.925178
      ESP Fit Center  190 is at   1.836290 -2.976941 -1.925178
      ESP Fit Center  191 is at   2.535754 -3.164362 -1.925178
      ESP Fit Center  192 is at   3.235219 -2.976941 -1.925178
      ESP Fit Center  193 is at   3.747262 -2.464897 -1.925178
      ESP Fit Center  194 is at   3.271215 -1.765433 -2.263232
      ESP Fit Center  195 is at   2.903484 -1.128505 -2.263232
      ESP Fit Center  196 is at   2.168024 -1.128505 -2.263232
      ESP Fit Center  197 is at   1.800294 -1.765433 -2.263232
      ESP Fit Center  198 is at   2.168024 -2.402360 -2.263232
      ESP Fit Center  199 is at   2.903484 -2.402360 -2.263232
      ESP Fit Center  200 is at   2.535754 -1.765433 -2.379717
      ESP Fit Center  201 is at  -3.793418 -2.681067 -0.220034
      ESP Fit Center  202 is at  -3.450052  0.883081 -1.634695
      ESP Fit Center  203 is at  -4.130397  0.544309 -1.634695
      ESP Fit Center  204 is at  -1.065438 -1.106067 -2.320034
      ESP Fit Center  205 is at  -4.355412 -0.037090 -2.320034
      ESP Fit Center  206 is at  -3.793418 -2.681067 -2.320034
      ESP Fit Center  207 is at  -4.179266 -0.725769 -2.878727
      ESP Fit Center  208 is at  -3.768057 -2.126219 -2.878727
      ESP Fit Center  209 is at  -3.076195 -2.442182 -2.878727
      ESP Fit Center  210 is at  -3.243212 -1.728083 -3.243389
      ESP Fit Center  211 is at  -3.243950 -1.725376  3.244167
      ESP Fit Center  212 is at  -4.180004 -0.723062  2.879506
      ESP Fit Center  213 is at  -3.768795 -2.123512  2.879506
      ESP Fit Center  214 is at  -3.076933 -2.439475  2.879506
      ESP Fit Center  215 is at  -1.066176 -1.103360  2.320813
      ESP Fit Center  216 is at  -4.356150 -0.034383  2.320813
      ESP Fit Center  217 is at  -3.794156 -2.678360  2.320813
      ESP Fit Center  218 is at  -3.450790  0.885788  1.635474
      ESP Fit Center  219 is at  -4.131135  0.547016  1.635474
      ESP Fit Center  220 is at  -3.794156 -2.678360  0.220813
      ESP Fit Center  221 is at  -1.652819  2.399299  1.959488
      ESP Fit Center  222 is at  -1.277789  3.048870  1.810292
      ESP Fit Center  223 is at  -2.027849  3.048870  1.810292
      ESP Fit Center  224 is at  -2.402879  2.399299  1.810292
      ESP Fit Center  225 is at  -2.027849  1.749728  1.810292
      ESP Fit Center  226 is at  -2.345784  3.599549  1.385417
      ESP Fit Center  227 is at  -2.853069  3.092264  1.385417
      ESP Fit Center  228 is at  -3.038748  2.399299  1.385417
      ESP Fit Center  229 is at  -2.853069  1.706334  1.385417
      ESP Fit Center  230 is at  -3.117790  3.463663  0.749547
      ESP Fit Center  231 is at  -3.424053  2.775786  0.749547
      ESP Fit Center  232 is at  -2.833983  3.963413 -0.000512
      ESP Fit Center  233 is at  -3.319245  3.431106 -0.000512
      ESP Fit Center  234 is at  -3.579446  2.759448 -0.000512
      ESP Fit Center  235 is at  -3.117790  3.463663 -0.750572
      ESP Fit Center  236 is at  -3.424053  2.775786 -0.750572
      ESP Fit Center  237 is at  -2.345784  3.599549 -1.386441
      ESP Fit Center  238 is at  -2.853069  3.092264 -1.386441
      ESP Fit Center  239 is at  -3.038748  2.399299 -1.386441
      ESP Fit Center  240 is at  -2.853069  1.706334 -1.386441
      ESP Fit Center  241 is at  -1.277789  3.048870 -1.811316
      ESP Fit Center  242 is at  -2.027849  3.048870 -1.811316
      ESP Fit Center  243 is at  -2.402879  2.399299 -1.811316
      ESP Fit Center  244 is at  -2.027849  1.749728 -1.811316
      ESP Fit Center  245 is at  -1.652819  2.399299 -1.960512
      ESP Fit Center  246 is at   5.323909  0.886659 -0.505520
      ESP Fit Center  247 is at   4.616451 -0.461289 -0.505520
      ESP Fit Center  248 is at   5.136300  0.125499 -0.505520
      ESP Fit Center  249 is at   5.323909  0.886659 -1.253190
      ESP Fit Center  250 is at   5.136300  1.647819 -1.253190
      ESP Fit Center  251 is at   4.616451  2.234607 -1.253190
      ESP Fit Center  252 is at   4.616451 -0.461289 -1.253190
      ESP Fit Center  253 is at   5.136300  0.125499 -1.253190
      ESP Fit Center  254 is at   4.999507  0.886659 -1.926818
      ESP Fit Center  255 is at   4.748655  1.658702 -1.926818
      ESP Fit Center  256 is at   4.091917  2.135850 -1.926818
      ESP Fit Center  257 is at   3.280143  2.135850 -1.926818
      ESP Fit Center  258 is at   2.623405  0.114617 -1.926818
      ESP Fit Center  259 is at   3.280143 -0.362532 -1.926818
      ESP Fit Center  260 is at   4.091917 -0.362532 -1.926818
      ESP Fit Center  261 is at   4.748655  0.114617 -1.926818
      ESP Fit Center  262 is at   4.414955  0.886659 -2.392983
      ESP Fit Center  263 is at   4.050492  1.517926 -2.392983
      ESP Fit Center  264 is at   3.321568  1.517926 -2.392983
      ESP Fit Center  265 is at   2.957105  0.886659 -2.392983
      ESP Fit Center  266 is at   3.321568  0.255392 -2.392983
      ESP Fit Center  267 is at   4.050492  0.255392 -2.392983
      ESP Fit Center  268 is at   3.686030  0.886659 -2.559355
      ESP Fit Center  269 is at   3.613626  2.995790  1.513623
      ESP Fit Center  270 is at   2.884702  2.995790  1.513623
      ESP Fit Center  271 is at   4.311789  3.136566  1.047458
      ESP Fit Center  272 is at   3.655051  3.613714  1.047458
      ESP Fit Center  273 is at   2.843277  3.613714  1.047458
      ESP Fit Center  274 is at   4.699434  3.125683  0.373830
      ESP Fit Center  275 is at   4.179585  3.712471  0.373830
      ESP Fit Center  276 is at   3.446588  3.990460  0.373830
      ESP Fit Center  277 is at   2.668364  3.895967  0.373830
      ESP Fit Center  278 is at   4.699434  3.125683 -0.373840
      ESP Fit Center  279 is at   4.179585  3.712471 -0.373840
      ESP Fit Center  280 is at   3.446588  3.990460 -0.373840
      ESP Fit Center  281 is at   2.668364  3.895967 -0.373840
      ESP Fit Center  282 is at   4.311789  3.136566 -1.047468
      ESP Fit Center  283 is at   3.655051  3.613714 -1.047468
      ESP Fit Center  284 is at   2.843277  3.613714 -1.047468
      ESP Fit Center  285 is at   3.613626  2.995790 -1.513633
      ESP Fit Center  286 is at   2.884702  2.995790 -1.513633
      ESP Fit Center  287 is at   3.685882  0.886773  2.559616
      ESP Fit Center  288 is at   4.414807  0.886773  2.393244
      ESP Fit Center  289 is at   4.050344  1.518040  2.393244
      ESP Fit Center  290 is at   3.321420  1.518040  2.393244
      ESP Fit Center  291 is at   2.956957  0.886773  2.393244
      ESP Fit Center  292 is at   3.321420  0.255506  2.393244
      ESP Fit Center  293 is at   4.050344  0.255506  2.393244
      ESP Fit Center  294 is at   4.999359  0.886773  1.927079
      ESP Fit Center  295 is at   4.748507  1.658816  1.927079
      ESP Fit Center  296 is at   4.091769  2.135964  1.927079
      ESP Fit Center  297 is at   3.279995  2.135964  1.927079
      ESP Fit Center  298 is at   2.623257  0.114731  1.927079
      ESP Fit Center  299 is at   3.279995 -0.362418  1.927079
      ESP Fit Center  300 is at   4.091769 -0.362418  1.927079
      ESP Fit Center  301 is at   4.748507  0.114731  1.927079
      ESP Fit Center  302 is at   5.323761  0.886773  1.253451
      ESP Fit Center  303 is at   5.136152  1.647933  1.253451
      ESP Fit Center  304 is at   4.616303  2.234721  1.253451
      ESP Fit Center  305 is at   4.616303 -0.461175  1.253451
      ESP Fit Center  306 is at   5.136152  0.125613  1.253451
      ESP Fit Center  307 is at   5.323761  0.886773  0.505781
      ESP Fit Center  308 is at   4.616303 -0.461175  0.505781
      ESP Fit Center  309 is at   5.136152  0.125613  0.505781
      ESP Fit Center  310 is at   1.319963  3.494868  1.513329
      ESP Fit Center  311 is at   0.591038  3.494868  1.513329
      ESP Fit Center  312 is at   2.018126  3.635643  1.047164
      ESP Fit Center  313 is at   1.361388  4.112792  1.047164
      ESP Fit Center  314 is at   0.549614  4.112792  1.047164
      ESP Fit Center  315 is at   1.885922  4.211549  0.373536
      ESP Fit Center  316 is at   1.152925  4.489538  0.373536
      ESP Fit Center  317 is at   0.374701  4.395044  0.373536
      ESP Fit Center  318 is at   1.885922  4.211549 -0.374134
      ESP Fit Center  319 is at   1.152925  4.489538 -0.374134
      ESP Fit Center  320 is at   0.374701  4.395044 -0.374134
      ESP Fit Center  321 is at   2.018126  3.635643 -1.047762
      ESP Fit Center  322 is at   1.361388  4.112792 -1.047762
      ESP Fit Center  323 is at   0.549614  4.112792 -1.047762
      ESP Fit Center  324 is at   1.319963  3.494868 -1.513927
      ESP Fit Center  325 is at   0.591038  3.494868 -1.513927
      ESP Fit Center  326 is at  -0.644177 -2.542820  1.513651
      ESP Fit Center  327 is at   0.084747 -2.542820  1.513651
      ESP Fit Center  328 is at  -0.685602 -3.160744  1.047486
      ESP Fit Center  329 is at   0.126172 -3.160744  1.047486
      ESP Fit Center  330 is at  -0.860515 -3.442996  0.373858
      ESP Fit Center  331 is at  -0.082290 -3.537490  0.373858
      ESP Fit Center  332 is at   0.650706 -3.259501  0.373858
      ESP Fit Center  333 is at  -0.860515 -3.442996 -0.373812
      ESP Fit Center  334 is at  -0.082290 -3.537490 -0.373812
      ESP Fit Center  335 is at   0.650706 -3.259501 -0.373812
      ESP Fit Center  336 is at  -0.685602 -3.160744 -1.047440
      ESP Fit Center  337 is at   0.126172 -3.160744 -1.047440
      ESP Fit Center  338 is at  -0.644177 -2.542820 -1.513605
      ESP Fit Center  339 is at   0.084747 -2.542820 -1.513605
      ESP Fit Center  340 is at  -2.746026  1.236466  1.512141
      ESP Fit Center  341 is at  -3.474950  1.236466  1.512141
      ESP Fit Center  342 is at  -3.516375  1.854390  1.045976
      ESP Fit Center  343 is at  -4.173113  1.377241  1.045976
      ESP Fit Center  344 is at  -4.423965  0.605199  1.045976
      ESP Fit Center  345 is at  -3.691288  2.136642  0.372348
      ESP Fit Center  346 is at  -4.336458  1.691313  0.372348
      ESP Fit Center  347 is at  -4.700773  0.997169  0.372348
      ESP Fit Center  348 is at  -4.700773  0.213229  0.372348
      ESP Fit Center  349 is at  -3.691288  2.136642 -0.375322
      ESP Fit Center  350 is at  -4.336458  1.691313 -0.375322
      ESP Fit Center  351 is at  -4.700773  0.997169 -0.375322
      ESP Fit Center  352 is at  -4.700773  0.213229 -0.375322
      ESP Fit Center  353 is at  -3.516375  1.854390 -1.048950
      ESP Fit Center  354 is at  -4.173113  1.377241 -1.048950
      ESP Fit Center  355 is at  -4.423965  0.605199 -1.048950
      ESP Fit Center  356 is at  -2.746026  1.236466 -1.515115
      ESP Fit Center  357 is at  -3.474950  1.236466 -1.515115
      ESP Fit Center  358 is at  -2.460977  1.094640 -1.800922
      ESP Fit Center  359 is at  -3.239201  1.000146 -1.800922
      ESP Fit Center  360 is at  -1.020522 -0.531297 -2.548592
      ESP Fit Center  361 is at  -1.208131  0.229863 -2.548592
      ESP Fit Center  362 is at  -1.727980  0.816651 -2.548592
      ESP Fit Center  363 is at  -2.460977  1.094640 -2.548592
      ESP Fit Center  364 is at  -3.239201  1.000146 -2.548592
      ESP Fit Center  365 is at  -3.884371  0.554817 -2.548592
      ESP Fit Center  366 is at  -4.248686 -0.139327 -2.548592
      ESP Fit Center  367 is at  -1.208131 -1.292457 -2.548592
      ESP Fit Center  368 is at  -1.344924 -0.531297 -3.222220
      ESP Fit Center  369 is at  -1.595776  0.240745 -3.222220
      ESP Fit Center  370 is at  -2.252514  0.717894 -3.222220
      ESP Fit Center  371 is at  -3.064288  0.717894 -3.222220
      ESP Fit Center  372 is at  -3.721026  0.240745 -3.222220
      ESP Fit Center  373 is at  -3.971878 -0.531297 -3.222220
      ESP Fit Center  374 is at  -3.721026 -1.303339 -3.222220
      ESP Fit Center  375 is at  -2.252514 -1.780488 -3.222220
      ESP Fit Center  376 is at  -1.595776 -1.303339 -3.222220
      ESP Fit Center  377 is at  -1.929476 -0.531297 -3.688385
      ESP Fit Center  378 is at  -2.293939  0.099970 -3.688385
      ESP Fit Center  379 is at  -3.022863  0.099970 -3.688385
      ESP Fit Center  380 is at  -3.387326 -0.531297 -3.688385
      ESP Fit Center  381 is at  -3.022863 -1.162564 -3.688385
      ESP Fit Center  382 is at  -2.293939 -1.162564 -3.688385
      ESP Fit Center  383 is at  -2.658401 -0.531297 -3.854757
      ESP Fit Center  384 is at  -2.736935 -3.300628 -0.279817
      ESP Fit Center  385 is at  -1.925161 -3.300628 -0.279817
      ESP Fit Center  386 is at  -3.557018 -3.137552 -0.953445
      ESP Fit Center  387 is at  -2.911848 -3.582880 -0.953445
      ESP Fit Center  388 is at  -2.133623 -3.677374 -0.953445
      ESP Fit Center  389 is at  -1.400627 -3.399385 -0.953445
      ESP Fit Center  390 is at  -0.693169 -2.051437 -1.701115
      ESP Fit Center  391 is at  -3.557018 -3.137552 -1.701115
      ESP Fit Center  392 is at  -2.911848 -3.582880 -1.701115
      ESP Fit Center  393 is at  -2.133623 -3.677374 -1.701115
      ESP Fit Center  394 is at  -1.400627 -3.399385 -1.701115
      ESP Fit Center  395 is at  -0.880778 -2.812597 -1.701115
      ESP Fit Center  396 is at  -1.017571 -2.051437 -2.374743
      ESP Fit Center  397 is at  -3.393673 -2.823479 -2.374743
      ESP Fit Center  398 is at  -2.736935 -3.300628 -2.374743
      ESP Fit Center  399 is at  -1.925161 -3.300628 -2.374743
      ESP Fit Center  400 is at  -1.268423 -2.823479 -2.374743
      ESP Fit Center  401 is at  -1.602123 -2.051437 -2.840908
      ESP Fit Center  402 is at  -2.695510 -2.682704 -2.840908
      ESP Fit Center  403 is at  -1.966586 -2.682704 -2.840908
      ESP Fit Center  404 is at  -5.016628 -0.574207 -0.229181
      ESP Fit Center  405 is at  -5.267480 -1.346249 -0.229181
      ESP Fit Center  406 is at  -5.016628 -2.118292 -0.229181
      ESP Fit Center  407 is at  -4.359890 -2.595440 -0.229181
      ESP Fit Center  408 is at  -4.534803  0.185194 -0.902809
      ESP Fit Center  409 is at  -5.179973 -0.260135 -0.902809
      ESP Fit Center  410 is at  -5.544288 -0.954279 -0.902809
      ESP Fit Center  411 is at  -5.544288 -1.738219 -0.902809
      ESP Fit Center  412 is at  -5.179973 -2.432364 -0.902809
      ESP Fit Center  413 is at  -4.534803 -2.877693 -0.902809
      ESP Fit Center  414 is at  -4.534803  0.185194 -1.650479
      ESP Fit Center  415 is at  -5.179973 -0.260135 -1.650479
      ESP Fit Center  416 is at  -5.544288 -0.954279 -1.650479
      ESP Fit Center  417 is at  -5.544288 -1.738219 -1.650479
      ESP Fit Center  418 is at  -5.179973 -2.432364 -1.650479
      ESP Fit Center  419 is at  -4.534803 -2.877693 -1.650479
      ESP Fit Center  420 is at  -5.016628 -0.574207 -2.324107
      ESP Fit Center  421 is at  -5.267480 -1.346249 -2.324107
      ESP Fit Center  422 is at  -5.016628 -2.118292 -2.324107
      ESP Fit Center  423 is at  -4.359890 -2.595440 -2.324107
      ESP Fit Center  424 is at  -4.318465 -0.714982 -2.790272
      ESP Fit Center  425 is at  -4.682928 -1.346249 -2.790272
      ESP Fit Center  426 is at  -4.318465 -1.977516 -2.790272
      ESP Fit Center  427 is at  -2.659778 -0.526592  3.854418
      ESP Fit Center  428 is at  -1.930853 -0.526592  3.688046
      ESP Fit Center  429 is at  -2.295316  0.104675  3.688046
      ESP Fit Center  430 is at  -3.024240  0.104675  3.688046
      ESP Fit Center  431 is at  -3.388703 -0.526592  3.688046
      ESP Fit Center  432 is at  -3.024240 -1.157859  3.688046
      ESP Fit Center  433 is at  -2.295316 -1.157859  3.688046
      ESP Fit Center  434 is at  -1.346301 -0.526592  3.221881
      ESP Fit Center  435 is at  -1.597153  0.245450  3.221881
      ESP Fit Center  436 is at  -2.253891  0.722599  3.221881
      ESP Fit Center  437 is at  -3.065665  0.722599  3.221881
      ESP Fit Center  438 is at  -3.722403  0.245450  3.221881
      ESP Fit Center  439 is at  -3.973255 -0.526592  3.221881
      ESP Fit Center  440 is at  -3.722403 -1.298634  3.221881
      ESP Fit Center  441 is at  -2.253891 -1.775783  3.221881
      ESP Fit Center  442 is at  -1.597153 -1.298634  3.221881
      ESP Fit Center  443 is at  -1.021899 -0.526592  2.548253
      ESP Fit Center  444 is at  -1.209508  0.234568  2.548253
      ESP Fit Center  445 is at  -1.729357  0.821356  2.548253
      ESP Fit Center  446 is at  -2.462354  1.099345  2.548253
      ESP Fit Center  447 is at  -3.240578  1.004851  2.548253
      ESP Fit Center  448 is at  -3.885748  0.559522  2.548253
      ESP Fit Center  449 is at  -4.250063 -0.134622  2.548253
      ESP Fit Center  450 is at  -1.209508 -1.287752  2.548253
      ESP Fit Center  451 is at  -2.462354  1.099345  1.800583
      ESP Fit Center  452 is at  -3.240578  1.004851  1.800583
      ESP Fit Center  453 is at  -4.319172 -0.712412  2.790893
      ESP Fit Center  454 is at  -4.683635 -1.343679  2.790893
      ESP Fit Center  455 is at  -4.319172 -1.974946  2.790893
      ESP Fit Center  456 is at  -5.017335 -0.571637  2.324728
      ESP Fit Center  457 is at  -5.268187 -1.343679  2.324728
      ESP Fit Center  458 is at  -5.017335 -2.115722  2.324728
      ESP Fit Center  459 is at  -4.360597 -2.592870  2.324728
      ESP Fit Center  460 is at  -4.535510  0.187764  1.651100
      ESP Fit Center  461 is at  -5.180680 -0.257565  1.651100
      ESP Fit Center  462 is at  -5.544995 -0.951709  1.651100
      ESP Fit Center  463 is at  -5.544995 -1.735649  1.651100
      ESP Fit Center  464 is at  -5.180680 -2.429794  1.651100
      ESP Fit Center  465 is at  -4.535510 -2.875123  1.651100
      ESP Fit Center  466 is at  -4.535510  0.187764  0.903430
      ESP Fit Center  467 is at  -5.180680 -0.257565  0.903430
      ESP Fit Center  468 is at  -5.544995 -0.951709  0.903430
      ESP Fit Center  469 is at  -5.544995 -1.735649  0.903430
      ESP Fit Center  470 is at  -5.180680 -2.429794  0.903430
      ESP Fit Center  471 is at  -4.535510 -2.875123  0.903430
      ESP Fit Center  472 is at  -5.017335 -0.571637  0.229802
      ESP Fit Center  473 is at  -5.268187 -1.343679  0.229802
      ESP Fit Center  474 is at  -5.017335 -2.115722  0.229802
      ESP Fit Center  475 is at  -4.360597 -2.592870  0.229802
      ESP Fit Center  476 is at  -1.602733 -2.048507  2.844060
      ESP Fit Center  477 is at  -2.696120 -2.679774  2.844060
      ESP Fit Center  478 is at  -1.967196 -2.679774  2.844060
      ESP Fit Center  479 is at  -1.018181 -2.048507  2.377895
      ESP Fit Center  480 is at  -3.394283 -2.820549  2.377895
      ESP Fit Center  481 is at  -2.737545 -3.297698  2.377895
      ESP Fit Center  482 is at  -1.925771 -3.297698  2.377895
      ESP Fit Center  483 is at  -1.269033 -2.820549  2.377895
      ESP Fit Center  484 is at  -0.693779 -2.048507  1.704267
      ESP Fit Center  485 is at  -3.557628 -3.134622  1.704267
      ESP Fit Center  486 is at  -2.912458 -3.579950  1.704267
      ESP Fit Center  487 is at  -2.134233 -3.674444  1.704267
      ESP Fit Center  488 is at  -1.401237 -3.396455  1.704267
      ESP Fit Center  489 is at  -0.881388 -2.809667  1.704267
      ESP Fit Center  490 is at  -3.557628 -3.134622  0.956597
      ESP Fit Center  491 is at  -2.912458 -3.579950  0.956597
      ESP Fit Center  492 is at  -2.134233 -3.674444  0.956597
      ESP Fit Center  493 is at  -1.401237 -3.396455  0.956597
      ESP Fit Center  494 is at  -2.737545 -3.297698  0.282969
      ESP Fit Center  495 is at  -1.925771 -3.297698  0.282969
      ESP Fit Center  496 is at  -0.512220  3.277006  1.513120
      ESP Fit Center  497 is at  -0.876682  3.908273  1.513120
      ESP Fit Center  498 is at  -1.605607  3.908273  1.513120
      ESP Fit Center  499 is at  -0.178519  4.049048  1.046955
      ESP Fit Center  500 is at  -0.835258  4.526197  1.046955
      ESP Fit Center  501 is at  -1.647031  4.526197  1.046955
      ESP Fit Center  502 is at  -2.303769  4.049048  1.046955
      ESP Fit Center  503 is at  -0.310723  4.624954  0.373327
      ESP Fit Center  504 is at  -1.043720  4.902943  0.373327
      ESP Fit Center  505 is at  -1.821944  4.808449  0.373327
      ESP Fit Center  506 is at  -2.467114  4.363121  0.373327
      ESP Fit Center  507 is at  -0.310723  4.624954 -0.374343
      ESP Fit Center  508 is at  -1.043720  4.902943 -0.374343
      ESP Fit Center  509 is at  -1.821944  4.808449 -0.374343
      ESP Fit Center  510 is at  -2.467114  4.363121 -0.374343
      ESP Fit Center  511 is at  -0.178519  4.049048 -1.047971
      ESP Fit Center  512 is at  -0.835258  4.526197 -1.047971
      ESP Fit Center  513 is at  -1.647031  4.526197 -1.047971
      ESP Fit Center  514 is at  -2.303769  4.049048 -1.047971
      ESP Fit Center  515 is at  -0.512220  3.277006 -1.514136
      ESP Fit Center  516 is at  -0.876682  3.908273 -1.514136
      ESP Fit Center  517 is at  -1.605607  3.908273 -1.514136
      ESP Fit Center  518 is at   2.792850  1.908029  2.252471
      ESP Fit Center  519 is at   2.426923  1.274225  2.252471
      ESP Fit Center  520 is at   3.737063  2.540495  1.916075
      ESP Fit Center  521 is at   2.960665  2.652124  1.916075
      ESP Fit Center  522 is at   2.247166  2.326280  1.916075
      ESP Fit Center  523 is at   4.513606  2.629054  1.392125
      ESP Fit Center  524 is at   5.289149  2.005583  0.731910
      ESP Fit Center  525 is at   5.527105  1.274225  0.000057
      ESP Fit Center  526 is at   5.411191  2.006079  0.000057
      ESP Fit Center  527 is at   5.074795 -0.117843  0.000057
      ESP Fit Center  528 is at   5.411191  0.542372  0.000057
      ESP Fit Center  529 is at   5.289149  2.005583 -0.731797
      ESP Fit Center  530 is at   4.513606  2.629054 -1.392012
      ESP Fit Center  531 is at   3.737063  2.540495 -1.915961
      ESP Fit Center  532 is at   2.960665  2.652124 -1.915961
      ESP Fit Center  533 is at   2.247166  2.326280 -1.915961
      ESP Fit Center  534 is at   2.792850  1.908029 -2.252357
      ESP Fit Center  535 is at   2.426923  1.274225 -2.252357
      ESP Fit Center  536 is at   1.711079  0.855153  2.368261
      ESP Fit Center  537 is at   2.077006  1.488957  2.252347
      ESP Fit Center  538 is at   1.345152  1.488957  2.252347
      ESP Fit Center  539 is at   0.979225  0.855153  2.252347
      ESP Fit Center  540 is at   2.077006  0.221349  2.252347
      ESP Fit Center  541 is at   2.077006  1.488957 -2.252481
      ESP Fit Center  542 is at   0.979225  0.855153 -2.252481
      ESP Fit Center  543 is at   2.077006  0.221349 -2.252481
      ESP Fit Center  544 is at   1.711079  0.855153 -2.368395
      ESP Fit Center  545 is at   0.686918  1.807808  2.368105
      ESP Fit Center  546 is at   1.418772  1.807808  2.252191
      ESP Fit Center  547 is at   1.052845  2.441612  2.252191
      ESP Fit Center  548 is at   0.320991  2.441612  2.252191
      ESP Fit Center  549 is at   0.320991  1.174004  2.252191
      ESP Fit Center  550 is at   1.858000  2.560417  1.915795
      ESP Fit Center  551 is at   1.265204  3.074078  1.915795
      ESP Fit Center  552 is at   0.488806  3.185707  1.915795
      ESP Fit Center  553 is at  -0.224693  2.859863  1.915795
      ESP Fit Center  554 is at   1.858000  2.560417 -1.916241
      ESP Fit Center  555 is at   1.265204  3.074078 -1.916241
      ESP Fit Center  556 is at   0.488806  3.185707 -1.916241
      ESP Fit Center  557 is at  -0.224693  2.859863 -1.916241
      ESP Fit Center  558 is at   1.418772  1.807808 -2.252637
      ESP Fit Center  559 is at   1.052845  2.441612 -2.252637
      ESP Fit Center  560 is at   0.320991  2.441612 -2.252637
      ESP Fit Center  561 is at   0.320991  1.174004 -2.252637
      ESP Fit Center  562 is at   1.052845  1.174004 -2.252637
      ESP Fit Center  563 is at   0.686918  1.807808 -2.368551
      ESP Fit Center  564 is at  -0.663628  1.448320  2.368032
      ESP Fit Center  565 is at  -0.297701  2.082124  2.252118
      ESP Fit Center  566 is at  -1.029555  2.082124  2.252118
      ESP Fit Center  567 is at  -1.395482  1.448320  2.252118
      ESP Fit Center  568 is at  -0.297701  0.814516  2.252118
      ESP Fit Center  569 is at  -0.297701  2.082124 -2.252710
      ESP Fit Center  570 is at  -1.029555  2.082124 -2.252710
      ESP Fit Center  571 is at  -1.395482  1.448320 -2.252710
      ESP Fit Center  572 is at  -0.297701  0.814516 -2.252710
      ESP Fit Center  573 is at  -0.663628  1.448320 -2.368624
      ESP Fit Center  574 is at  -0.318465  0.097323  2.252156
      ESP Fit Center  575 is at  -0.318465  0.097323 -2.252672
      ESP Fit Center  576 is at  -0.028025 -0.855888  2.368274
      ESP Fit Center  577 is at   0.337902 -0.222084  2.252360
      ESP Fit Center  578 is at  -0.393952 -1.489692  2.252360
      ESP Fit Center  579 is at   0.337902 -1.489692  2.252360
      ESP Fit Center  580 is at  -0.226137 -2.233787  1.915964
      ESP Fit Center  581 is at   0.550261 -2.122158  1.915964
      ESP Fit Center  582 is at  -0.226137 -2.233787 -1.916072
      ESP Fit Center  583 is at   0.550261 -2.122158 -1.916072
      ESP Fit Center  584 is at   0.337902 -0.222084 -2.252468
      ESP Fit Center  585 is at  -0.393952 -1.489692 -2.252468
      ESP Fit Center  586 is at   0.337902 -1.489692 -2.252468
      ESP Fit Center  587 is at  -0.028025 -0.855888 -2.368382
      ESP Fit Center  588 is at   1.314732 -0.487758  2.368384
      ESP Fit Center  589 is at   0.948805  0.146046  2.252470
      ESP Fit Center  590 is at   0.948805 -1.121562  2.252470
      ESP Fit Center  591 is at   0.948805  0.146046 -2.252358
      ESP Fit Center  592 is at   0.948805 -1.121562 -2.252358
      ESP Fit Center  593 is at   1.314732 -0.487758 -2.368272
      ESP Fit Center  594 is at   2.535754 -1.765433  2.684388
      ESP Fit Center  595 is at   3.291954 -1.765433  2.575663
      ESP Fit Center  596 is at   2.913854 -1.110545  2.575663
      ESP Fit Center  597 is at   2.157654 -1.110545  2.575663
      ESP Fit Center  598 is at   1.779554 -1.765433  2.575663
      ESP Fit Center  599 is at   2.157654 -2.420321  2.575663
      ESP Fit Center  600 is at   2.913854 -2.420321  2.575663
      ESP Fit Center  601 is at   3.986891 -1.765433  2.258296
      ESP Fit Center  602 is at   3.792475 -1.039864  2.258296
      ESP Fit Center  603 is at   3.261322 -0.508711  2.258296
      ESP Fit Center  604 is at   2.535754 -0.314296  2.258296
      ESP Fit Center  605 is at   1.084617 -1.765433  2.258296
      ESP Fit Center  606 is at   1.279033 -2.491001  2.258296
      ESP Fit Center  607 is at   1.810186 -3.022154  2.258296
      ESP Fit Center  608 is at   2.535754 -3.216570  2.258296
      ESP Fit Center  609 is at   3.261322 -3.022154  2.258296
      ESP Fit Center  610 is at   3.792475 -2.491001  2.258296
      ESP Fit Center  611 is at   4.564265 -1.765433  1.757998
[...]
 2331 Fit       0.000836
 2332 Fit      -0.002147
 2333 Fit      -0.006421
 2334 Fit      -0.003697
 2335 Fit      -0.003050
 2336 Fit      -0.005601
 2337 Fit      -0.008779
 2338 Fit      -0.009720
 2339 Fit      -0.007441
 2340 Fit      -0.003698
 2341 Fit      -0.003050
 2342 Fit      -0.005602
 2343 Fit      -0.008779
 2344 Fit      -0.009720
 2345 Fit      -0.007441
 2346 Fit      -0.006421
 2347 Fit      -0.004888
 2348 Fit      -0.003893
 2349 Fit      -0.001124
 2350 Fit      -0.001604
 2351 Fit      -0.005326
 2352 Fit      -0.008185
 2353 Fit      -0.007533
 2354 Fit       0.000906
 2355 Fit       0.003059
 2356 Fit       0.004082
 2357 Fit       0.002811
 2358 Fit       0.005749
 2359 Fit       0.007915
 2360 Fit       0.009690
 2361 Fit       0.010385
 2362 Fit       0.018803
 2363 Fit       0.018811
 2364 Fit       0.005750
 2365 Fit       0.007917
 2366 Fit       0.009694
 2367 Fit       0.010390
 2368 Fit       0.000907
 2369 Fit       0.003060
 2370 Fit       0.004085
 2371 Fit       0.002814
 2372 Fit      -0.003892
 2373 Fit      -0.001123
 2374 Fit      -0.001603
 2375 Fit      -0.005326
 2376 Fit      -0.008184
 2377 Fit      -0.007532
 2378 Fit      -0.004887
 2379 Fit      -0.005944
 2380 Fit      -0.007070
 2381 Fit      -0.003842
 2382 Fit      -0.003980
 2383 Fit      -0.008565
 2384 Fit       0.000833
 2385 Fit       0.000833
 2386 Fit      -0.007069
 2387 Fit      -0.003843
 2388 Fit      -0.003984
 2389 Fit      -0.008564
 2390 Fit      -0.005946
 2391 Fit      -0.009578
 2392 Fit      -0.009572
 2393 Fit      -0.009802
 2394 Fit      -0.011399
 2395 Fit      -0.011093
 2396 Fit      -0.009926
 2397 Fit      -0.007333
 2398 Fit      -0.006276
 2399 Fit      -0.006280
 2400 Fit      -0.007337
 2401 Fit      -0.011398
 2402 Fit      -0.011091
 2403 Fit      -0.009926
 2404 Fit      -0.009799
 2405 Fit      -0.010839
 2406 Fit      -0.009206
 2407 Fit      -0.010673
 2408 Fit      -0.011412
 2409 Fit      -0.009207
 2410 Fit      -0.010674
 2411 Fit      -0.011412
 2412 Fit      -0.010839
 2413 Fit      -0.010231
 2414 Fit      -0.009769
 2415 Fit      -0.008967
 2416 Fit      -0.009760
 2417 Fit      -0.010453
 2418 Fit      -0.010686
 2419 Fit      -0.010585
 2420 Fit      -0.009109
 2421 Fit      -0.007633
 2422 Fit      -0.006577
 2423 Fit      -0.007550
 2424 Fit      -0.009715
 2425 Fit      -0.010794
 2426 Fit      -0.010436
 2427 Fit      -0.010159
 2428 Fit      -0.010508
 2429 Fit      -0.010747
 2430 Fit      -0.010553
 2431 Fit      -0.010039
 2432 Fit      -0.008349
 2433 Fit      -0.006657
 2434 Fit      -0.008838
 2435 Fit      -0.009020
 2436 Fit      -0.009824
 2437 Fit      -0.010346
 2438 Fit      -0.010370
 2439 Fit      -0.010087
 2440 Fit      -0.009711
 2441 Fit      -0.009229
 2442 Fit      -0.007626
 2443 Fit      -0.005933
 2444 Fit      -0.006732
 2445 Fit      -0.008333
 2446 Fit      -0.009450
 2447 Fit      -0.009855
 2448 Fit      -0.009728
 2449 Fit      -0.009366
 2450 Fit      -0.009009
 2451 Fit      -0.008729
 2452 Fit      -0.008385
 2453 Fit      -0.007055
 2454 Fit      -0.005500
 2455 Fit      -0.004010
 2456 Fit      -0.006897
 2457 Fit      -0.008592
 2458 Fit      -0.009228
 2459 Fit      -0.009146
 2460 Fit      -0.008720
 2461 Fit      -0.008267
 2462 Fit      -0.007969
 2463 Fit      -0.007826
 2464 Fit      -0.007645
 2465 Fit      -0.006688
 2466 Fit      -0.005487
 2467 Fit      -0.005638
 2468 Fit      -0.007818
 2469 Fit      -0.008678
 2470 Fit      -0.008689
 2471 Fit      -0.008257
 2472 Fit      -0.007721
 2473 Fit      -0.007313
 2474 Fit      -0.007133
 2475 Fit      -0.007125
 2476 Fit      -0.007087
 2477 Fit      -0.006515
 2478 Fit      -0.005529
 2479 Fit      -0.001907
 2480 Fit      -0.005921
 2481 Fit      -0.007850
 2482 Fit      -0.008467
 2483 Fit      -0.008299
 2484 Fit      -0.007767
 2485 Fit      -0.007199
 2486 Fit      -0.006811
 2487 Fit      -0.006684
 2488 Fit      -0.006748
 2489 Fit      -0.006797
 2490 Fit      -0.006516
 2491 Fit      -0.005529
 2492 Fit      -0.001906
 2493 Fit      -0.005921
 2494 Fit      -0.007851
 2495 Fit      -0.008467
 2496 Fit      -0.008300
 2497 Fit      -0.007767
 2498 Fit      -0.007199
 2499 Fit      -0.006812
 2500 Fit      -0.006684
 2501 Fit      -0.006749
 2502 Fit      -0.006797
 2503 Fit      -0.006688
 2504 Fit      -0.005487
 2505 Fit      -0.005638
 2506 Fit      -0.007818
 2507 Fit      -0.008678
 2508 Fit      -0.008689
 2509 Fit      -0.008258
 2510 Fit      -0.007721
 2511 Fit      -0.007314
 2512 Fit      -0.007133
 2513 Fit      -0.007126
 2514 Fit      -0.007088
 2515 Fit      -0.007055
 2516 Fit      -0.005500
 2517 Fit      -0.004010
 2518 Fit      -0.006897
 2519 Fit      -0.008593
 2520 Fit      -0.009229
 2521 Fit      -0.009147
 2522 Fit      -0.008721
 2523 Fit      -0.008269
 2524 Fit      -0.007970
 2525 Fit      -0.007827
 2526 Fit      -0.007646
 2527 Fit      -0.007626
 2528 Fit      -0.005932
 2529 Fit      -0.006734
 2530 Fit      -0.008334
 2531 Fit      -0.009450
 2532 Fit      -0.009856
 2533 Fit      -0.009729
 2534 Fit      -0.009367
 2535 Fit      -0.009010
 2536 Fit      -0.008731
 2537 Fit      -0.008385
 2538 Fit      -0.008349
 2539 Fit      -0.006656
 2540 Fit      -0.008840
 2541 Fit      -0.009021
 2542 Fit      -0.009825
 2543 Fit      -0.010347
 2544 Fit      -0.010371
 2545 Fit      -0.010088
 2546 Fit      -0.009712
 2547 Fit      -0.009230
 2548 Fit      -0.009109
 2549 Fit      -0.007632
 2550 Fit      -0.006576
 2551 Fit      -0.007550
 2552 Fit      -0.009716
 2553 Fit      -0.010795
 2554 Fit      -0.010437
 2555 Fit      -0.010160
 2556 Fit      -0.010508
 2557 Fit      -0.010748
 2558 Fit      -0.010554
 2559 Fit      -0.010039
 2560 Fit      -0.009769
 2561 Fit      -0.008966
 2562 Fit      -0.009760
 2563 Fit      -0.010454
 2564 Fit      -0.010686
 2565 Fit      -0.010585
 2566 Fit      -0.010231
 2567 Fit       0.000001
 2568 Fit       0.000084
 2569 Fit      -0.001194
 2570 Fit      -0.000355
 2571 Fit      -0.004717
 2572 Fit      -0.002636
 2573 Fit      -0.001232
 2574 Fit      -0.000653
 2575 Fit      -0.000699
 2576 Fit      -0.002795
 2577 Fit      -0.001839
 2578 Fit      -0.001229
 2579 Fit      -0.008255
 2580 Fit      -0.002057
 2581 Fit      -0.001592
 2582 Fit      -0.001206
 2583 Fit      -0.001644
 2584 Fit      -0.001780
 2585 Fit      -0.006671
 2586 Fit      -0.001615
 2587 Fit      -0.001522
 2588 Fit      -0.001670
 2589 Fit      -0.001980
 2590 Fit      -0.002235
 2591 Fit      -0.002439
 2592 Fit      -0.002885
 2593 Fit      -0.003817
 2594 Fit      -0.004925
 2595 Fit      -0.001812
 2596 Fit      -0.002036
 2597 Fit      -0.002325
 2598 Fit      -0.002648
 2599 Fit      -0.003089
 2600 Fit      -0.002252
 2601 Fit      -0.002259
 2602 Fit      -0.001817
 2603 Fit      -0.002040
 2604 Fit      -0.002329
 2605 Fit      -0.002651
 2606 Fit      -0.003093
 2607 Fit      -0.001618
 2608 Fit      -0.001526
 2609 Fit      -0.001673
 2610 Fit      -0.001982
 2611 Fit      -0.002236
 2612 Fit      -0.002438
 2613 Fit      -0.002883
 2614 Fit      -0.003817
 2615 Fit      -0.004929
 2616 Fit      -0.008259
 2617 Fit      -0.002059
 2618 Fit      -0.001595
 2619 Fit      -0.001208
 2620 Fit      -0.001645
 2621 Fit      -0.001778
 2622 Fit      -0.006673
 2623 Fit      -0.002798
 2624 Fit      -0.001844
 2625 Fit      -0.001229
 2626 Fit      -0.004724
 2627 Fit      -0.002645
 2628 Fit      -0.001240
 2629 Fit      -0.000653
 2630 Fit      -0.000698
 2631 Fit      -0.001205
 2632 Fit      -0.000355
 2633 Fit       0.000001
 2634 Fit       0.000084
 2635 Fit      -0.004127
 2636 Fit       0.000268
 2637 Fit      -0.002341
 2638 Fit      -0.005739
 2639 Fit       0.006943
 2640 Fit       0.004857
 2641 Fit      -0.000015
 2642 Fit      -0.004726
 2643 Fit      -0.007230
 2644 Fit       0.007033
 2645 Fit       0.000743
 2646 Fit      -0.004468
 2647 Fit      -0.007601
 2648 Fit      -0.008344
 2649 Fit       0.005682
 2650 Fit      -0.000865
 2651 Fit      -0.005646
 2652 Fit      -0.008193
 2653 Fit       0.008096
 2654 Fit       0.000974
 2655 Fit      -0.004373
 2656 Fit      -0.007563
 2657 Fit       0.004228
 2658 Fit      -0.002135
 2659 Fit      -0.006373
 2660 Fit      -0.008088
 2661 Fit       0.004228
 2662 Fit      -0.002135
 2663 Fit      -0.006372
 2664 Fit      -0.008086
 2665 Fit       0.008096
 2666 Fit       0.000974
 2667 Fit      -0.004372
 2668 Fit      -0.007561
 2669 Fit       0.005681
 2670 Fit      -0.000864
 2671 Fit      -0.005645
 2672 Fit      -0.008191
 2673 Fit       0.007032
 2674 Fit       0.000742
 2675 Fit      -0.004468
 2676 Fit      -0.007601
 2677 Fit      -0.008344
 2678 Fit       0.006941
 2679 Fit       0.004855
 2680 Fit      -0.000017
 2681 Fit      -0.004728
 2682 Fit      -0.007234
 2683 Fit       0.000265
 2684 Fit      -0.002344
 2685 Fit      -0.005746
 2686 Fit      -0.004132
 2687 Fit      -0.001075
 2688 Fit       0.001469
 2689 Fit       0.002945
 2690 Fit      -0.003590
 2691 Fit      -0.000563
 2692 Fit       0.001732
 2693 Fit       0.003026
 2694 Fit       0.004064
 2695 Fit      -0.002820
 2696 Fit      -0.000102
 2697 Fit       0.001810
 2698 Fit       0.003072
 2699 Fit       0.003953
 2700 Fit      -0.003046
 2701 Fit      -0.000122
 2702 Fit       0.001591
 2703 Fit       0.002833
 2704 Fit       0.003354
 2705 Fit       0.002992
 2706 Fit      -0.003655
 2707 Fit      -0.000583
 2708 Fit       0.001005
 2709 Fit       0.001916
 2710 Fit       0.000892
 2711 Fit      -0.001590
 2712 Fit      -0.002761
 2713 Fit      -0.001255
 2714 Fit      -0.000012
 2715 Fit       0.007444
 2716 Fit       0.008868
 2717 Fit       0.007284
 2718 Fit       0.009040
 2719 Fit       0.011070
 2720 Fit       0.013317
 2721 Fit       0.007080
 2722 Fit       0.008704
 2723 Fit       0.010610
 2724 Fit       0.013020
 2725 Fit       0.016426
 2726 Fit       0.007141
 2727 Fit       0.008816
 2728 Fit       0.010780
 2729 Fit       0.013303
 2730 Fit       0.017084
 2731 Fit       0.007142
 2732 Fit       0.008816
 2733 Fit       0.010781
 2734 Fit       0.013304
 2735 Fit       0.017085
 2736 Fit       0.007081
 2737 Fit       0.008704
 2738 Fit       0.010611
 2739 Fit       0.013022
 2740 Fit       0.016429
 2741 Fit       0.007284
 2742 Fit       0.009041
 2743 Fit       0.011072
 2744 Fit       0.013321
 2745 Fit       0.007445
 2746 Fit       0.008870
 2747 Fit      -0.000012
 2748 Fit       0.001004
 2749 Fit       0.001916
 2750 Fit       0.000892
 2751 Fit      -0.001590
 2752 Fit      -0.002762
 2753 Fit      -0.001256
 2754 Fit       0.001590
 2755 Fit       0.002833
 2756 Fit       0.003354
 2757 Fit       0.002991
 2758 Fit      -0.003656
 2759 Fit      -0.000584
 2760 Fit       0.001809
 2761 Fit       0.003072
 2762 Fit       0.003953
 2763 Fit      -0.003048
 2764 Fit      -0.000123
 2765 Fit       0.001732
 2766 Fit       0.003026
 2767 Fit       0.004064
 2768 Fit      -0.002821
 2769 Fit      -0.000102
 2770 Fit       0.001469
 2771 Fit       0.002945
 2772 Fit      -0.003590
 2773 Fit      -0.000563
 2774 Fit      -0.001076
 2775 Fit       0.012391
 2776 Fit       0.014723
 2777 Fit       0.013948
 2778 Fit       0.015820
 2779 Fit       0.018553
 2780 Fit       0.022573
 2781 Fit       0.016826
 2782 Fit       0.018533
 2783 Fit       0.021651
 2784 Fit       0.027118
 2785 Fit       0.017919
 2786 Fit       0.019210
 2787 Fit       0.022180
 2788 Fit       0.027812
 2789 Fit       0.017919
 2790 Fit       0.019210
 2791 Fit       0.022180
 2792 Fit       0.027813
 2793 Fit       0.016826
 2794 Fit       0.018534
 2795 Fit       0.021653
 2796 Fit       0.027122
 2797 Fit       0.013949
 2798 Fit       0.015821
 2799 Fit       0.018556
 2800 Fit       0.022578
 2801 Fit       0.012393
 2802 Fit       0.014726
 2803 Fit      -0.000557
 2804 Fit       0.000313
 2805 Fit       0.003228
 2806 Fit      -0.000316
 2807 Fit       0.003229
 2808 Fit      -0.000316
 2809 Fit       0.000314
 2810 Fit      -0.000558
 2811 Fit      -0.005839
 2812 Fit      -0.003168
 2813 Fit      -0.007906
 2814 Fit      -0.004206
 2815 Fit      -0.001982
 2816 Fit      -0.005265
 2817 Fit      -0.002470
 2818 Fit      -0.000594
 2819 Fit      -0.005263
 2820 Fit      -0.002468
 2821 Fit      -0.000593
 2822 Fit      -0.007896
 2823 Fit      -0.004200
 2824 Fit      -0.001977
 2825 Fit      -0.005828
 2826 Fit      -0.003160
 2827 Fit      -0.007292
 2828 Fit      -0.004932
 2829 Fit      -0.008924
 2830 Fit      -0.008335
 2831 Fit      -0.006646
 2832 Fit      -0.004915
 2833 Fit      -0.004173
 2834 Fit      -0.003893
 2835 Fit      -0.003320
 2836 Fit      -0.002654
 2837 Fit      -0.002207
 2838 Fit      -0.005446
 2839 Fit      -0.004671
 2840 Fit      -0.003379
 2841 Fit      -0.002379
 2842 Fit      -0.001917
 2843 Fit      -0.001673
 2844 Fit      -0.001552
 2845 Fit      -0.001590
 2846 Fit      -0.005254
 2847 Fit      -0.003295
 2848 Fit      -0.002481
 2849 Fit      -0.001562
 2850 Fit      -0.001110
 2851 Fit      -0.001070
 2852 Fit      -0.001293
 2853 Fit      -0.001670
 2854 Fit      -0.002981
 2855 Fit      -0.003390
 2856 Fit      -0.002037
 2857 Fit      -0.001344
 2858 Fit      -0.001019
 2859 Fit      -0.001291
 2860 Fit      -0.001784
 2861 Fit      -0.002161
 2862 Fit      -0.001426
 2863 Fit       0.001326
 2864 Fit       0.002778
 2865 Fit       0.004527
 2866 Fit       0.000134
 2867 Fit       0.001044
 2868 Fit       0.001992
 2869 Fit       0.002886
 2870 Fit      -0.000320
 2871 Fit       0.000379
 2872 Fit       0.000971
 2873 Fit       0.001237
 2874 Fit       0.000997
 2875 Fit      -0.000492
 2876 Fit      -0.000070
 2877 Fit      -0.000036
 2878 Fit      -0.000630
 2879 Fit      -0.002112
 2880 Fit      -0.001336
 2881 Fit      -0.001028
 2882 Fit      -0.001259
 2883 Fit      -0.002302
 2884 Fit      -0.004233
 2885 Fit      -0.002015
 2886 Fit      -0.002307
 2887 Fit      -0.003522
 2888 Fit       0.001549
 2889 Fit       0.002388
 2890 Fit       0.002860
 2891 Fit       0.002833
 2892 Fit       0.002298
 2893 Fit       0.001378
 2894 Fit       0.000363
 2895 Fit       0.000403
 2896 Fit       0.001416
 2897 Fit       0.002089
 2898 Fit       0.002345
 2899 Fit       0.002158
 2900 Fit       0.001576
 2901 Fit       0.000741
 2902 Fit      -0.000252
 2903 Fit       0.000826
 2904 Fit       0.001523
 2905 Fit       0.001804
 2906 Fit       0.001665
 2907 Fit       0.001150
 2908 Fit       0.000381
 2909 Fit      -0.000372
 2910 Fit       0.000519
 2911 Fit       0.001019
 2912 Fit       0.001101
 2913 Fit       0.000785
 2914 Fit       0.000151
 2915 Fit      -0.000637
 2916 Fit      -0.000411
 2917 Fit       0.000149
 2918 Fit       0.000199
 2919 Fit      -0.000234
 2920 Fit      -0.001004
 2921 Fit      -0.001063
 2922 Fit      -0.000776
 2923 Fit      -0.001176
 2924 Fit      -0.001430
 2925 Fit      -0.002041
 2926 Fit      -0.001346
 2927 Fit      -0.001021
 2928 Fit      -0.001295
 2929 Fit      -0.001791
 2930 Fit      -0.002167
 2931 Fit      -0.003300
 2932 Fit      -0.002481
 2933 Fit      -0.001560
 2934 Fit      -0.001109
 2935 Fit      -0.001071
 2936 Fit      -0.001296
 2937 Fit      -0.001674
 2938 Fit      -0.002989
 2939 Fit      -0.003397
 2940 Fit      -0.005450
 2941 Fit      -0.004669
 2942 Fit      -0.003374
 2943 Fit      -0.002373
 2944 Fit      -0.001912
 2945 Fit      -0.001671
 2946 Fit      -0.001552
 2947 Fit      -0.001592
 2948 Fit      -0.005262
 2949 Fit      -0.008929
 2950 Fit      -0.008331
 2951 Fit      -0.006636
 2952 Fit      -0.004902
 2953 Fit      -0.004163
 2954 Fit      -0.003885
 2955 Fit      -0.003316
 2956 Fit      -0.002653
 2957 Fit      -0.002208
 2958 Fit      -0.007287
 2959 Fit      -0.004933
 2960 Fit      -0.001067
 2961 Fit      -0.000779
 2962 Fit      -0.001179
 2963 Fit      -0.000415
 2964 Fit       0.000145
 2965 Fit       0.000197
 2966 Fit      -0.000236
 2967 Fit      -0.001005
 2968 Fit      -0.000378
 2969 Fit       0.000515
 2970 Fit       0.001016
 2971 Fit       0.001099
 2972 Fit       0.000784
 2973 Fit       0.000150
 2974 Fit      -0.000638
 2975 Fit      -0.000260
 2976 Fit       0.000821
 2977 Fit       0.001519
 2978 Fit       0.001802
 2979 Fit       0.001664
 2980 Fit       0.001150
 2981 Fit       0.000381
 2982 Fit       0.000395
 2983 Fit       0.001410
 2984 Fit       0.002086
 2985 Fit       0.002343
 2986 Fit       0.002158
 2987 Fit       0.001577
 2988 Fit       0.000742
 2989 Fit       0.001542
 2990 Fit       0.002383
 2991 Fit       0.002858
 2992 Fit       0.002834
 2993 Fit       0.002301
 2994 Fit       0.001382
 2995 Fit       0.000365
 2996 Fit      -0.002013
 2997 Fit      -0.002305
 2998 Fit      -0.003521
 2999 Fit      -0.001335
 3000 Fit      -0.001025
 3001 Fit      -0.001257
 3002 Fit      -0.002302
 3003 Fit      -0.004234
 3004 Fit      -0.000491
 3005 Fit      -0.000068
 3006 Fit      -0.000034
 3007 Fit      -0.000630
 3008 Fit      -0.002115
 3009 Fit      -0.000321
 3010 Fit       0.000380
 3011 Fit       0.000972
 3012 Fit       0.001239
 3013 Fit       0.000998
 3014 Fit       0.000133
 3015 Fit       0.001045
 3016 Fit       0.001995
 3017 Fit       0.002891
 3018 Fit       0.001327
 3019 Fit       0.002784
 3020 Fit       0.004540
 3021 Fit       0.017365
 3022 Fit       0.014360
 3023 Fit       0.023097
 3024 Fit       0.022115
 3025 Fit       0.019483
 3026 Fit       0.015144
 3027 Fit       0.026874
 3028 Fit       0.024860
 3029 Fit       0.022153
 3030 Fit       0.018399
 3031 Fit       0.013307
 3032 Fit       0.026935
 3033 Fit       0.024253
 3034 Fit       0.020773
 3035 Fit       0.016135
 3036 Fit       0.010018
 3037 Fit       0.026935
 3038 Fit       0.024253
 3039 Fit       0.020773
 3040 Fit       0.016135
 3041 Fit       0.010018
 3042 Fit       0.026873
 3043 Fit       0.024859
 3044 Fit       0.022152
 3045 Fit       0.018399
 3046 Fit       0.013307
 3047 Fit       0.023096
 3048 Fit       0.022114
 3049 Fit       0.019482
 3050 Fit       0.015144
 3051 Fit       0.017364
 3052 Fit       0.014359
 -----------------------------------------------------------------
 Leave Link  602 at Thu Jan 16 21:47:25 2014, MaxMem=   235929600 cpu:         1.1

 Test job not archived.
 1\1\GINC-G42\SP\RHF\Gen\C10H13Cl1O1\KOLAR\16-Jan-2014\0\\# hf/gen pop=
 mk iop(6/33=2,6/41=5,6/42=2)\\na resp\\0,1\C,0,-3.158777,1.274225,-0.0
 00057\C,0,-1.711079,0.855153,0.000067\C,0,-0.686918,1.807808,0.000223\
 C,0,0.663628,1.44832,0.000296\C,0,1.050319,0.097323,0.000258\C,0,0.028
 025,-0.855888,0.000054\C,0,-1.314732,-0.487758,-0.000056\Cl,0,-2.53575
 4,-1.765433,-0.000283\C,0,2.51743,-0.314169,0.000347\C,0,2.884091,-1.1
 06067,1.270034\C,0,2.884829,-1.10336,-1.270813\O,0,1.652819,2.399299,0
 .000512\H,0,-3.68603,0.886659,0.879355\H,0,-3.249164,2.364523,0.000005
 \H,0,-3.685882,0.886773,-0.879616\H,0,-0.955501,2.863601,0.000299\H,0,
 0.279715,-1.911553,-0.000023\H,0,3.110488,0.605199,0.001487\H,0,2.6584
 01,-0.531297,2.174757\H,0,2.331048,-2.051437,1.32728\H,0,3.954003,-1.3
 46249,1.276644\H,0,2.659778,-0.526592,-2.174418\H,0,3.95471,-1.343679,
 -1.277265\H,0,2.331658,-2.048507,-1.330432\H,0,1.241144,3.277006,0.000
 508\\Version=AM64L-G09RevD.01\State=1-A\HF=-920.5922758\RMSD=7.731e-09
 \Dipole=0.1125281,0.9873049,0.0000984\Quadrupole=-1.8807652,5.3554691,
 -3.4747039,-4.7273448,0.0001188,0.0004103\PG=C01 [X(C10H13Cl1O1)]\\@


 IT IS WELL TO REMEMBER THAT MAN IS A PART OF NATURE AND THAT HIS WORKS,
 WHATEVER THEY MAY BE, ARE NO MORE "UNNATURAL" THAN 
 THE FLIGHT OF AN EAGLE OR THE PASSAGE OF A TORNADO.

                                    -- CHARLES MCCARRY IN "THE GREAT SOUTHWEST"
 Job cpu time:       0 days  0 hours  0 minutes 31.9 seconds.
 File lengths (MBytes):  RWF=     16 Int=      0 D2E=      0 Chk=      2 Scr=      1
 Normal termination of Gaussian 09 at Thu Jan 16 21:47:25 2014.
31.00user 0.89system 0:37.96elapsed 83%CPU (0avgtext+0avgdata 6404768maxresident)k
8inputs+45792outputs (1major+554808minor)pagefaults 0swaps
