Linux g30 2.6.38.6-client #1 SMP Tue Jun 12 11:27:21 CEST 2012 x86_64 GNU/Linux
Thu Jan 16 21:46:47 CET 2014

 Entering Gaussian System, Link 0=/usr/local/programs/common/gaussian/gaussian09_d01/arch/amd64-pgi_10.4.0-acml/g09/g09
 Initial command:
 /usr/local/programs/common/gaussian/gaussian09_d01/arch/amd64-pgi_10.4.0-acml/g09/l1.exe "/scratch/kolar/g09_17413/Gau-3053.inp" -scrdir="/scratch/kolar/g09_17413/"
 Entering Link 1 = /usr/local/programs/common/gaussian/gaussian09_d01/arch/amd64-pgi_10.4.0-acml/g09/l1.exe PID=      3061.
  
 Copyright (c) 1988,1990,1992,1993,1995,1998,2003,2009,2013,
            Gaussian, Inc.  All Rights Reserved.
  
 This is part of the Gaussian(R) 09 program.  It is based on
 the Gaussian(R) 03 system (copyright 2003, Gaussian, Inc.),
 the Gaussian(R) 98 system (copyright 1998, Gaussian, Inc.),
 the Gaussian(R) 94 system (copyright 1995, Gaussian, Inc.),
 the Gaussian 92(TM) system (copyright 1992, Gaussian, Inc.),
 the Gaussian 90(TM) system (copyright 1990, Gaussian, Inc.),
 the Gaussian 88(TM) system (copyright 1988, Gaussian, Inc.),
 the Gaussian 86(TM) system (copyright 1986, Carnegie Mellon
 University), and the Gaussian 82(TM) system (copyright 1983,
 Carnegie Mellon University). Gaussian is a federally registered
 trademark of Gaussian, Inc.
  
 This software contains proprietary and confidential information,
 including trade secrets, belonging to Gaussian, Inc.
  
 This software is provided under written license and may be
 used, copied, transmitted, or stored only in accord with that
 written license.
  
 The following legend is applicable only to US Government
 contracts under FAR:
  
                    RESTRICTED RIGHTS LEGEND
  
 Use, reproduction and disclosure by the US Government is
 subject to restrictions as set forth in subparagraphs (a)
 and (c) of the Commercial Computer Software - Restricted
 Rights clause in FAR 52.227-19.
  
 Gaussian, Inc.
 340 Quinnipiac St., Bldg. 40, Wallingford CT 06492
  
  
 ---------------------------------------------------------------
 Warning -- This program may not be used in any manner that
 competes with the business of Gaussian, Inc. or will provide
 assistance to any competitor of Gaussian, Inc.  The licensee
 of this program is prohibited from giving any competitor of
 Gaussian, Inc. access to this program.  By using this program,
 the user acknowledges that Gaussian, Inc. is engaged in the
 business of creating and licensing software in the field of
 computational chemistry and represents and warrants to the
 licensee that it is not a competitor of Gaussian, Inc. and that
 it will not use this program in any manner prohibited above.
 ---------------------------------------------------------------
  

 Cite this work as:
 Gaussian 09, Revision D.01,
 M. J. Frisch, G. W. Trucks, H. B. Schlegel, G. E. Scuseria, 
 M. A. Robb, J. R. Cheeseman, G. Scalmani, V. Barone, B. Mennucci, 
 G. A. Petersson, H. Nakatsuji, M. Caricato, X. Li, H. P. Hratchian, 
 A. F. Izmaylov, J. Bloino, G. Zheng, J. L. Sonnenberg, M. Hada, 
 M. Ehara, K. Toyota, R. Fukuda, J. Hasegawa, M. Ishida, T. Nakajima, 
 Y. Honda, O. Kitao, H. Nakai, T. Vreven, J. A. Montgomery, Jr., 
 J. E. Peralta, F. Ogliaro, M. Bearpark, J. J. Heyd, E. Brothers, 
 K. N. Kudin, V. N. Staroverov, T. Keith, R. Kobayashi, J. Normand, 
 K. Raghavachari, A. Rendell, J. C. Burant, S. S. Iyengar, J. Tomasi, 
 M. Cossi, N. Rega, J. M. Millam, M. Klene, J. E. Knox, J. B. Cross, 
 V. Bakken, C. Adamo, J. Jaramillo, R. Gomperts, R. E. Stratmann, 
 O. Yazyev, A. J. Austin, R. Cammi, C. Pomelli, J. W. Ochterski, 
 R. L. Martin, K. Morokuma, V. G. Zakrzewski, G. A. Voth, 
 P. Salvador, J. J. Dannenberg, S. Dapprich, A. D. Daniels, 
 O. Farkas, J. B. Foresman, J. V. Ortiz, J. Cioslowski, 
 and D. J. Fox, Gaussian, Inc., Wallingford CT, 2013.
 
 ******************************************
 Gaussian 09:  AM64L-G09RevD.01 24-Apr-2013
                16-Jan-2014 
 ******************************************
 %mem=1800mb
 -----------------------------------------
 # hf/gen pop=mk iop(6/33=2,6/41=5,6/42=2)
 -----------------------------------------
 1/38=1/1;
 2/12=2,17=6,18=5,40=1/2;
 3/5=7,11=9,16=1,25=1,30=1/1,2,3;
 4//1;
 5/5=2,38=5/2;
 6/7=2,8=2,9=2,10=2,15=8,20=1,28=1,33=2,41=5,42=2/1,2;
 99/5=1,9=1/99;
 -------
 na resp
 -------
 Symbolic Z-matrix:
 Charge =  0 Multiplicity = 1
 6                     0.81707   1.26182  -0.21465 
 6                     2.17422   1.14284  -0.50902 
 6                     2.8808    0.04354  -0.02127 
 6                     2.24929  -0.92567   0.75483 
 6                     0.88912  -0.78828   1.03682 
 6                     0.14918   0.30106   0.55896 
 6                    -1.3327    0.42707   0.83108 
 6                    -2.20381  -0.07926  -0.33871 
 1                    -1.9122    0.46201  -1.24888 
 6                    -3.69264   0.27466  -0.11205 
 8                    -4.05502   1.28593   0.44184 
 8                    -4.54166  -0.63001  -0.62187 
 7                    -2.09959  -1.51401  -0.65394 
 17                    4.59407  -0.11663  -0.38453 
 1                     0.2701    2.12481  -0.58796 
 1                     2.68133   1.89552  -1.10339 
 1                     2.81288  -1.77029   1.13684 
 1                     0.4027   -1.53875   1.65609 
 1                    -1.60205  -0.13312   1.73637 
 1                    -1.60991   1.46882   1.01863 
 1                    -1.25959  -1.71     -1.19296 
 1                    -2.03149  -2.06236   0.20331 
 1                    -3.96366  -1.34984  -0.97928 
 
                          Input orientation:                          
 ---------------------------------------------------------------------
 Center     Atomic      Atomic             Coordinates (Angstroms)
 Number     Number       Type             X           Y           Z
 ---------------------------------------------------------------------
      1          6           0        0.817067    1.261819   -0.214645
      2          6           0        2.174225    1.142842   -0.509024
      3          6           0        2.880799    0.043537   -0.021266
      4          6           0        2.249290   -0.925666    0.754834
      5          6           0        0.889117   -0.788284    1.036815
      6          6           0        0.149183    0.301062    0.558961
      7          6           0       -1.332699    0.427072    0.831080
      8          6           0       -2.203811   -0.079259   -0.338712
      9          1           0       -1.912202    0.462014   -1.248879
     10          6           0       -3.692643    0.274658   -0.112048
     11          8           0       -4.055021    1.285925    0.441840
     12          8           0       -4.541655   -0.630009   -0.621869
     13          7           0       -2.099587   -1.514006   -0.653939
     14         17           0        4.594074   -0.116634   -0.384525
     15          1           0        0.270095    2.124812   -0.587955
     16          1           0        2.681332    1.895520   -1.103390
     17          1           0        2.812882   -1.770287    1.136836
     18          1           0        0.402697   -1.538754    1.656093
     19          1           0       -1.602051   -0.133122    1.736366
     20          1           0       -1.609912    1.468824    1.018626
     21          1           0       -1.259585   -1.710004   -1.192964
     22          1           0       -2.031486   -2.062361    0.203305
     23          1           0       -3.963662   -1.349837   -0.979275
 ---------------------------------------------------------------------
                    Distance matrix (angstroms):
                    1          2          3          4          5
     1  C    0.000000
     2  C    1.393805   0.000000
     3  C    2.404287   1.394857   0.000000
     4  C    2.788592   2.425221   1.393014   0.000000
     5  C    2.402970   2.787538   2.403801   1.395872   0.000000
     6  C    1.402708   2.439258   2.804409   2.440016   1.400900
     7  C    2.532161   3.821874   4.315919   3.829668   2.540843
     8  C    3.307505   4.548597   5.095990   4.662870   3.458467
     9  H    3.026258   4.208301   4.965382   4.822711   3.825576
    10  C    4.617629   5.944028   6.578130   6.123629   4.841720
    11  O    4.916177   6.303025   7.061416   6.688306   5.394519
    12  O    5.697433   6.946854   7.477113   6.935392   5.680631
    13  N    4.050315   5.034413   5.256468   4.609069   3.509654
    14  Cl   4.024273   2.730833   1.758671   2.729594   4.024677
    15  H    1.087794   2.143876   3.386535   3.876301   3.392520
    16  H    2.160308   1.084874   2.154210   3.405693   3.872379
    17  H    3.873428   3.406326   2.153084   1.084871   2.162222
    18  H    3.393313   3.875177   3.384992   2.144307   1.087803
    19  H    3.406528   4.574945   4.818342   4.052698   2.669181
    20  H    2.730208   4.093858   4.824863   4.549353   3.367494
    21  H    3.755173   4.516365   4.646565   4.089169   3.230852
    22  H    4.397625   5.335611   5.349372   4.463329   3.293620
    23  H    5.500980   6.641404   7.050242   6.464351   5.284830
                    6          7          8          9         10
     6  C    0.000000
     7  C    1.511920   0.000000
     8  C    2.546967   1.543898   0.000000
     9  H    2.746543   2.159462   1.098370   0.000000
    10  C    3.900074   2.545988   1.547015   2.120721   0.000000
    11  O    4.319607   2.881002   2.428985   2.851146   1.208623
    12  O    4.925973   3.677755   2.418474   2.915421   1.341328
    13  N    3.134097   2.561481   1.472661   2.072130   2.455767
    14  Cl   4.563079   6.074533   6.798142   6.588897   8.300424
    15  H    2.157800   2.732202   3.322689   2.822080   4.399187
    16  H    3.423081   4.691584   5.324388   4.814214   6.651128
    17  H    3.423407   4.701884   5.495819   5.744669   6.932775
    18  H    2.157056   2.748948   3.592110   4.219087   4.815246
    19  H    2.154442   1.098140   2.161242   3.059750   2.820194
    20  H    2.160874   1.094197   2.142812   2.499325   2.653719
    21  H    3.016331   2.944349   2.068970   2.268633   3.320698
    22  H    3.235363   2.660767   2.063049   2.914710   2.884536
    23  H    4.691176   3.654690   2.263132   2.750269   1.861322
                   11         12         13         14         15
    11  O    0.000000
    12  O    2.244792   0.000000
    13  N    3.586651   2.597340   0.000000
    14  Cl   8.800960   9.153220   6.843269   0.000000
    15  H    4.524471   5.544648   4.342896   4.874655   0.000000
    16  H    6.938140   7.666922   5.889317   2.867771   2.476351
    17  H    7.549274   7.647385   5.234970   2.867360   4.961095
    18  H    5.415207   5.519198   3.405626   4.873827   4.298261
    19  H    3.115534   3.801242   2.804985   6.549077   3.742414
    20  H    2.518867   3.961242   3.454639   6.555300   2.558486
    21  H    4.411648   3.502074   1.017136   6.120272   4.172741
    22  H    3.919517   3.005577   1.019901   6.930328   4.843117
    23  H    2.995856   0.989933   1.899361   8.666566   5.490994
                   16         17         18         19         20
    16  H    0.000000
    17  H    4.298146   0.000000
    18  H    4.959956   2.476333   0.000000
    19  H    5.525122   4.746723   2.449747   0.000000
    20  H    4.806225   5.483331   3.674573   1.755404   0.000000
    21  H    5.342158   4.692184   3.302973   3.344371   3.888291
    22  H    6.291496   4.942134   2.882708   2.501330   3.648526
    23  H    7.396194   7.111698   5.103523   3.798988   4.180502
                   21         22         23
    21  H    0.000000
    22  H    1.633877   0.000000
    23  H    2.736314   2.374761   0.000000
 Stoichiometry    C9H10ClNO2
 Framework group  C1[X(C9H10ClNO2)]
 Deg. of freedom    63
 Full point group                 C1      NOp   1
 Largest Abelian subgroup         C1      NOp   1
 Largest concise Abelian subgroup C1      NOp   1
                         Standard orientation:                         
 ---------------------------------------------------------------------
 Center     Atomic      Atomic             Coordinates (Angstroms)
 Number     Number       Type             X           Y           Z
 ---------------------------------------------------------------------
      1          6           0       -0.817067   -1.261819   -0.214645
      2          6           0       -2.174225   -1.142842   -0.509024
      3          6           0       -2.880799   -0.043537   -0.021266
      4          6           0       -2.249290    0.925666    0.754834
      5          6           0       -0.889117    0.788284    1.036815
      6          6           0       -0.149183   -0.301062    0.558961
      7          6           0        1.332699   -0.427072    0.831080
      8          6           0        2.203811    0.079259   -0.338712
      9          1           0        1.912202   -0.462014   -1.248879
     10          6           0        3.692643   -0.274658   -0.112048
     11          8           0        4.055021   -1.285925    0.441840
     12          8           0        4.541655    0.630009   -0.621869
     13          7           0        2.099587    1.514006   -0.653939
     14         17           0       -4.594074    0.116634   -0.384525
     15          1           0       -0.270095   -2.124812   -0.587955
     16          1           0       -2.681332   -1.895520   -1.103390
     17          1           0       -2.812882    1.770287    1.136836
     18          1           0       -0.402697    1.538754    1.656093
     19          1           0        1.602051    0.133122    1.736366
     20          1           0        1.609912   -1.468824    1.018626
     21          1           0        1.259585    1.710004   -1.192964
     22          1           0        2.031486    2.062361    0.203305
     23          1           0        3.963662    1.349837   -0.979275
 ---------------------------------------------------------------------
 Rotational constants (GHZ):      2.3135829      0.2543361      0.2448951
 General basis read from cards:  (5D, 7F)
 There are   219 symmetry adapted cartesian basis functions of A   symmetry.
 There are   206 symmetry adapted basis functions of A   symmetry.
   206 basis functions,   428 primitive gaussians,   219 cartesian basis functions
    52 alpha electrons       52 beta electrons
       nuclear repulsion energy       828.9490264363 Hartrees.
 NAtoms=   23 NActive=   23 NUniq=   23 SFac= 1.00D+00 NAtFMM=   60 NAOKFM=F Big=F
 Integral buffers will be    131072 words long.
 Raffenetti 1 integral format.
 Two-electron integral symmetry is turned on.
 One-electron integrals computed using PRISM.
 NBasis=   206 RedAO= T EigKep=  4.56D-04  NBF=   206
 NBsUse=   206 1.00D-06 EigRej= -1.00D+00 NBFU=   206
 ExpMin= 1.43D-01 ExpMax= 2.52D+04 ExpMxC= 3.78D+03 IAcc=1 IRadAn=         1 AccDes= 0.00D+00
 Harris functional with IExCor=  205 and IRadAn=       1 diagonalized for initial guess.
 HarFok:  IExCor=  205 AccDes= 0.00D+00 IRadAn=         1 IDoV= 1 UseB2=F ITyADJ=14
 ICtDFT=  3500011 ScaDFX=  1.000000  1.000000  1.000000  1.000000
 FoFCou: FMM=F IPFlag=           0 FMFlag=      100000 FMFlg1=           0
         NFxFlg=           0 DoJE=T BraDBF=F KetDBF=T FulRan=T
         wScrn=  0.000000 ICntrl=     500 IOpCl=  0 I1Cent=   200000004 NGrid=           0
         NMat0=    1 NMatS0=      1 NMatT0=    0 NMatD0=    1 NMtDS0=    0 NMtDT0=    0
 Petite list used in FoFCou.
 Keep R1 ints in memory in canonical form, NReq=232792457.
 Requested convergence on RMS density matrix=1.00D-08 within 128 cycles.
 Requested convergence on MAX density matrix=1.00D-06.
 Requested convergence on             energy=1.00D-06.
 No special actions if energy rises.
 SCF Done:  E(RHF) =  -1010.30045736     A.U. after   15 cycles
            NFock= 15  Conv=0.58D-08     -V/T= 2.0006

 **********************************************************************

            Population analysis using the SCF density.

 **********************************************************************

 Orbital symmetries:
 BldTbl:  Degeneracy threshold= 1.00D-02
       Occupied  (A) (A) (A) (A) (A) (A) (A) (A) (A) (A) (A) (A)
                 (A) (A) (A) (A) (A) (A) (A) (A) (A) (A) (A) (A)
                 (A) (A) (A) (A) (A) (A) (A) (A) (A) (A) (A) (A)
                 (A) (A) (A) (A) (A) (A) (A) (A) (A) (A) (A) (A)
                 (A) (A) (A) (A)
       Virtual   (A) (A) (A) (A) (A) (A) (A) (A) (A) (A) (A) (A)
                 (A) (A) (A) (A) (A) (A) (A) (A) (A) (A) (A) (A)
                 (A) (A) (A) (A) (A) (A) (A) (A) (A) (A) (A) (A)
                 (A) (A) (A) (A) (A) (A) (A) (A) (A) (A) (A) (A)
                 (A) (A) (A) (A) (A) (A) (A) (A) (A) (A) (A) (A)
                 (A) (A) (A) (A) (A) (A) (A) (A) (A) (A) (A) (A)
                 (A) (A) (A) (A) (A) (A) (A) (A) (A) (A) (A) (A)
                 (A) (A) (A) (A) (A) (A) (A) (A) (A) (A) (A) (A)
                 (A) (A) (A) (A) (A) (A) (A) (A) (A) (A) (A) (A)
                 (A) (A) (A) (A) (A) (A) (A) (A) (A) (A) (A) (A)
                 (A) (A) (A) (A) (A) (A) (A) (A) (A) (A) (A) (A)
                 (A) (A) (A) (A) (A) (A) (A) (A) (A) (A) (A) (A)
                 (A) (A) (A) (A) (A) (A) (A) (A) (A) (A)
 The electronic state is 1-A.
 Alpha  occ. eigenvalues -- -104.82854 -20.59987 -20.54611 -15.59205 -11.38400
 Alpha  occ. eigenvalues --  -11.31545 -11.30032 -11.26789 -11.26471 -11.26414
 Alpha  occ. eigenvalues --  -11.26168 -11.26011 -11.25371 -10.56696  -8.03553
 Alpha  occ. eigenvalues --   -8.03221  -8.03217  -1.44971  -1.35442  -1.22923
 Alpha  occ. eigenvalues --   -1.19773  -1.13398  -1.05841  -1.04199  -0.99026
 Alpha  occ. eigenvalues --   -0.90434  -0.85962  -0.81419  -0.80015  -0.74889
 Alpha  occ. eigenvalues --   -0.69950  -0.69041  -0.66889  -0.66239  -0.65413
 Alpha  occ. eigenvalues --   -0.62800  -0.61331  -0.61081  -0.59047  -0.58146
 Alpha  occ. eigenvalues --   -0.55575  -0.54566  -0.53765  -0.51472  -0.50948
 Alpha  occ. eigenvalues --   -0.47275  -0.46433  -0.46105  -0.46025  -0.42434
 Alpha  occ. eigenvalues --   -0.36172  -0.33961
 Alpha virt. eigenvalues --    0.11075   0.11408   0.16618   0.18163   0.21120
 Alpha virt. eigenvalues --    0.23405   0.25068   0.26962   0.28006   0.29211
 Alpha virt. eigenvalues --    0.29939   0.30956   0.31803   0.33276   0.33405
 Alpha virt. eigenvalues --    0.37927   0.39293   0.42372   0.43746   0.44661
 Alpha virt. eigenvalues --    0.44913   0.49519   0.49896   0.53402   0.58093
 Alpha virt. eigenvalues --    0.60095   0.60411   0.61545   0.63038   0.64716
 Alpha virt. eigenvalues --    0.69967   0.72552   0.73837   0.75699   0.77056
 Alpha virt. eigenvalues --    0.77951   0.78966   0.79973   0.80608   0.81204
 Alpha virt. eigenvalues --    0.82450   0.82877   0.83602   0.86592   0.88452
 Alpha virt. eigenvalues --    0.90055   0.90975   0.94409   0.95147   0.97069
 Alpha virt. eigenvalues --    0.98896   0.99327   1.00714   1.04431   1.06471
 Alpha virt. eigenvalues --    1.07508   1.08257   1.09127   1.09818   1.10803
 Alpha virt. eigenvalues --    1.10914   1.12678   1.14535   1.14936   1.17156
 Alpha virt. eigenvalues --    1.17838   1.18745   1.19011   1.20931   1.22536
 Alpha virt. eigenvalues --    1.22918   1.23694   1.25573   1.27706   1.31252
 Alpha virt. eigenvalues --    1.32272   1.33562   1.36898   1.37880   1.38141
 Alpha virt. eigenvalues --    1.38949   1.40158   1.42530   1.44396   1.48428
 Alpha virt. eigenvalues --    1.55375   1.60494   1.61187   1.64743   1.66058
 Alpha virt. eigenvalues --    1.67568   1.68575   1.71130   1.72665   1.76362
 Alpha virt. eigenvalues --    1.76644   1.81820   1.82323   1.85177   1.91593
 Alpha virt. eigenvalues --    1.93287   1.99303   2.01568   2.05569   2.07546
 Alpha virt. eigenvalues --    2.08061   2.09259   2.11030   2.13461   2.15162
 Alpha virt. eigenvalues --    2.17537   2.20940   2.23180   2.24631   2.26547
 Alpha virt. eigenvalues --    2.27864   2.28344   2.34028   2.36075   2.37413
 Alpha virt. eigenvalues --    2.38620   2.40957   2.42884   2.43815   2.46010
 Alpha virt. eigenvalues --    2.46934   2.51066   2.57661   2.59129   2.61122
 Alpha virt. eigenvalues --    2.65269   2.67754   2.68758   2.73878   2.77253
 Alpha virt. eigenvalues --    2.80311   2.86142   2.89847   2.91747   2.95646
 Alpha virt. eigenvalues --    2.96574   2.99272   3.02444   3.03800   3.10295
 Alpha virt. eigenvalues --    3.10504   3.11376   3.13296   3.20787   3.26444
 Alpha virt. eigenvalues --    3.38554   3.40495   3.47479   3.74099
          Condensed to atoms (all electrons):
               1          2          3          4          5          6
     1  C    4.931899   0.533935  -0.040721  -0.035020  -0.040155   0.554238
     2  C    0.533935   4.942882   0.524640  -0.044586  -0.035011  -0.038927
     3  C   -0.040721   0.524640   5.038213   0.530179  -0.041283  -0.031363
     4  C   -0.035020  -0.044586   0.530179   4.945365   0.529406  -0.040680
     5  C   -0.040155  -0.035011  -0.041283   0.529406   4.935633   0.556506
     6  C    0.554238  -0.038927  -0.031363  -0.040680   0.556506   4.870529
     7  C   -0.045008   0.002890   0.000023   0.003150  -0.040332   0.299990
     8  C   -0.003753  -0.000063   0.000024  -0.000112  -0.002825  -0.055354
     9  H    0.002220  -0.000030  -0.000003  -0.000018   0.000488  -0.003430
    10  C    0.000000   0.000001   0.000000   0.000000  -0.000037   0.004354
    11  O    0.000001   0.000000   0.000000   0.000000  -0.000004   0.000339
    12  O    0.000000   0.000000   0.000000   0.000000   0.000000  -0.000065
    13  N   -0.000291   0.000007   0.000005  -0.000008   0.002494  -0.004682
    14  Cl   0.002333  -0.064249   0.217551  -0.064798   0.002375   0.000261
    15  H    0.381778  -0.028199   0.002377   0.000141   0.002553  -0.032499
    16  H   -0.024699   0.381134  -0.028990   0.001981   0.000213   0.001740
    17  H    0.000188   0.001994  -0.028709   0.381072  -0.025052   0.001805
    18  H    0.002658   0.000137   0.002452  -0.029039   0.381673  -0.033614
    19  H    0.002412  -0.000053  -0.000002   0.000176  -0.000804  -0.047051
    20  H   -0.002112   0.000110   0.000000  -0.000041   0.001752  -0.041744
    21  H    0.000148  -0.000029  -0.000028   0.000028   0.001656   0.003321
    22  H   -0.000013  -0.000002   0.000000   0.000019   0.001294  -0.001056
    23  H    0.000000   0.000000   0.000000   0.000000  -0.000001  -0.000009
               7          8          9         10         11         12
     1  C   -0.045008  -0.003753   0.002220   0.000000   0.000001   0.000000
     2  C    0.002890  -0.000063  -0.000030   0.000001   0.000000   0.000000
     3  C    0.000023   0.000024  -0.000003   0.000000   0.000000   0.000000
     4  C    0.003150  -0.000112  -0.000018   0.000000   0.000000   0.000000
     5  C   -0.040332  -0.002825   0.000488  -0.000037  -0.000004   0.000000
     6  C    0.299990  -0.055354  -0.003430   0.004354   0.000339  -0.000065
     7  C    5.188247   0.313457  -0.034814  -0.050308   0.003934   0.001918
     8  C    0.313457   5.226578   0.392184   0.352495  -0.083203  -0.090660
     9  H   -0.034814   0.392184   0.481805  -0.029505   0.000607   0.000988
    10  C   -0.050308   0.352495  -0.029505   4.072932   0.593598   0.283447
    11  O    0.003934  -0.083203   0.000607   0.593598   8.113841  -0.061879
    12  O    0.001918  -0.090660   0.000988   0.283447  -0.061879   8.417775
    13  N   -0.058337   0.211294  -0.037142  -0.053234   0.001640  -0.022741
    14  Cl   0.000004   0.000000   0.000000   0.000000   0.000000   0.000000
    15  H   -0.001485   0.000196   0.000528  -0.000025   0.000002   0.000000
    16  H   -0.000091   0.000001   0.000003   0.000000   0.000000   0.000000
    17  H   -0.000087   0.000001   0.000000   0.000000   0.000000   0.000000
    18  H   -0.001762   0.000021   0.000014   0.000000   0.000000   0.000000
    19  H    0.402440  -0.042606   0.003549  -0.002863   0.000953   0.000098
    20  H    0.399432  -0.040209   0.000103  -0.001054   0.006558   0.000179
    21  H   -0.001144  -0.029289  -0.005099   0.003578  -0.000049   0.000183
    22  H   -0.000420  -0.038897   0.004203  -0.001068   0.000007   0.001194
    23  H    0.001042  -0.005278  -0.000130  -0.028134   0.002585   0.239570
              13         14         15         16         17         18
     1  C   -0.000291   0.002333   0.381778  -0.024699   0.000188   0.002658
     2  C    0.000007  -0.064249  -0.028199   0.381134   0.001994   0.000137
     3  C    0.000005   0.217551   0.002377  -0.028990  -0.028709   0.002452
     4  C   -0.000008  -0.064798   0.000141   0.001981   0.381072  -0.029039
     5  C    0.002494   0.002375   0.002553   0.000213  -0.025052   0.381673
     6  C   -0.004682   0.000261  -0.032499   0.001740   0.001805  -0.033614
     7  C   -0.058337   0.000004  -0.001485  -0.000091  -0.000087  -0.001762
     8  C    0.211294   0.000000   0.000196   0.000001   0.000001   0.000021
     9  H   -0.037142   0.000000   0.000528   0.000003   0.000000   0.000014
    10  C   -0.053234   0.000000  -0.000025   0.000000   0.000000   0.000000
    11  O    0.001640   0.000000   0.000002   0.000000   0.000000   0.000000
    12  O   -0.022741   0.000000   0.000000   0.000000   0.000000   0.000000
    13  N    7.202086   0.000000   0.000001   0.000000  -0.000002   0.000355
    14  Cl   0.000000  16.905267  -0.000088   0.000400   0.000381  -0.000091
    15  H    0.000001  -0.000088   0.454354  -0.001512   0.000008  -0.000112
    16  H    0.000000   0.000400  -0.001512   0.431293  -0.000094   0.000009
    17  H   -0.000002   0.000381   0.000008  -0.000094   0.433315  -0.001611
    18  H    0.000355  -0.000091  -0.000112   0.000009  -0.001611   0.468908
    19  H   -0.001754   0.000000  -0.000004   0.000002  -0.000005   0.002385
    20  H    0.003468   0.000000   0.001331  -0.000003   0.000001  -0.000015
    21  H    0.328767   0.000000   0.000000   0.000000   0.000000   0.000016
    22  H    0.322651   0.000000  -0.000001   0.000000  -0.000001   0.000551
    23  H    0.035568   0.000000   0.000000   0.000000   0.000000   0.000000
              19         20         21         22         23
     1  C    0.002412  -0.002112   0.000148  -0.000013   0.000000
     2  C   -0.000053   0.000110  -0.000029  -0.000002   0.000000
     3  C   -0.000002   0.000000  -0.000028   0.000000   0.000000
     4  C    0.000176  -0.000041   0.000028   0.000019   0.000000
     5  C   -0.000804   0.001752   0.001656   0.001294  -0.000001
     6  C   -0.047051  -0.041744   0.003321  -0.001056  -0.000009
     7  C    0.402440   0.399432  -0.001144  -0.000420   0.001042
     8  C   -0.042606  -0.040209  -0.029289  -0.038897  -0.005278
     9  H    0.003549   0.000103  -0.005099   0.004203  -0.000130
    10  C   -0.002863  -0.001054   0.003578  -0.001068  -0.028134
    11  O    0.000953   0.006558  -0.000049   0.000007   0.002585
    12  O    0.000098   0.000179   0.000183   0.001194   0.239570
    13  N   -0.001754   0.003468   0.328767   0.322651   0.035568
    14  Cl   0.000000   0.000000   0.000000   0.000000   0.000000
    15  H   -0.000004   0.001331   0.000000  -0.000001   0.000000
    16  H    0.000002  -0.000003   0.000000   0.000000   0.000000
    17  H   -0.000005   0.000001   0.000000  -0.000001   0.000000
    18  H    0.002385  -0.000015   0.000016   0.000551   0.000000
    19  H    0.510127  -0.018255   0.000009   0.003208  -0.000034
    20  H   -0.018255   0.452401  -0.000057   0.000089  -0.000061
    21  H    0.000009  -0.000057   0.337479  -0.022980   0.000137
    22  H    0.003208   0.000089  -0.022980   0.368760  -0.001306
    23  H   -0.000034  -0.000061   0.000137  -0.001306   0.235287
 Mulliken charges:
               1
     1  C   -0.220038
     2  C   -0.176581
     3  C   -0.144364
     4  C   -0.177217
     5  C   -0.230542
     6  C    0.037391
     7  C   -0.382738
     8  C   -0.104002
     9  H    0.223478
    10  C    0.855823
    11  O   -0.578930
    12  O   -0.770008
    13  N   -0.930149
    14  Cl   0.000653
    15  H    0.220657
    16  H    0.238615
    17  H    0.236797
    18  H    0.207066
    19  H    0.188073
    20  H    0.238126
    21  H    0.383355
    22  H    0.363769
    23  H    0.520765
 Sum of Mulliken charges =   0.00000
 Mulliken charges with hydrogens summed into heavy atoms:
               1
     1  C    0.000619
     2  C    0.062034
     3  C   -0.144364
     4  C    0.059580
     5  C   -0.023476
     6  C    0.037391
     7  C    0.043461
     8  C    0.119476
    10  C    0.855823
    11  O   -0.578930
    12  O   -0.249243
    13  N   -0.183024
    14  Cl   0.000653
 DipInt: DoE/N= T F RetVal/Mat= T F Init=T NMatP=  1 IDeriv=0 Min/MaxMlt=  0  4
 Entering OneElI...
 OneElI was handed   235804204 working-precision words.
 Multipole integrals L=0 to 4 MinM= 0 MaxM= 0.
 Requested accuracy = 0.1000D-12
 ShPair: Thresh= 1.00D-13 NBox=     0 BxSize= 0.00D+00 RnKept= 1.73D+01
         NSMCal=                 2701 NSMKep=                2338
 PrsmSu:  NPrtUS=   1 ThrOK=F IAlg=1 NPAlg=1 LenDen=           0.
 Prism:   IPart=     0 DynPar=F LinDyn=F Incr=          23.
 PRISM was handed   235585889 working-precision words and  2338 shell-pairs
 IPart=  0 NShTot=        2338 NBatch=          86 AvBLen=        27.2
 PrSmSu:  NxtVal=             24.
 Electronic moments (au):
       -104.00000000         -1.10637658          1.06811900         -0.22714438
      -3556.99350655       -365.95897067       -211.63275601          6.91078713
         -1.74678715          4.39830129        900.62351020          9.93103786
       -108.54428186       -458.90937660        -72.48200541       1432.51153070
        -65.16740622        -87.41578451         31.87218618        603.43421809
    -214268.56584197      -3423.72890691      -1282.53855753       3981.18373760
      -3036.48505601       -404.23256229        -16.08616296        168.41893352
       -128.90935507      -9249.18398264      -5311.50658200       -893.10937214
       1872.06527235        171.51575572        -22.60578602
 Electronic spatial extent (au):  <R**2>=           4134.5852
 DipInt: DoE/N= F T RetVal/Mat= T F Init=T NMatP=  1 IDeriv=0 Min/MaxMlt=  0  4
 Nuclear    moments (au):
        104.00000000          0.00000000          0.00000000          0.00000000
       3466.76394012        307.38837149        150.98949786          0.00000000
          0.00004349         -0.00002285      -1044.27410600          6.73512034
         99.13265125        451.46570667        125.29778979      -1443.40748058
         82.22577827         94.64452071        -36.68307843       -602.78086687
     199780.56884006       2241.27660939        539.66284507      -3628.54130968
       2976.20582713        488.42232831         56.96407301       -171.98729501
        129.05888764       6988.33334650       3195.00153178        589.66035766
      -1751.77656604       -186.68915370         33.00396574
 Total      moments (au):
          0.00000000         -1.10637658          1.06811900         -0.22714438
        -90.22956644        -58.57059918        -60.64325815          6.91078713
         -1.74674366          4.39827844       -143.65059580         16.66615820
         -9.41163061         -7.44366993         52.81578438        -10.89594988
         17.05837205          7.22873620         -4.81089225          0.65335121
     -14487.99700191      -1182.45229753       -742.87571245        352.64242793
        -60.27922889         84.18976601         40.87791005         -3.56836148
          0.14953257      -2260.85063614      -2116.50505022       -303.44901448
        120.28870631        -15.17339798         10.39817972
 Traceless Quadrup. (au):
        -20.41509185         11.24387541          9.17121644          6.91078713
         -1.74674366          4.39827844
 Charge=              0.0000 electrons
 Dipole moment (field-independent basis, Debye):
    X=             -2.8121    Y=              2.7149    Z=             -0.5773  Tot=              3.9512
 Quadrupole moment (field-independent basis, Debye-Ang):
   XX=           -121.3619   YY=            -78.7795   ZZ=            -81.5673
   XY=              9.2952   XZ=             -2.3494   YZ=              5.9158
 Traceless Quadrupole moment (field-independent basis, Debye-Ang):
   XX=            -27.4590   YY=             15.1234   ZZ=             12.3356
   XY=              9.2952   XZ=             -2.3494   YZ=              5.9158
 Octapole moment (field-independent basis, Debye-Ang**2):
  XXX=           -102.2450  YYY=             11.8623  ZZZ=             -6.6988  XYY=             -5.2981
  XXY=             37.5922  XXZ=             -7.7553  XZZ=             12.1415  YZZ=              5.1451
  YYZ=             -3.4242  XYZ=              0.4650
 Hexadecapole moment (field-independent basis, Debye-Ang**3):
 XXXX=          -5456.8740 YYYY=           -445.3682 ZZZZ=           -279.8026 XXXY=            132.8220
 XXXZ=            -22.7040 YYYX=             31.7099 YYYZ=             15.3966 ZZZX=             -1.3440
 ZZZY=              0.0563 XXYY=           -851.5447 XXZZ=           -797.1772 YYZZ=           -114.2934
 XXYZ=             45.3065 YYXZ=             -5.7150 ZZXY=              3.9165
 N-N= 8.289490264363D+02 E-N=-4.041320389419D+03  KE= 1.009691521804D+03
 Entering OneElI...
 OneElI was handed   235833038 working-precision words.
 Calculate electrostatic properties
    NBasis =   206  MinDer = 0  MaxDer = 0
    NGrid  =    23  NMatD  =   1
 Requested accuracy = 0.1000D-12
 PrtBox:  NBox=     1 Levels=  1 BoxLen=   32.45 SMaxX=       17.26
          Shift=            8.681541            4.015313            2.360039
 Box      1 Number                   0 centers from      1 to     73:
 ShPair: Thresh= 1.00D-13 NBox=     1 BxSize= 3.24D+01 RnKept= 1.73D+01
         NSMCal=                 2701 NSMKep=                2156
 PrsmSu:  NPrtUS=   1 ThrOK=F IAlg=1 NPAlg=1 LenDen=           0.
 Prism:   IPart=     0 DynPar=F LinDyn=F Incr=         495.
 PRISM was handed   235632559 working-precision words and  2156 shell-pairs
 IPart=  0 NShTot=       49588 NBatch=        2157 AvBLen=        23.0
 PrSmSu:  NxtVal=            496.
 --------------------------------------------------------
       Center         ----      EFG at Nuclei      ----
                      3XX-RR        3YY-RR        3ZZ-RR
 --------------------------------------------------------
     1   Atom        0.142428      0.025935     -0.168363
     2   Atom        0.161639      0.009777     -0.171417
     3   Atom       -0.278273      0.252609      0.025664
     4   Atom        0.159205      0.012382     -0.171587
     5   Atom        0.147575      0.018172     -0.165747
     6   Atom        0.120899      0.054096     -0.174995
     7   Atom       -0.051296      0.082890     -0.031594
     8   Atom        0.052488     -0.175802      0.123314
     9   Atom        0.111696      0.033792     -0.145489
    10   Atom        0.268552      0.082918     -0.351470
    11   Atom        1.519813     -0.686548     -0.833266
    12   Atom        0.216976     -0.790683      0.573707
    13   Atom        0.503452     -0.455908     -0.047544
    14   Atom       -3.383719      1.812613      1.571106
    15   Atom        0.027773     -0.132916      0.105143
    16   Atom        0.046581     -0.069695      0.023114
    17   Atom        0.023700     -0.126013      0.102313
    18   Atom        0.050538     -0.064868      0.014330
    19   Atom        0.113244      0.032128     -0.145373
    20   Atom        0.119118     -0.251033      0.131915
    21   Atom       -0.187292      0.149300      0.037993
    22   Atom        0.202513      0.017272     -0.219785
    23   Atom        0.008296     -0.121258      0.112962
 --------------------------------------------------------
                        XY            XZ            YZ
 --------------------------------------------------------
     1   Atom       -0.034726      0.105157      0.198165
     2   Atom       -0.043640      0.101388      0.188219
     3   Atom        0.003710     -0.045005      0.218509
     4   Atom       -0.066663      0.087745      0.183936
     5   Atom       -0.082958      0.072562      0.190491
     6   Atom       -0.050746      0.075421      0.231491
     7   Atom       -0.027088      0.018862      0.011600
     8   Atom        0.056796      0.002369      0.051919
     9   Atom       -0.054020     -0.094621     -0.170388
    10   Atom       -0.164756      0.077678     -0.336296
    11   Atom        0.575587     -0.368792     -0.125630
    12   Atom       -0.222398      0.154787      1.041214
    13   Atom        0.334145     -0.592057     -0.196339
    14   Atom        0.480811     -1.096871      0.156515
    15   Atom        0.180122      0.072733     -0.131754
    16   Atom       -0.142380     -0.118903     -0.182069
    17   Atom        0.183895      0.077691     -0.134802
    18   Atom       -0.136491     -0.118554     -0.185941
    19   Atom       -0.056822     -0.083395     -0.185330
    20   Atom        0.096334     -0.016177      0.070852
    21   Atom        0.098492     -0.269021      0.041339
    22   Atom        0.040084      0.015521     -0.251769
    23   Atom        0.192515     -0.096948      0.161135
 --------------------------------------------------------


 ---------------------------------------------------------------------------------
              Nuclear Quadrupole Coupling Constant in Principal Axis System
 ---------------------------------------------------------------------------------

       Atom             a.u.   MegaHertz   Gauss  10(-4) cm-1        Axes

              Baa    -0.5614     2.696     0.962     0.899 -0.2710  0.9610  0.0549
    13 N(14)  Bbb    -0.4237     2.035     0.726     0.679  0.5111  0.0953  0.8542
              Bcc     0.9851    -4.731    -1.688    -1.578  0.8157  0.2596 -0.5170
 
              Baa    -3.6619   -70.252   -25.068   -23.434  0.9741 -0.0915  0.2069
    14 Cl(35) Bbb     1.7707    33.970    12.121    11.331 -0.2241 -0.5162  0.8266
              Bcc     1.8912    36.282    12.946    12.102 -0.0312  0.8516  0.5233
 

 ---------------------------------------------------------------------------------

 No NMR shielding tensors so no spin-rotation constants.
 Leave Link  601 at Thu Jan 16 21:47:22 2014, MaxMem=   235929600 cpu:         0.3
 FitSet:  NAtFit=    23 NAtPot=    23 NAtFrz=     0 MDM=    27 TotChg=   0.00000
 Merz-Kollman atomic radii used.
 Atom Element Radius
    1     6    1.50
    2     6    1.50
    3     6    1.50
    4     6    1.50
    5     6    1.50
    6     6    1.50
    7     6    1.50
    8     6    1.50
    9     1    1.20
   10     6    1.50
   11     8    1.40
   12     8    1.40
   13     7    1.50
   14    17    1.70
   15     1    1.20
   16     1    1.20
   17     1    1.20
   18     1    1.20
   19     1    1.20
   20     1    1.20
   21     1    1.20
   22     1    1.20
   23     1    1.20
 Generate VDW surfaces: Layer= 5 Dens= 2 Start= 1.400 Inc= 0.179

 **********************************************************************

            Electrostatic Properties Using The SCF Density

 **********************************************************************

       Atomic Center    1 is at  -0.817067 -1.261819 -0.214645
       Atomic Center    2 is at  -2.174225 -1.142842 -0.509024
       Atomic Center    3 is at  -2.880799 -0.043537 -0.021266
       Atomic Center    4 is at  -2.249290  0.925666  0.754834
       Atomic Center    5 is at  -0.889117  0.788284  1.036815
       Atomic Center    6 is at  -0.149183 -0.301062  0.558961
       Atomic Center    7 is at   1.332699 -0.427072  0.831080
       Atomic Center    8 is at   2.203811  0.079259 -0.338712
       Atomic Center    9 is at   1.912202 -0.462014 -1.248879
       Atomic Center   10 is at   3.692643 -0.274658 -0.112048
       Atomic Center   11 is at   4.055021 -1.285925  0.441840
       Atomic Center   12 is at   4.541655  0.630009 -0.621869
       Atomic Center   13 is at   2.099587  1.514006 -0.653939
       Atomic Center   14 is at  -4.594074  0.116634 -0.384525
       Atomic Center   15 is at  -0.270095 -2.124812 -0.587955
       Atomic Center   16 is at  -2.681332 -1.895520 -1.103390
       Atomic Center   17 is at  -2.812882  1.770287  1.136836
       Atomic Center   18 is at  -0.402697  1.538754  1.656093
       Atomic Center   19 is at   1.602051  0.133122  1.736366
       Atomic Center   20 is at   1.609912 -1.468824  1.018626
       Atomic Center   21 is at   1.259585  1.710004 -1.192964
       Atomic Center   22 is at   2.031486  2.062361  0.203305
       Atomic Center   23 is at   3.963662  1.349837 -0.979275
      ESP Fit Center   24 is at  -1.176188 -1.883835  1.758709
      ESP Fit Center   25 is at  -1.701033 -2.281971  1.394048
      ESP Fit Center   26 is at  -1.009171 -2.597933  1.394048
      ESP Fit Center   27 is at  -0.256317 -2.489689  1.394048
      ESP Fit Center   28 is at  -1.726393 -2.836819  0.835355
      ESP Fit Center   29 is at  -1.007168 -3.070510  0.835355
      ESP Fit Center   30 is at  -1.383028 -3.250967  0.150016
      ESP Fit Center   31 is at  -1.007168  0.546872 -1.264645
      ESP Fit Center   32 is at   0.532787 -1.261819 -1.823338
      ESP Fit Center   33 is at   0.318503 -0.532033 -1.823338
      ESP Fit Center   34 is at  -0.256317 -0.033949 -1.823338
      ESP Fit Center   35 is at  -1.009171  0.074295 -1.823338
      ESP Fit Center   36 is at  -0.098825 -1.261819 -2.188000
      ESP Fit Center   37 is at  -0.457946 -0.639803 -2.188000
      ESP Fit Center   38 is at  -0.817067 -1.261819 -2.314645
      ESP Fit Center   39 is at  -2.533346 -1.764858  1.464330
      ESP Fit Center   40 is at  -3.058191 -2.162994  1.099669
      ESP Fit Center   41 is at  -2.366329 -2.478956  1.099669
      ESP Fit Center   42 is at  -3.645546 -2.211820  0.540976
      ESP Fit Center   43 is at  -3.083551 -2.717842  0.540976
      ESP Fit Center   44 is at  -2.364326 -2.951533  0.540976
      ESP Fit Center   45 is at  -1.983405 -3.202116 -0.144363
      ESP Fit Center   46 is at  -1.613475  0.085028 -2.117717
      ESP Fit Center   47 is at  -2.366329  0.193272 -2.117717
      ESP Fit Center   48 is at  -1.455983 -1.142842 -2.482379
      ESP Fit Center   49 is at  -1.815104 -0.520826 -2.482379
      ESP Fit Center   50 is at  -2.533346 -0.520826 -2.482379
      ESP Fit Center   51 is at  -2.174225 -1.142842 -2.609024
      ESP Fit Center   52 is at  -3.239920 -0.665553  1.952088
      ESP Fit Center   53 is at  -3.764765 -1.063689  1.587427
      ESP Fit Center   54 is at  -3.072903 -1.379651  1.587427
      ESP Fit Center   55 is at  -2.320049 -1.271407  1.587427
      ESP Fit Center   56 is at  -1.219376  0.696176 -1.071266
      ESP Fit Center   57 is at  -1.745229  0.686249 -1.629959
      ESP Fit Center   58 is at  -2.320049  1.184333 -1.629959
      ESP Fit Center   59 is at  -2.521678  0.578479 -1.994621
      ESP Fit Center   60 is at  -2.249290  0.925666  2.854834
      ESP Fit Center   61 is at  -1.890169  1.547682  2.728188
      ESP Fit Center   62 is at  -2.967532  0.925666  2.728188
      ESP Fit Center   63 is at  -2.608411  0.303650  2.728188
      ESP Fit Center   64 is at  -3.544465  0.545368  2.363527
      ESP Fit Center   65 is at  -3.133256 -0.094486  2.363527
      ESP Fit Center   66 is at  -2.441394 -0.410448  2.363527
      ESP Fit Center   67 is at  -1.327460  2.776950  0.390173
      ESP Fit Center   68 is at  -1.687295  2.655308 -0.295166
      ESP Fit Center   69 is at  -2.439391  2.734357 -0.295166
      ESP Fit Center   70 is at  -1.688540  2.153536 -0.853859
      ESP Fit Center   71 is at  -2.441394  2.261780 -0.853859
      ESP Fit Center   72 is at  -3.133256  1.945818 -0.853859
      ESP Fit Center   73 is at  -1.890169  1.547682 -1.218521
      ESP Fit Center   74 is at  -0.889117  0.788284  3.136815
      ESP Fit Center   75 is at  -1.607359  0.788284  3.010169
      ESP Fit Center   76 is at  -1.248238  0.166268  3.010169
      ESP Fit Center   77 is at  -0.529996  0.166268  3.010169
      ESP Fit Center   78 is at  -1.773083  1.808436  2.645508
      ESP Fit Center   79 is at  -1.773083 -0.231868  2.645508
      ESP Fit Center   80 is at  -1.081221 -0.547830  2.645508
      ESP Fit Center   81 is at  -1.798444 -0.786716  2.086815
      ESP Fit Center   82 is at  -0.327122  2.517926 -0.013185
      ESP Fit Center   83 is at  -1.079218  2.596975 -0.013185
      ESP Fit Center   84 is at  -0.328367  2.016154 -0.571878
      ESP Fit Center   85 is at  -1.081221  2.124398 -0.571878
      ESP Fit Center   86 is at  -0.529996  1.410300 -0.936540
      ESP Fit Center   87 is at  -0.508304 -0.923078  2.532315
      ESP Fit Center   88 is at  -1.033149 -1.321214  2.167654
      ESP Fit Center   89 is at  -0.341287 -1.637176  2.167654
      ESP Fit Center   90 is at  -0.341287  1.035052 -1.049732
      ESP Fit Center   91 is at   0.209938  0.320954 -1.414394
      ESP Fit Center   92 is at   0.973578 -1.049088  2.804434
      ESP Fit Center   93 is at   0.448733 -1.447224  2.439773
      ESP Fit Center   94 is at   2.468269 -1.156858  2.439773
      ESP Fit Center   95 is at   2.394631 -1.980015 -0.703373
      ESP Fit Center   96 is at   2.109627 -2.087951 -0.875044
      ESP Fit Center   97 is at   0.321917 -0.070044 -1.622714
      ESP Fit Center   98 is at   1.331402 -1.993457 -1.622714
      ESP Fit Center   99 is at   2.109627 -2.087951 -1.622714
      ESP Fit Center  100 is at   2.842623 -1.809962 -1.622714
      ESP Fit Center  101 is at   3.225679 -0.462014 -2.296342
      ESP Fit Center  102 is at   2.974827  0.310028 -2.296342
      ESP Fit Center  103 is at   0.849577  0.310028 -2.296342
      ESP Fit Center  104 is at   0.598725 -0.462014 -2.296342
      ESP Fit Center  105 is at   0.849577 -1.234056 -2.296342
      ESP Fit Center  106 is at   1.506315 -1.711205 -2.296342
      ESP Fit Center  107 is at   2.318089 -1.711205 -2.296342
      ESP Fit Center  108 is at   2.974827 -1.234056 -2.296342
      ESP Fit Center  109 is at   2.641127 -0.462014 -2.762507
      ESP Fit Center  110 is at   2.276665  0.169253 -2.762507
      ESP Fit Center  111 is at   1.547740  0.169253 -2.762507
      ESP Fit Center  112 is at   1.183277 -0.462014 -2.762507
      ESP Fit Center  113 is at   1.547740 -1.093281 -2.762507
      ESP Fit Center  114 is at   2.276665 -1.093281 -2.762507
      ESP Fit Center  115 is at   1.912202 -0.462014 -2.928879
      ESP Fit Center  116 is at   4.051764  0.347358  1.861306
      ESP Fit Center  117 is at   3.333522  0.347358  1.861306
      ESP Fit Center  118 is at   4.828213  0.455128  1.496645
      ESP Fit Center  119 is at   4.253393  0.953212  1.496645
      ESP Fit Center  120 is at   3.500539  1.061456  1.496645
      ESP Fit Center  121 is at   3.502542  1.534033  0.937952
      ESP Fit Center  122 is at   3.500539 -1.610772 -1.720741
      ESP Fit Center  123 is at   4.253393 -1.502528 -1.720741
      ESP Fit Center  124 is at   4.828213 -1.004444 -1.720741
      ESP Fit Center  125 is at   3.333522 -0.896674 -2.085403
      ESP Fit Center  126 is at   4.051764 -0.896674 -2.085403
      ESP Fit Center  127 is at   3.692643 -0.274658 -2.212048
      ESP Fit Center  128 is at   4.055021 -1.285925  2.401840
      ESP Fit Center  129 is at   4.805081 -1.285925  2.252644
      ESP Fit Center  130 is at   4.430051 -0.636354  2.252644
      ESP Fit Center  131 is at   3.679991 -0.636354  2.252644
      ESP Fit Center  132 is at   3.304962 -1.285925  2.252644
      ESP Fit Center  133 is at   3.679991 -1.935496  2.252644
      ESP Fit Center  134 is at   4.430051 -1.935496  2.252644
      ESP Fit Center  135 is at   5.440950 -1.285925  1.827769
      ESP Fit Center  136 is at   5.255271 -0.592960  1.827769
      ESP Fit Center  137 is at   4.747986 -0.085675  1.827769
      ESP Fit Center  138 is at   3.362057 -2.486175  1.827769
      ESP Fit Center  139 is at   4.055021 -2.671854  1.827769
      ESP Fit Center  140 is at   4.747986 -2.486175  1.827769
      ESP Fit Center  141 is at   5.255271 -1.978890  1.827769
      ESP Fit Center  142 is at   5.865825 -1.285925  1.191899
      ESP Fit Center  143 is at   5.709273 -0.549405  1.191899
      ESP Fit Center  144 is at   3.149619 -2.854127  1.191899
      ESP Fit Center  145 is at   3.865741 -3.086809  1.191899
      ESP Fit Center  146 is at   4.614590 -3.008102  1.191899
      ESP Fit Center  147 is at   5.266685 -2.631614  1.191899
      ESP Fit Center  148 is at   5.709273 -2.022445  1.191899
      ESP Fit Center  149 is at   6.015021 -1.285925  0.441840
      ESP Fit Center  150 is at   5.882667 -0.577891  0.441840
      ESP Fit Center  151 is at   2.873857 -2.850039  0.441840
      ESP Fit Center  152 is at   3.518642 -3.171103  0.441840
      ESP Fit Center  153 is at   4.235867 -3.237564  0.441840
      ESP Fit Center  154 is at   4.928668 -3.040445  0.441840
      ESP Fit Center  155 is at   5.503479 -2.606368  0.441840
      ESP Fit Center  156 is at   5.882667 -1.993959  0.441840
      ESP Fit Center  157 is at   5.865825 -1.285925 -0.308220
      ESP Fit Center  158 is at   2.590050 -2.350289 -0.308220
      ESP Fit Center  159 is at   3.149619 -2.854127 -0.308220
      ESP Fit Center  160 is at   3.865741 -3.086809 -0.308220
      ESP Fit Center  161 is at   4.614590 -3.008102 -0.308220
      ESP Fit Center  162 is at   5.266685 -2.631614 -0.308220
      ESP Fit Center  163 is at   5.709273 -2.022445 -0.308220
      ESP Fit Center  164 is at   5.440950 -1.285925 -0.944089
      ESP Fit Center  165 is at   3.362057 -2.486175 -0.944089
      ESP Fit Center  166 is at   4.055021 -2.671854 -0.944089
      ESP Fit Center  167 is at   4.747986 -2.486175 -0.944089
      ESP Fit Center  168 is at   5.255271 -1.978890 -0.944089
      ESP Fit Center  169 is at   4.430051 -1.935496 -1.368964
      ESP Fit Center  170 is at   5.291715  0.630009  1.188935
      ESP Fit Center  171 is at   4.916685  1.279580  1.188935
      ESP Fit Center  172 is at   5.927584  0.630009  0.764060
      ESP Fit Center  173 is at   5.741905  1.322974  0.764060
      ESP Fit Center  174 is at   5.234620  1.830259  0.764060
      ESP Fit Center  175 is at   4.541655  2.015938  0.764060
      ESP Fit Center  176 is at   3.848691  1.830259  0.764060
      ESP Fit Center  177 is at   5.741905 -0.062956  0.764060
      ESP Fit Center  178 is at   6.352459  0.630009  0.128190
      ESP Fit Center  179 is at   6.195907  1.366529  0.128190
      ESP Fit Center  180 is at   5.753319  1.975699  0.128190
      ESP Fit Center  181 is at   5.101224  2.352186  0.128190
      ESP Fit Center  182 is at   6.195907 -0.106511  0.128190
      ESP Fit Center  183 is at   6.501655  0.630009 -0.621869
      ESP Fit Center  184 is at   6.369301  1.338043 -0.621869
      ESP Fit Center  185 is at   5.990113  1.950453 -0.621869
      ESP Fit Center  186 is at   5.415302  2.384529 -0.621869
      ESP Fit Center  187 is at   5.990113 -0.690434 -0.621869
      ESP Fit Center  188 is at   6.369301 -0.078025 -0.621869
      ESP Fit Center  189 is at   6.352459  0.630009 -1.371929
      ESP Fit Center  190 is at   6.195907  1.366529 -1.371929
      ESP Fit Center  191 is at   5.753319  1.975699 -1.371929
      ESP Fit Center  192 is at   5.753319 -0.715680 -1.371929
      ESP Fit Center  193 is at   6.195907 -0.106511 -1.371929
      ESP Fit Center  194 is at   5.927584  0.630009 -2.007798
      ESP Fit Center  195 is at   5.741905  1.322974 -2.007798
      ESP Fit Center  196 is at   5.234620  1.830259 -2.007798
      ESP Fit Center  197 is at   4.541655 -0.755920 -2.007798
      ESP Fit Center  198 is at   5.234620 -0.570241 -2.007798
      ESP Fit Center  199 is at   5.741905 -0.062956 -2.007798
      ESP Fit Center  200 is at   5.291715  0.630009 -2.432673
      ESP Fit Center  201 is at   4.916685  1.279580 -2.432673
      ESP Fit Center  202 is at   4.166625 -0.019562 -2.432673
      ESP Fit Center  203 is at   4.916685 -0.019562 -2.432673
      ESP Fit Center  204 is at   4.541655  0.630009 -2.581869
      ESP Fit Center  205 is at   3.627929  2.907273 -0.289278
      ESP Fit Center  206 is at   3.021417  3.365290 -0.289278
      ESP Fit Center  207 is at   0.853281  3.164382 -0.289278
      ESP Fit Center  208 is at   3.021417  3.365290 -1.018600
      ESP Fit Center  209 is at   2.290407  3.573280 -1.018600
      ESP Fit Center  210 is at   1.533626  3.503154 -1.018600
      ESP Fit Center  211 is at   3.316504  2.865529 -1.703939
      ESP Fit Center  212 is at   2.661582  3.243648 -1.703939
      ESP Fit Center  213 is at   1.909486  3.322697 -1.703939
      ESP Fit Center  214 is at   3.235157  2.243792 -2.262632
      ESP Fit Center  215 is at   2.660337  2.741876 -2.262632
      ESP Fit Center  216 is at   1.907483  2.850120 -2.262632
      ESP Fit Center  217 is at   2.817829  1.514006 -2.627294
      ESP Fit Center  218 is at   2.458708  2.136022 -2.627294
      ESP Fit Center  219 is at   1.740466  0.891990 -2.627294
      ESP Fit Center  220 is at   2.458708  0.891990 -2.627294
      ESP Fit Center  221 is at   2.099587  1.514006 -2.753939
      ESP Fit Center  222 is at  -4.594074  0.116634  1.995475
      ESP Fit Center  223 is at  -3.858613  0.116634  1.878989
      ESP Fit Center  224 is at  -4.226344  0.753561  1.878989
      ESP Fit Center  225 is at  -4.961804  0.753561  1.878989
      ESP Fit Center  226 is at  -5.329534  0.116634  1.878989
      ESP Fit Center  227 is at  -4.961804 -0.520294  1.878989
      ESP Fit Center  228 is at  -4.226344 -0.520294  1.878989
      ESP Fit Center  229 is at  -4.594074  1.515563  1.540935
      ESP Fit Center  230 is at  -5.293538  1.328142  1.540935
      ESP Fit Center  231 is at  -5.805582  0.816098  1.540935
      ESP Fit Center  232 is at  -5.993003  0.116634  1.540935
      ESP Fit Center  233 is at  -5.805582 -0.582831  1.540935
      ESP Fit Center  234 is at  -5.293538 -1.094874  1.540935
      ESP Fit Center  235 is at  -4.594074 -1.282295  1.540935
      ESP Fit Center  236 is at  -3.894609 -1.094874  1.540935
      ESP Fit Center  237 is at  -4.594074  2.042094  1.014404
      ESP Fit Center  238 is at  -5.330916  1.895527  1.014404
      ESP Fit Center  239 is at  -5.955580  1.478140  1.014404
      ESP Fit Center  240 is at  -6.372967  0.853476  1.014404
      ESP Fit Center  241 is at  -6.519534  0.116634  1.014404
      ESP Fit Center  242 is at  -6.372967 -0.620208  1.014404
      ESP Fit Center  243 is at  -5.955580 -1.244872  1.014404
      ESP Fit Center  244 is at  -5.330916 -1.662260  1.014404
      ESP Fit Center  245 is at  -4.594074 -1.808827  1.014404
      ESP Fit Center  246 is at  -3.857232 -1.662260  1.014404
      ESP Fit Center  247 is at  -4.780993  2.372417  0.350935
      ESP Fit Center  248 is at  -5.503317  2.189500  0.350935
      ESP Fit Center  249 is at  -6.127111  1.781956  0.350935
      ESP Fit Center  250 is at  -6.584775  1.193948  0.350935
      ESP Fit Center  251 is at  -6.826717  0.489196  0.350935
      ESP Fit Center  252 is at  -6.826717 -0.255928  0.350935
      ESP Fit Center  253 is at  -6.584775 -0.960680  0.350935
      ESP Fit Center  254 is at  -6.127111 -1.548688  0.350935
      ESP Fit Center  255 is at  -5.503317 -1.956232  0.350935
      ESP Fit Center  256 is at  -4.780993 -2.139150  0.350935
      ESP Fit Center  257 is at  -4.038414 -2.077618  0.350935
      ESP Fit Center  258 is at  -3.724562  2.332113 -0.384525
      ESP Fit Center  259 is at  -4.416216  2.489979 -0.384525
      ESP Fit Center  260 is at  -5.123674  2.436962 -0.384525
      ESP Fit Center  261 is at  -5.784074  2.177774 -0.384525
      ESP Fit Center  262 is at  -6.338737  1.735445 -0.384525
      ESP Fit Center  263 is at  -6.738380  1.149277 -0.384525
      ESP Fit Center  264 is at  -6.947491  0.471354 -0.384525
      ESP Fit Center  265 is at  -6.947491 -0.238087 -0.384525
      ESP Fit Center  266 is at  -6.738380 -0.916009 -0.384525
      ESP Fit Center  267 is at  -6.338737 -1.502177 -0.384525
      ESP Fit Center  268 is at  -5.784074 -1.944507 -0.384525
      ESP Fit Center  269 is at  -5.123674 -2.203695 -0.384525
      ESP Fit Center  270 is at  -4.416216 -2.256711 -0.384525
      ESP Fit Center  271 is at  -3.356049  2.011572 -1.119985
      ESP Fit Center  272 is at  -4.038414  2.310885 -1.119985
      ESP Fit Center  273 is at  -4.780993  2.372417 -1.119985
      ESP Fit Center  274 is at  -5.503317  2.189500 -1.119985
      ESP Fit Center  275 is at  -6.127111  1.781956 -1.119985
      ESP Fit Center  276 is at  -6.584775  1.193948 -1.119985
      ESP Fit Center  277 is at  -6.826717  0.489196 -1.119985
      ESP Fit Center  278 is at  -6.826717 -0.255928 -1.119985
      ESP Fit Center  279 is at  -6.584775 -0.960680 -1.119985
      ESP Fit Center  280 is at  -6.127111 -1.548688 -1.119985
      ESP Fit Center  281 is at  -5.503317 -1.956232 -1.119985
      ESP Fit Center  282 is at  -4.780993 -2.139150 -1.119985
      ESP Fit Center  283 is at  -3.232568  1.478140 -1.783454
      ESP Fit Center  284 is at  -3.857232  1.895527 -1.783454
      ESP Fit Center  285 is at  -4.594074  2.042094 -1.783454
      ESP Fit Center  286 is at  -5.330916  1.895527 -1.783454
      ESP Fit Center  287 is at  -5.955580  1.478140 -1.783454
      ESP Fit Center  288 is at  -6.372967  0.853476 -1.783454
      ESP Fit Center  289 is at  -6.519534  0.116634 -1.783454
      ESP Fit Center  290 is at  -6.372967 -0.620208 -1.783454
      ESP Fit Center  291 is at  -5.955580 -1.244872 -1.783454
      ESP Fit Center  292 is at  -5.330916 -1.662260 -1.783454
      ESP Fit Center  293 is at  -4.594074 -1.808827 -1.783454
      ESP Fit Center  294 is at  -3.195145  0.116634 -2.309985
      ESP Fit Center  295 is at  -3.382566  0.816098 -2.309985
      ESP Fit Center  296 is at  -3.894609  1.328142 -2.309985
      ESP Fit Center  297 is at  -4.594074  1.515563 -2.309985
      ESP Fit Center  298 is at  -5.293538  1.328142 -2.309985
      ESP Fit Center  299 is at  -5.805582  0.816098 -2.309985
      ESP Fit Center  300 is at  -5.993003  0.116634 -2.309985
      ESP Fit Center  301 is at  -5.805582 -0.582831 -2.309985
      ESP Fit Center  302 is at  -5.293538 -1.094874 -2.309985
      ESP Fit Center  303 is at  -4.594074 -1.282295 -2.309985
      ESP Fit Center  304 is at  -3.894609 -1.094874 -2.309985
      ESP Fit Center  305 is at  -3.382566 -0.582831 -2.309985
      ESP Fit Center  306 is at  -3.858613  0.116634 -2.648040
      ESP Fit Center  307 is at  -4.226344  0.753561 -2.648040
      ESP Fit Center  308 is at  -4.961804  0.753561 -2.648040
      ESP Fit Center  309 is at  -5.329534  0.116634 -2.648040
      ESP Fit Center  310 is at  -4.961804 -0.520294 -2.648040
      ESP Fit Center  311 is at  -4.226344 -0.520294 -2.648040
      ESP Fit Center  312 is at  -4.594074  0.116634 -2.764525
      ESP Fit Center  313 is at  -0.675981 -3.374003  0.459508
      ESP Fit Center  314 is at   0.135792 -3.374003  0.459508
      ESP Fit Center  315 is at   0.792530 -2.896854  0.459508
      ESP Fit Center  316 is at  -0.850895 -3.656255 -0.214120
      ESP Fit Center  317 is at  -0.072670 -3.750749 -0.214120
      ESP Fit Center  318 is at   0.660326 -3.472760 -0.214120
      ESP Fit Center  319 is at   1.180175 -2.885972 -0.214120
      ESP Fit Center  320 is at   1.367784 -2.124812 -0.961790
      ESP Fit Center  321 is at  -1.496065 -3.210927 -0.961790
      ESP Fit Center  322 is at  -0.850895 -3.656255 -0.961790
      ESP Fit Center  323 is at  -0.072670 -3.750749 -0.961790
      ESP Fit Center  324 is at   0.660326 -3.472760 -0.961790
      ESP Fit Center  325 is at   1.180175 -2.885972 -0.961790
      ESP Fit Center  326 is at   1.043382 -2.124812 -1.635418
      ESP Fit Center  327 is at  -1.332720 -2.896854 -1.635418
      ESP Fit Center  328 is at  -0.675981 -3.374003 -1.635418
      ESP Fit Center  329 is at   0.135792 -3.374003 -1.635418
      ESP Fit Center  330 is at   0.792530 -2.896854 -1.635418
      ESP Fit Center  331 is at   0.458830 -2.124812 -2.101583
      ESP Fit Center  332 is at   0.094368 -1.493545 -2.101583
      ESP Fit Center  333 is at  -0.634557 -2.756079 -2.101583
      ESP Fit Center  334 is at   0.094368 -2.756079 -2.101583
      ESP Fit Center  335 is at  -0.270095 -2.124812 -2.267955
      ESP Fit Center  336 is at  -3.743957 -2.667562 -0.055927
      ESP Fit Center  337 is at  -3.087218 -3.144711 -0.055927
      ESP Fit Center  338 is at  -4.271617 -2.287490 -0.729555
      ESP Fit Center  339 is at  -3.907302 -2.981635 -0.729555
      ESP Fit Center  340 is at  -3.262132 -3.426963 -0.729555
      ESP Fit Center  341 is at  -2.483907 -3.521457 -0.729555
      ESP Fit Center  342 is at  -1.750911 -3.243468 -0.729555
      ESP Fit Center  343 is at  -4.271617 -2.287490 -1.477225
      ESP Fit Center  344 is at  -3.907302 -2.981635 -1.477225
      ESP Fit Center  345 is at  -3.262132 -3.426963 -1.477225
      ESP Fit Center  346 is at  -2.483907 -3.521457 -1.477225
      ESP Fit Center  347 is at  -1.750911 -3.243468 -1.477225
      ESP Fit Center  348 is at  -3.994809 -1.895520 -2.150853
      ESP Fit Center  349 is at  -3.743957 -2.667562 -2.150853
      ESP Fit Center  350 is at  -3.087218 -3.144711 -2.150853
      ESP Fit Center  351 is at  -2.275445 -3.144711 -2.150853
      ESP Fit Center  352 is at  -1.618707 -2.667562 -2.150853
      ESP Fit Center  353 is at  -1.952407 -1.895520 -2.617018
      ESP Fit Center  354 is at  -2.316869 -1.264253 -2.617018
      ESP Fit Center  355 is at  -3.045794 -1.264253 -2.617018
      ESP Fit Center  356 is at  -3.410256 -1.895520 -2.617018
      ESP Fit Center  357 is at  -3.045794 -2.526787 -2.617018
      ESP Fit Center  358 is at  -2.316869 -2.526787 -2.617018
      ESP Fit Center  359 is at  -2.681332 -1.895520 -2.783390
      ESP Fit Center  360 is at  -2.812882  1.770287  2.816836
      ESP Fit Center  361 is at  -2.448420  2.401554  2.650464
      ESP Fit Center  362 is at  -3.177344  2.401554  2.650464
      ESP Fit Center  363 is at  -3.541807  1.770287  2.650464
      ESP Fit Center  364 is at  -3.177344  1.139020  2.650464
      ESP Fit Center  365 is at  -1.750257  2.542329  2.184299
      ESP Fit Center  366 is at  -2.406995  3.019478  2.184299
      ESP Fit Center  367 is at  -3.218769  3.019478  2.184299
      ESP Fit Center  368 is at  -3.875507  2.542329  2.184299
      ESP Fit Center  369 is at  -4.126359  1.770287  2.184299
      ESP Fit Center  370 is at  -3.875507  0.998245  2.184299
      ESP Fit Center  371 is at  -1.882461  3.118235  1.510671
      ESP Fit Center  372 is at  -2.615457  3.396224  1.510671
      ESP Fit Center  373 is at  -3.393682  3.301730  1.510671
      ESP Fit Center  374 is at  -4.038852  2.856402  1.510671
      ESP Fit Center  375 is at  -4.403167  2.162257  1.510671
      ESP Fit Center  376 is at  -1.882461  3.118235  0.763001
      ESP Fit Center  377 is at  -2.615457  3.396224  0.763001
      ESP Fit Center  378 is at  -3.393682  3.301730  0.763001
      ESP Fit Center  379 is at  -4.038852  2.856402  0.763001
      ESP Fit Center  380 is at  -2.406995  3.019478  0.089373
      ESP Fit Center  381 is at  -3.218769  3.019478  0.089373
      ESP Fit Center  382 is at  -3.875507  2.542329  0.089373
      ESP Fit Center  383 is at  -0.402697  1.538754  3.336093
      ESP Fit Center  384 is at   0.326228  1.538754  3.169721
      ESP Fit Center  385 is at  -0.038235  2.170021  3.169721
      ESP Fit Center  386 is at  -0.767159  2.170021  3.169721
      ESP Fit Center  387 is at  -1.131622  1.538754  3.169721
      ESP Fit Center  388 is at  -0.767159  0.907487  3.169721
      ESP Fit Center  389 is at  -0.038235  0.907487  3.169721
      ESP Fit Center  390 is at   0.910780  1.538754  2.703556
      ESP Fit Center  391 is at   0.659928  2.310796  2.703556
      ESP Fit Center  392 is at   0.003190  2.787945  2.703556
      ESP Fit Center  393 is at  -0.808584  2.787945  2.703556
      ESP Fit Center  394 is at  -1.465322  2.310796  2.703556
      ESP Fit Center  395 is at   1.047573  2.299914  2.029928
      ESP Fit Center  396 is at   0.527724  2.886702  2.029928
      ESP Fit Center  397 is at  -0.205272  3.164691  2.029928
      ESP Fit Center  398 is at  -0.983497  3.070197  2.029928
      ESP Fit Center  399 is at  -1.628667  2.624869  2.029928
      ESP Fit Center  400 is at   0.527724  2.886702  1.282258
      ESP Fit Center  401 is at  -0.205272  3.164691  1.282258
      ESP Fit Center  402 is at  -0.983497  3.070197  1.282258
      ESP Fit Center  403 is at   0.003190  2.787945  0.608630
      ESP Fit Center  404 is at   1.602051  0.133122  3.416366
      ESP Fit Center  405 is at   2.330976  0.133122  3.249994
      ESP Fit Center  406 is at   1.966514  0.764389  3.249994
      ESP Fit Center  407 is at   1.237589  0.764389  3.249994
      ESP Fit Center  408 is at   0.873126  0.133122  3.249994
      ESP Fit Center  409 is at   1.237589 -0.498145  3.249994
      ESP Fit Center  410 is at   1.966514 -0.498145  3.249994
      ESP Fit Center  411 is at   2.915528  0.133122  2.783829
      ESP Fit Center  412 is at   2.664676  0.905164  2.783829
      ESP Fit Center  413 is at   2.007938  1.382313  2.783829
      ESP Fit Center  414 is at   1.196164  1.382313  2.783829
      ESP Fit Center  415 is at   0.288574  0.133122  2.783829
      ESP Fit Center  416 is at   0.539426 -0.638920  2.783829
      ESP Fit Center  417 is at   2.007938 -1.116069  2.783829
      ESP Fit Center  418 is at   2.664676 -0.638920  2.783829
      ESP Fit Center  419 is at   3.239930  0.133122  2.110201
      ESP Fit Center  420 is at   3.052321  0.894282  2.110201
      ESP Fit Center  421 is at   2.532472  1.481070  2.110201
      ESP Fit Center  422 is at   1.799476  1.759059  2.110201
      ESP Fit Center  423 is at   3.052321 -0.628038  2.110201
      ESP Fit Center  424 is at   1.609912 -1.468824  2.698626
      ESP Fit Center  425 is at   2.338837 -1.468824  2.532254
      ESP Fit Center  426 is at   1.245450 -2.100091  2.532254
      ESP Fit Center  427 is at   1.974375 -2.100091  2.532254
      ESP Fit Center  428 is at   2.923389 -1.468824  2.066089
      ESP Fit Center  429 is at   0.547287 -2.240866  2.066089
      ESP Fit Center  430 is at   1.204026 -2.718015  2.066089
      ESP Fit Center  431 is at   2.015799 -2.718015  2.066089
      ESP Fit Center  432 is at   2.672537 -2.240866  2.066089
      ESP Fit Center  433 is at   0.383942 -2.554939  1.392461
      ESP Fit Center  434 is at   1.029112 -3.000267  1.392461
      ESP Fit Center  435 is at   1.807337 -3.094761  1.392461
      ESP Fit Center  436 is at   2.540333 -2.816772  1.392461
      ESP Fit Center  437 is at   1.029112 -3.000267  0.644791
      ESP Fit Center  438 is at   1.807337 -3.094761  0.644791
      ESP Fit Center  439 is at   2.540333 -2.816772  0.644791
      ESP Fit Center  440 is at   1.204026 -2.718015 -0.028837
      ESP Fit Center  441 is at   2.015799 -2.718015 -0.028837
      ESP Fit Center  442 is at   1.974375 -2.100091 -0.495002
      ESP Fit Center  443 is at   0.196960  2.482046 -0.145501
      ESP Fit Center  444 is at   0.678785  3.241447 -0.819129
      ESP Fit Center  445 is at   0.033615  2.796119 -0.819129
      ESP Fit Center  446 is at  -0.330700  2.101974 -0.819129
      ESP Fit Center  447 is at   1.457010  3.335941 -1.566799
      ESP Fit Center  448 is at   0.678785  3.241447 -1.566799
      ESP Fit Center  449 is at   0.033615  2.796119 -1.566799
      ESP Fit Center  450 is at  -0.330700  2.101974 -1.566799
      ESP Fit Center  451 is at  -0.330700  1.318034 -1.566799
      ESP Fit Center  452 is at   0.033615  0.623889 -1.566799
      ESP Fit Center  453 is at   1.665472  2.959195 -2.240427
      ESP Fit Center  454 is at   0.853698  2.959195 -2.240427
      ESP Fit Center  455 is at   0.196960  2.482046 -2.240427
      ESP Fit Center  456 is at  -0.053892  1.710004 -2.240427
      ESP Fit Center  457 is at   0.196960  0.937962 -2.240427
      ESP Fit Center  458 is at   0.853698  0.460813 -2.240427
      ESP Fit Center  459 is at   1.624047  2.341271 -2.706592
      ESP Fit Center  460 is at   0.895123  2.341271 -2.706592
      ESP Fit Center  461 is at   0.530660  1.710004 -2.706592
      ESP Fit Center  462 is at   0.895123  1.078737 -2.706592
      ESP Fit Center  463 is at   1.624047  1.078737 -2.706592
      ESP Fit Center  464 is at   1.259585  1.710004 -2.872964
      ESP Fit Center  465 is at   2.031486  2.062361  1.883305
      ESP Fit Center  466 is at   2.760411  2.062361  1.716933
      ESP Fit Center  467 is at   2.395948  2.693628  1.716933
      ESP Fit Center  468 is at   1.667024  2.693628  1.716933
      ESP Fit Center  469 is at   1.302561  2.062361  1.716933
      ESP Fit Center  470 is at   3.344963  2.062361  1.250768
      ESP Fit Center  471 is at   3.094111  2.834403  1.250768
      ESP Fit Center  472 is at   2.437373  3.311552  1.250768
      ESP Fit Center  473 is at   1.625599  3.311552  1.250768
      ESP Fit Center  474 is at   0.968861  2.834403  1.250768
      ESP Fit Center  475 is at   3.094111  1.290319  1.250768
      ESP Fit Center  476 is at   3.481756  2.823521  0.577140
      ESP Fit Center  477 is at   2.961907  3.410309  0.577140
      ESP Fit Center  478 is at   2.228911  3.688298  0.577140
      ESP Fit Center  479 is at   1.450686  3.593804  0.577140
      ESP Fit Center  480 is at   0.805516  3.148476  0.577140
      ESP Fit Center  481 is at   2.961907  3.410309 -0.170530
      ESP Fit Center  482 is at   2.228911  3.688298 -0.170530
      ESP Fit Center  483 is at   1.450686  3.593804 -0.170530
      ESP Fit Center  484 is at   0.805516  3.148476 -0.170530
      ESP Fit Center  485 is at   4.369549  2.599028  0.068188
      ESP Fit Center  486 is at   4.894083  2.697785 -0.605440
      ESP Fit Center  487 is at   4.161087  2.975774 -0.605440
      ESP Fit Center  488 is at   4.894083  2.697785 -1.353110
      ESP Fit Center  489 is at   4.161087  2.975774 -1.353110
      ESP Fit Center  490 is at   5.026287  2.121879 -2.026738
      ESP Fit Center  491 is at   4.369549  2.599028 -2.026738
      ESP Fit Center  492 is at   3.557775  2.599028 -2.026738
      ESP Fit Center  493 is at   4.692587  1.349837 -2.492903
      ESP Fit Center  494 is at   4.328124  1.981104 -2.492903
      ESP Fit Center  495 is at   3.599200  1.981104 -2.492903
      ESP Fit Center  496 is at   3.234737  1.349837 -2.492903
      ESP Fit Center  497 is at   3.599200  0.718570 -2.492903
      ESP Fit Center  498 is at   3.963662  1.349837 -2.659275
      ESP Fit Center  499 is at  -1.182994 -1.895623  2.037769
      ESP Fit Center  500 is at  -1.728678 -2.313874  1.701373
      ESP Fit Center  501 is at  -1.015179 -2.639718  1.701373
      ESP Fit Center  502 is at  -0.238781 -2.528089  1.701373
      ESP Fit Center  503 is at  -1.550295 -3.031989  1.177423
      ESP Fit Center  504 is at  -0.817067 -3.177837  1.177423
      ESP Fit Center  505 is at  -0.083839 -3.031989  1.177423
      ESP Fit Center  506 is at  -1.721851 -3.324520  0.517209
      ESP Fit Center  507 is at  -1.003070 -3.506540  0.517209
      ESP Fit Center  508 is at  -1.548920 -3.514233 -0.214645
      ESP Fit Center  509 is at  -0.817067  0.654199 -1.606713
      ESP Fit Center  510 is at  -0.238781  0.004451 -2.130663
      ESP Fit Center  511 is at  -0.085213 -1.261819 -2.467059
      ESP Fit Center  512 is at  -0.451140 -0.628015 -2.467059
      ESP Fit Center  513 is at  -0.451140 -1.895623 -2.467059
      ESP Fit Center  514 is at  -0.817067 -1.261819 -2.582973
      ESP Fit Center  515 is at  -2.540152 -1.776646  1.743390
      ESP Fit Center  516 is at  -3.085836 -2.194897  1.406994
      ESP Fit Center  517 is at  -2.372337 -2.520741  1.406994
      ESP Fit Center  518 is at  -3.529054 -2.497671  0.883044
      ESP Fit Center  519 is at  -2.907453 -2.913012  0.883044
      ESP Fit Center  520 is at  -2.174225 -3.058860  0.883044
      ESP Fit Center  521 is at  -3.699743 -2.799997  0.222830
      ESP Fit Center  522 is at  -3.079009 -3.205543  0.222830
      ESP Fit Center  523 is at  -2.360228 -3.387563  0.222830
      ESP Fit Center  524 is at  -1.440997  0.627328 -1.901092
      ESP Fit Center  525 is at  -1.003142 -0.390233 -2.425042
      ESP Fit Center  526 is at  -1.595939  0.123428 -2.425042
      ESP Fit Center  527 is at  -2.372337  0.235057 -2.425042
      ESP Fit Center  528 is at  -1.442371 -1.142842 -2.761438
      ESP Fit Center  529 is at  -1.808298 -0.509038 -2.761438
      ESP Fit Center  530 is at  -2.540152 -0.509038 -2.761438
      ESP Fit Center  531 is at  -2.174225 -1.142842 -2.877352
      ESP Fit Center  532 is at  -3.246726 -0.677341  2.231148
      ESP Fit Center  533 is at  -3.792410 -1.095592  1.894752
      ESP Fit Center  534 is at  -3.078911 -1.421436  1.894752
      ESP Fit Center  535 is at  -2.302513 -1.309807  1.894752
      ESP Fit Center  536 is at  -3.614027 -1.813707  1.370802
      ESP Fit Center  537 is at  -1.709716  0.709072 -1.937284
      ESP Fit Center  538 is at  -2.302513  1.222733 -1.937284
      ESP Fit Center  539 is at  -2.514872  0.590267 -2.273680
      ESP Fit Center  540 is at  -2.249290  0.925666  3.123162
      ESP Fit Center  541 is at  -2.981144  0.925666  3.007248
      ESP Fit Center  542 is at  -2.615217  0.291862  3.007248
      ESP Fit Center  543 is at  -3.584970  0.533475  2.670852
      ESP Fit Center  544 is at  -3.160901 -0.126389  2.670852
      ESP Fit Center  545 is at  -2.447402 -0.452233  2.670852
      ESP Fit Center  546 is at  -2.249290 -0.990352  2.146902
      ESP Fit Center  547 is at  -1.517436  3.178080  0.754834
      ESP Fit Center  548 is at  -1.696355  3.109157  0.022980
      ESP Fit Center  549 is at  -1.516062  2.695835 -0.637234
      ESP Fit Center  550 is at  -2.249290  2.841684 -0.637234
      ESP Fit Center  551 is at  -2.982518  2.695835 -0.637234
      ESP Fit Center  552 is at  -1.078207  1.678275 -1.161184
      ESP Fit Center  553 is at  -1.671004  2.191936 -1.161184
      ESP Fit Center  554 is at  -2.447402  2.303565 -1.161184
      ESP Fit Center  555 is at  -1.883363  1.559470 -1.497580
      ESP Fit Center  556 is at  -0.889117  0.788284  3.405143
      ESP Fit Center  557 is at  -1.620971  0.788284  3.289229
      ESP Fit Center  558 is at  -1.255044  0.154480  3.289229
      ESP Fit Center  559 is at  -0.523190  0.154480  3.289229
      ESP Fit Center  560 is at  -1.800728  1.840339  2.952833
      ESP Fit Center  561 is at  -1.800728 -0.263771  2.952833
      ESP Fit Center  562 is at  -1.087229 -0.589615  2.952833
      ESP Fit Center  563 is at  -0.310831 -0.477986  2.952833
      ESP Fit Center  564 is at  -1.622345 -0.981886  2.428883
      ESP Fit Center  565 is at  -0.336182  2.971775  0.304961
      ESP Fit Center  566 is at  -1.075120  3.033005  0.304961
      ESP Fit Center  567 is at  -0.889117  2.704302 -0.355253
      ESP Fit Center  568 is at  -0.515110 -0.934866  2.811375
      ESP Fit Center  569 is at  -1.060794 -1.353117  2.474979
      ESP Fit Center  570 is at  -0.347295 -1.678961  2.474979
      ESP Fit Center  571 is at  -0.149183 -2.217080  1.951029
      ESP Fit Center  572 is at   0.966772 -1.060876  3.083494
      ESP Fit Center  573 is at   0.421088 -1.479127  2.747098
      ESP Fit Center  574 is at   1.912202 -2.356676 -1.248879
      ESP Fit Center  575 is at   2.637258 -2.212454 -1.248879
      ESP Fit Center  576 is at   1.522693 -2.168567 -1.973935
      ESP Fit Center  577 is at   2.301712 -2.168567 -1.973935
      ESP Fit Center  578 is at   3.003584 -1.830563 -1.973935
      ESP Fit Center  579 is at   3.251931 -0.462014 -2.588608
      ESP Fit Center  580 is at   3.039254  0.262298 -2.588608
      ESP Fit Center  581 is at   0.626742 -0.084569 -2.588608
      ESP Fit Center  582 is at   0.626742 -0.839459 -2.588608
      ESP Fit Center  583 is at   1.034866 -1.474513 -2.588608
      ESP Fit Center  584 is at   1.721539 -1.788106 -2.588608
      ESP Fit Center  585 is at   2.468746 -1.680674 -2.588608
      ESP Fit Center  586 is at   3.039254 -1.186326 -2.588608
      ESP Fit Center  587 is at   2.637258 -0.462014 -2.999319
      ESP Fit Center  588 is at   2.274730  0.165903 -2.999319
      ESP Fit Center  589 is at   1.549674  0.165903 -2.999319
      ESP Fit Center  590 is at   1.187146 -0.462014 -2.999319
      ESP Fit Center  591 is at   1.549674 -1.089931 -2.999319
      ESP Fit Center  592 is at   2.274730 -1.089931 -2.999319
      ESP Fit Center  593 is at   1.912202 -0.462014 -3.143542
      ESP Fit Center  594 is at   4.058570  0.359146  2.140366
      ESP Fit Center  595 is at   4.863726  0.477951  1.803970
      ESP Fit Center  596 is at   4.270929  0.991612  1.803970
      ESP Fit Center  597 is at   3.494531  1.103241  1.803970
      ESP Fit Center  598 is at   3.692643  1.641360  1.280020
      ESP Fit Center  599 is at   2.959415 -2.044827 -1.504116
      ESP Fit Center  600 is at   5.047472 -1.629487 -1.504116
      ESP Fit Center  601 is at   3.494531 -1.652557 -2.028066
      ESP Fit Center  602 is at   4.270929 -1.540928 -2.028066
      ESP Fit Center  603 is at   4.058570 -0.908462 -2.364462
      ESP Fit Center  604 is at   3.692643 -0.274658 -2.480376
      ESP Fit Center  605 is at   4.055021 -1.285925  2.652280
      ESP Fit Center  606 is at   4.811036 -1.285925  2.518974
      ESP Fit Center  607 is at   4.433029 -0.631197  2.518974
      ESP Fit Center  608 is at   3.677014 -0.631197  2.518974
      ESP Fit Center  609 is at   3.299006 -1.285925  2.518974
      ESP Fit Center  610 is at   3.677014 -1.940653  2.518974
      ESP Fit Center  611 is at   4.433029 -1.940653  2.518974
      ESP Fit Center  612 is at   5.475864 -1.285925  2.135135
      ESP Fit Center  613 is at   5.285507 -0.575503  2.135135
      ESP Fit Center  614 is at   4.765443 -0.055439  2.135135
      ESP Fit Center  615 is at   3.344600 -2.516411  2.135135
      ESP Fit Center  616 is at   4.055021 -2.706768  2.135135
      ESP Fit Center  617 is at   4.765443 -2.516411  2.135135
      ESP Fit Center  618 is at   5.285507 -1.996347  2.135135
      ESP Fit Center  619 is at   5.969318 -1.285925  1.547060
      ESP Fit Center  620 is at   5.823601 -0.553355  1.547060
      ESP Fit Center  621 is at   5.408633  0.067687  1.547060
      ESP Fit Center  622 is at   3.322452 -3.054505  1.547060
      ESP Fit Center  623 is at   4.055021 -3.200222  1.547060
      ESP Fit Center  624 is at   4.787591 -3.054505  1.547060
      ESP Fit Center  625 is at   5.408633 -2.639537  1.547060
      ESP Fit Center  626 is at   5.823601 -2.018495  1.547060
      ESP Fit Center  627 is at   6.231879 -1.285925  0.825679
      ESP Fit Center  628 is at   6.100599 -0.541396  0.825679
      ESP Fit Center  629 is at   2.966592 -3.171139  0.825679
      ESP Fit Center  630 is at   3.677014 -3.429712  0.825679
      ESP Fit Center  631 is at   4.433029 -3.429712  0.825679
      ESP Fit Center  632 is at   5.143450 -3.171139  0.825679
      ESP Fit Center  633 is at   5.722591 -2.685182  0.825679
      ESP Fit Center  634 is at   6.100599 -2.030454  0.825679
      ESP Fit Center  635 is at   6.231879 -1.285925  0.058001
      ESP Fit Center  636 is at   2.966592 -3.171139  0.058001
      ESP Fit Center  637 is at   3.677014 -3.429712  0.058001
      ESP Fit Center  638 is at   4.433029 -3.429712  0.058001
      ESP Fit Center  639 is at   5.143450 -3.171139  0.058001
      ESP Fit Center  640 is at   5.722591 -2.685182  0.058001
      ESP Fit Center  641 is at   6.100599 -2.030454  0.058001
      ESP Fit Center  642 is at   5.969318 -1.285925 -0.663380
      ESP Fit Center  643 is at   2.701409 -2.639537 -0.663380
      ESP Fit Center  644 is at   3.322452 -3.054505 -0.663380
      ESP Fit Center  645 is at   4.055021 -3.200222 -0.663380
      ESP Fit Center  646 is at   4.787591 -3.054505 -0.663380
[...]
 2326 Fit       0.000437
 2327 Fit       0.000484
 2328 Fit       0.002342
 2329 Fit       0.003496
 2330 Fit       0.004900
 2331 Fit       0.006380
 2332 Fit       0.007488
 2333 Fit       0.011354
 2334 Fit       0.011205
 2335 Fit       0.009612
 2336 Fit       0.005360
 2337 Fit       0.015932
 2338 Fit       0.010681
 2339 Fit       0.008144
 2340 Fit       0.005053
 2341 Fit       0.013458
 2342 Fit       0.013065
 2343 Fit       0.009890
 2344 Fit       0.007602
 2345 Fit       0.005541
 2346 Fit       0.006692
 2347 Fit       0.010883
 2348 Fit       0.008262
 2349 Fit      -0.004208
 2350 Fit      -0.004408
 2351 Fit      -0.004522
 2352 Fit       0.010104
 2353 Fit       0.006510
 2354 Fit       0.004484
 2355 Fit       0.006702
 2356 Fit       0.009495
 2357 Fit       0.005488
 2358 Fit       0.002851
 2359 Fit       0.015009
 2360 Fit       0.008497
 2361 Fit       0.004461
 2362 Fit       0.001415
 2363 Fit      -0.000205
 2364 Fit       0.005126
 2365 Fit       0.001291
 2366 Fit      -0.001136
 2367 Fit      -0.002390
 2368 Fit      -0.002934
 2369 Fit       0.020315
 2370 Fit       0.017257
 2371 Fit       0.016926
 2372 Fit       0.013454
 2373 Fit       0.010782
 2374 Fit       0.015800
 2375 Fit       0.011250
 2376 Fit       0.007748
 2377 Fit       0.014562
 2378 Fit       0.009260
 2379 Fit       0.011130
 2380 Fit       0.006141
 2381 Fit       0.009522
 2382 Fit       0.012287
 2383 Fit       0.011741
 2384 Fit       0.007425
 2385 Fit       0.005393
 2386 Fit       0.007763
 2387 Fit       0.014378
 2388 Fit       0.010363
 2389 Fit       0.002670
 2390 Fit       0.001799
 2391 Fit       0.003167
 2392 Fit       0.006476
 2393 Fit      -0.001335
 2394 Fit      -0.000622
 2395 Fit      -0.003778
 2396 Fit       0.023643
 2397 Fit       0.025607
 2398 Fit       0.021230
 2399 Fit       0.022284
 2400 Fit       0.000441
 2401 Fit       0.002502
 2402 Fit      -0.001962
 2403 Fit       0.000161
 2404 Fit       0.002899
 2405 Fit       0.005635
 2406 Fit       0.004826
 2407 Fit       0.003703
 2408 Fit       0.002057
 2409 Fit      -0.000259
 2410 Fit       0.002685
 2411 Fit       0.002319
 2412 Fit      -0.008327
 2413 Fit      -0.008656
 2414 Fit       0.002584
 2415 Fit       0.010147
 2416 Fit       0.013614
 2417 Fit       0.007934
 2418 Fit       0.018005
 2419 Fit       0.014364
 2420 Fit       0.010523
 2421 Fit       0.007863
 2422 Fit       0.011634
 2423 Fit       0.020606
 2424 Fit       0.018745
 2425 Fit       0.017910
 2426 Fit       0.015753
 2427 Fit       0.012918
 2428 Fit       0.011232
 2429 Fit       0.014466
 2430 Fit       0.016672
 2431 Fit       0.019154
 2432 Fit       0.018563
 2433 Fit       0.016874
 2434 Fit       0.014775
 2435 Fit       0.016771
 2436 Fit      -0.002725
 2437 Fit      -0.011590
 2438 Fit      -0.000556
 2439 Fit      -0.018659
 2440 Fit      -0.009289
 2441 Fit       0.001617
 2442 Fit       0.013839
 2443 Fit       0.000859
 2444 Fit      -0.022914
 2445 Fit      -0.002182
 2446 Fit      -0.008907
 2447 Fit      -0.013939
 2448 Fit       0.004076
 2449 Fit      -0.003284
 2450 Fit       0.002549
 2451 Fit      -0.016740
 2452 Fit      -0.021102
 2453 Fit      -0.015418
 2454 Fit      -0.009674
 2455 Fit      -0.011558
 2456 Fit      -0.017655
 2457 Fit      -0.021750
 2458 Fit      -0.024857
 2459 Fit      -0.020904
 2460 Fit      -0.014099
 2461 Fit      -0.005740
 2462 Fit      -0.017836
 2463 Fit      -0.022527
 2464 Fit      -0.025298
 2465 Fit      -0.026161
 2466 Fit      -0.028125
 2467 Fit      -0.025256
 2468 Fit      -0.020024
 2469 Fit      -0.020797
 2470 Fit      -0.024805
 2471 Fit      -0.027411
 2472 Fit      -0.028883
 2473 Fit      -0.029202
 2474 Fit      -0.030929
 2475 Fit      -0.029050
 2476 Fit      -0.025498
 2477 Fit      -0.021518
 2478 Fit      -0.025470
 2479 Fit      -0.028211
 2480 Fit      -0.030105
 2481 Fit      -0.031254
 2482 Fit      -0.031584
 2483 Fit      -0.033216
 2484 Fit      -0.032438
 2485 Fit      -0.020266
 2486 Fit      -0.024598
 2487 Fit      -0.027678
 2488 Fit      -0.029963
 2489 Fit      -0.031656
 2490 Fit      -0.032794
 2491 Fit      -0.033330
 2492 Fit      -0.034875
 2493 Fit      -0.035459
 2494 Fit      -0.014546
 2495 Fit      -0.020637
 2496 Fit      -0.024833
 2497 Fit      -0.027898
 2498 Fit      -0.030246
 2499 Fit      -0.032066
 2500 Fit      -0.033412
 2501 Fit      -0.034309
 2502 Fit      -0.035739
 2503 Fit      -0.012578
 2504 Fit      -0.019029
 2505 Fit      -0.023532
 2506 Fit      -0.026845
 2507 Fit      -0.029405
 2508 Fit      -0.031432
 2509 Fit      -0.033035
 2510 Fit      -0.034349
 2511 Fit      -0.035521
 2512 Fit      -0.007516
 2513 Fit      -0.015116
 2514 Fit      -0.020439
 2515 Fit      -0.024312
 2516 Fit      -0.027260
 2517 Fit      -0.029583
 2518 Fit      -0.031482
 2519 Fit      -0.033234
 2520 Fit      -0.005063
 2521 Fit      -0.013124
 2522 Fit      -0.018781
 2523 Fit      -0.022858
 2524 Fit      -0.025908
 2525 Fit      -0.028317
 2526 Fit      -0.030558
 2527 Fit       0.001188
 2528 Fit      -0.008511
 2529 Fit      -0.015228
 2530 Fit      -0.019882
 2531 Fit      -0.023211
 2532 Fit      -0.025953
 2533 Fit      -0.009102
 2534 Fit      -0.015083
 2535 Fit      -0.021537
 2536 Fit      -0.014068
 2537 Fit      -0.005502
 2538 Fit       0.005094
 2539 Fit      -0.024840
 2540 Fit      -0.018863
 2541 Fit      -0.012367
 2542 Fit      -0.004599
 2543 Fit       0.004942
 2544 Fit      -0.026396
 2545 Fit      -0.021408
 2546 Fit      -0.015966
 2547 Fit      -0.009586
 2548 Fit      -0.002054
 2549 Fit       0.006845
 2550 Fit      -0.031991
 2551 Fit      -0.026685
 2552 Fit      -0.022384
 2553 Fit      -0.017542
 2554 Fit      -0.011863
 2555 Fit      -0.005261
 2556 Fit       0.002189
 2557 Fit       0.010315
 2558 Fit      -0.031091
 2559 Fit      -0.025991
 2560 Fit      -0.021995
 2561 Fit      -0.017281
 2562 Fit      -0.011671
 2563 Fit      -0.005163
 2564 Fit       0.002024
 2565 Fit      -0.033850
 2566 Fit      -0.029680
 2567 Fit      -0.024463
 2568 Fit      -0.020646
 2569 Fit      -0.015935
 2570 Fit      -0.010249
 2571 Fit      -0.003665
 2572 Fit       0.003460
 2573 Fit      -0.033828
 2574 Fit      -0.030529
 2575 Fit      -0.027617
 2576 Fit      -0.022166
 2577 Fit      -0.018445
 2578 Fit      -0.013656
 2579 Fit      -0.007819
 2580 Fit      -0.001117
 2581 Fit      -0.028101
 2582 Fit      -0.026835
 2583 Fit      -0.024907
 2584 Fit      -0.019108
 2585 Fit      -0.015244
 2586 Fit      -0.010028
 2587 Fit      -0.003649
 2588 Fit      -0.021952
 2589 Fit      -0.022571
 2590 Fit      -0.021562
 2591 Fit      -0.015269
 2592 Fit      -0.011180
 2593 Fit      -0.005405
 2594 Fit       0.001414
 2595 Fit      -0.014122
 2596 Fit      -0.017115
 2597 Fit      -0.017343
 2598 Fit      -0.010628
 2599 Fit      -0.006154
 2600 Fit       0.000261
 2601 Fit      -0.003145
 2602 Fit      -0.009554
 2603 Fit      -0.011991
 2604 Fit      -0.005208
 2605 Fit       0.000281
 2606 Fit       0.007332
 2607 Fit       0.002563
 2608 Fit      -0.004389
 2609 Fit       0.000870
 2610 Fit       0.015048
 2611 Fit       0.014248
 2612 Fit       0.013930
 2613 Fit       0.016485
 2614 Fit       0.019453
 2615 Fit       0.022507
 2616 Fit       0.025219
 2617 Fit       0.027213
 2618 Fit       0.028000
 2619 Fit       0.011691
 2620 Fit       0.012871
 2621 Fit       0.015124
 2622 Fit       0.017997
 2623 Fit       0.020988
 2624 Fit       0.023641
 2625 Fit       0.025445
 2626 Fit       0.010378
 2627 Fit       0.010882
 2628 Fit       0.012973
 2629 Fit       0.015990
 2630 Fit       0.019342
 2631 Fit       0.022495
 2632 Fit       0.009128
 2633 Fit       0.009961
 2634 Fit       0.012495
 2635 Fit       0.016013
 2636 Fit       0.019881
 2637 Fit       0.008651
 2638 Fit       0.008903
 2639 Fit       0.011388
 2640 Fit       0.015310
 2641 Fit       0.008646
 2642 Fit       0.008686
 2643 Fit       0.011032
 2644 Fit       0.015099
 2645 Fit       0.009686
 2646 Fit       0.009072
 2647 Fit       0.009464
 2648 Fit       0.012156
 2649 Fit       0.014950
 2650 Fit       0.011159
 2651 Fit       0.011176
 2652 Fit       0.011370
 2653 Fit       0.014975
 2654 Fit       0.018023
 2655 Fit       0.017522
 2656 Fit       0.014155
 2657 Fit       0.014134
 2658 Fit      -0.001408
 2659 Fit      -0.000191
 2660 Fit      -0.002847
 2661 Fit      -0.003569
 2662 Fit      -0.002785
 2663 Fit       0.000602
 2664 Fit      -0.002316
 2665 Fit      -0.003960
 2666 Fit      -0.004759
 2667 Fit      -0.004824
 2668 Fit      -0.004372
 2669 Fit      -0.003995
 2670 Fit       0.005413
 2671 Fit       0.000849
 2672 Fit      -0.001841
 2673 Fit      -0.003426
 2674 Fit      -0.004450
 2675 Fit      -0.005156
 2676 Fit      -0.005518
 2677 Fit      -0.005420
 2678 Fit      -0.004922
 2679 Fit      -0.004472
 2680 Fit       0.003004
 2681 Fit      -0.000272
 2682 Fit      -0.002122
 2683 Fit      -0.003207
 2684 Fit      -0.003968
 2685 Fit      -0.004633
 2686 Fit      -0.005225
 2687 Fit      -0.005610
 2688 Fit      -0.005606
 2689 Fit      -0.005126
 2690 Fit      -0.004351
 2691 Fit      -0.003864
 2692 Fit       0.006663
 2693 Fit       0.002014
 2694 Fit      -0.000584
 2695 Fit      -0.001956
 2696 Fit      -0.002680
 2697 Fit      -0.003174
 2698 Fit      -0.003690
 2699 Fit      -0.004302
 2700 Fit      -0.004918
 2701 Fit      -0.005331
 2702 Fit      -0.005304
 2703 Fit      -0.004682
 2704 Fit      -0.003539
 2705 Fit      -0.002374
 2706 Fit       0.004022
 2707 Fit       0.000823
 2708 Fit      -0.000957
 2709 Fit      -0.001811
 2710 Fit      -0.002162
 2711 Fit      -0.002359
 2712 Fit      -0.002640
 2713 Fit      -0.003114
 2714 Fit      -0.003747
 2715 Fit      -0.004385
 2716 Fit      -0.004792
 2717 Fit      -0.004709
 2718 Fit      -0.003927
 2719 Fit      -0.002382
 2720 Fit      -0.000306
 2721 Fit       0.006961
 2722 Fit       0.003032
 2723 Fit       0.000399
 2724 Fit      -0.001077
 2725 Fit      -0.001698
 2726 Fit      -0.001815
 2727 Fit      -0.001758
 2728 Fit      -0.001789
 2729 Fit      -0.002061
 2730 Fit      -0.002593
 2731 Fit      -0.003275
 2732 Fit      -0.003886
 2733 Fit      -0.004137
 2734 Fit      -0.003721
 2735 Fit      -0.002358
 2736 Fit       0.000157
 2737 Fit       0.006948
 2738 Fit       0.003831
 2739 Fit       0.001139
 2740 Fit      -0.000683
 2741 Fit      -0.001617
 2742 Fit      -0.001862
 2743 Fit      -0.001709
 2744 Fit      -0.001459
 2745 Fit      -0.001355
 2746 Fit      -0.001538
 2747 Fit      -0.002017
 2748 Fit      -0.002665
 2749 Fit      -0.003244
 2750 Fit      -0.003431
 2751 Fit      -0.002862
 2752 Fit      -0.001140
 2753 Fit       0.002206
 2754 Fit       0.005552
 2755 Fit       0.003326
 2756 Fit       0.001042
 2757 Fit      -0.000747
 2758 Fit      -0.001805
 2759 Fit      -0.002165
 2760 Fit      -0.002030
 2761 Fit      -0.001677
 2762 Fit      -0.001374
 2763 Fit      -0.001315
 2764 Fit      -0.001572
 2765 Fit      -0.002073
 2766 Fit      -0.002612
 2767 Fit      -0.002871
 2768 Fit      -0.002458
 2769 Fit      -0.000909
 2770 Fit       0.002376
 2771 Fit       0.004076
 2772 Fit       0.002049
 2773 Fit       0.000051
 2774 Fit      -0.001495
 2775 Fit      -0.002362
 2776 Fit      -0.002568
 2777 Fit      -0.002324
 2778 Fit      -0.001925
 2779 Fit      -0.001648
 2780 Fit      -0.001659
 2781 Fit      -0.001955
 2782 Fit      -0.002354
 2783 Fit      -0.002510
 2784 Fit      -0.001964
 2785 Fit      -0.000160
 2786 Fit       0.003620
 2787 Fit       0.004328
 2788 Fit       0.002984
 2789 Fit       0.001179
 2790 Fit      -0.000607
 2791 Fit      -0.001995
 2792 Fit      -0.002767
 2793 Fit      -0.002935
 2794 Fit      -0.002703
 2795 Fit      -0.002365
 2796 Fit      -0.002171
 2797 Fit      -0.002218
 2798 Fit      -0.002393
 2799 Fit      -0.002380
 2800 Fit      -0.001714
 2801 Fit       0.000145
 2802 Fit       0.003735
 2803 Fit       0.002877
 2804 Fit       0.001642
 2805 Fit      -0.000009
 2806 Fit      -0.001608
 2807 Fit      -0.002716
 2808 Fit      -0.003165
 2809 Fit      -0.003103
 2810 Fit      -0.002857
 2811 Fit      -0.002697
 2812 Fit      -0.002626
 2813 Fit      -0.002323
 2814 Fit      -0.001251
 2815 Fit       0.001078
 2816 Fit       0.004582
 2817 Fit       0.001947
 2818 Fit       0.000572
 2819 Fit      -0.001040
 2820 Fit      -0.002448
 2821 Fit      -0.003144
 2822 Fit      -0.003186
 2823 Fit      -0.002970
 2824 Fit      -0.002554
 2825 Fit      -0.001438
 2826 Fit       0.000723
 2827 Fit       0.002847
 2828 Fit       0.003066
 2829 Fit      -0.000134
 2830 Fit      -0.001606
 2831 Fit      -0.002737
 2832 Fit      -0.002721
 2833 Fit      -0.001670
 2834 Fit      -0.000040
 2835 Fit      -0.001777
 2836 Fit       0.007219
 2837 Fit       0.008360
 2838 Fit       0.008068
 2839 Fit       0.007219
 2840 Fit       0.010597
 2841 Fit       0.010066
 2842 Fit       0.009174
 2843 Fit       0.007586
 2844 Fit       0.014205
 2845 Fit       0.012687
 2846 Fit       0.011750
 2847 Fit       0.010748
 2848 Fit       0.009377
 2849 Fit       0.007794
 2850 Fit       0.014773
 2851 Fit       0.013489
 2852 Fit       0.012584
 2853 Fit       0.011796
 2854 Fit       0.011547
 2855 Fit       0.016164
 2856 Fit       0.014670
 2857 Fit       0.013951
 2858 Fit       0.014007
 2859 Fit       0.016138
 2860 Fit       0.015684
 2861 Fit       0.015207
 2862 Fit       0.016348
 2863 Fit       0.017686
 2864 Fit       0.015945
 2865 Fit       0.016011
 2866 Fit       0.004925
 2867 Fit       0.006858
 2868 Fit       0.005116
 2869 Fit       0.007688
 2870 Fit       0.009492
 2871 Fit       0.011197
 2872 Fit       0.006782
 2873 Fit       0.009226
 2874 Fit       0.011014
 2875 Fit       0.012725
 2876 Fit       0.015123
 2877 Fit       0.006998
 2878 Fit       0.009579
 2879 Fit       0.011439
 2880 Fit       0.013039
 2881 Fit       0.014890
 2882 Fit       0.006205
 2883 Fit       0.009266
 2884 Fit       0.011428
 2885 Fit       0.013120
 2886 Fit       0.014793
 2887 Fit       0.016676
 2888 Fit       0.007137
 2889 Fit       0.010049
 2890 Fit       0.012146
 2891 Fit       0.013655
 2892 Fit       0.014436
 2893 Fit       0.007933
 2894 Fit       0.010463
 2895 Fit       0.011998
 2896 Fit       0.009746
 2897 Fit       0.014858
 2898 Fit       0.012443
 2899 Fit       0.009089
 2900 Fit       0.017996
 2901 Fit       0.015197
 2902 Fit       0.012309
 2903 Fit       0.009075
 2904 Fit       0.005831
 2905 Fit       0.019965
 2906 Fit       0.016973
 2907 Fit       0.014428
 2908 Fit       0.011747
 2909 Fit       0.008629
 2910 Fit       0.020029
 2911 Fit       0.017219
 2912 Fit       0.014863
 2913 Fit       0.012422
 2914 Fit       0.009530
 2915 Fit       0.020362
 2916 Fit       0.017347
 2917 Fit       0.014902
 2918 Fit       0.012402
 2919 Fit       0.009361
 2920 Fit       0.018979
 2921 Fit       0.016140
 2922 Fit       0.013667
 2923 Fit       0.010960
 2924 Fit       0.013660
 2925 Fit       0.011055
 2926 Fit       0.014733
 2927 Fit       0.017162
 2928 Fit       0.017899
 2929 Fit       0.016237
 2930 Fit       0.020658
 2931 Fit       0.021379
 2932 Fit       0.020612
 2933 Fit       0.019172
 2934 Fit       0.017343
 2935 Fit       0.025979
 2936 Fit       0.024830
 2937 Fit       0.023118
 2938 Fit       0.021500
 2939 Fit       0.020308
 2940 Fit       0.019416
 2941 Fit       0.031027
 2942 Fit       0.027895
 2943 Fit       0.025102
 2944 Fit       0.023096
 2945 Fit       0.022053
 2946 Fit       0.028273
 2947 Fit       0.024917
 2948 Fit       0.023236
 2949 Fit       0.031085
 2950 Fit       0.026064
 2951 Fit       0.023596
 2952 Fit       0.009850
 2953 Fit       0.007882
 2954 Fit       0.012474
 2955 Fit       0.014057
 2956 Fit       0.011047
 2957 Fit       0.007559
 2958 Fit       0.005765
 2959 Fit       0.005033
 2960 Fit       0.011051
 2961 Fit       0.016256
 2962 Fit       0.019099
 2963 Fit       0.009140
 2964 Fit       0.001540
 2965 Fit       0.001164
 2966 Fit       0.001070
 2967 Fit       0.008737
 2968 Fit       0.015639
 2969 Fit       0.020980
 2970 Fit       0.024518
 2971 Fit      -0.005079
 2972 Fit       0.015630
 2973 Fit       0.022962
 2974 Fit       0.028516
 2975 Fit       0.002372
 2976 Fit      -0.000291
 2977 Fit      -0.005124
 2978 Fit      -0.010316
 2979 Fit       0.002908
 2980 Fit       0.001788
 2981 Fit      -0.001705
 2982 Fit      -0.007757
 2983 Fit       0.004147
 2984 Fit       0.002626
 2985 Fit      -0.001371
 2986 Fit      -0.008086
 2987 Fit       0.003777
 2988 Fit      -0.001953
 2989 Fit      -0.011148
 2990 Fit       0.007101
 2991 Fit      -0.000104
 2992 Fit       0.005632
 2993 Fit      -0.005127
 2994 Fit       0.023544
 2995 Fit       0.022950
 2996 Fit       0.022115
 2997 Fit       0.019182
 2998 Fit       0.020593
 2999 Fit       0.021530
 3000 Fit       0.020930
 3001 Fit       0.018961
 3002 Fit       0.016362
 3003 Fit       0.019743
 3004 Fit       0.020723
 3005 Fit       0.020299
 3006 Fit       0.019259
 3007 Fit       0.018919
 3008 Fit       0.020749
 3009 Fit       0.017704
 3010 Fit       0.019843
 3011 Fit       0.020413
 3012 Fit       0.020635
 3013 Fit       0.021962
 3014 Fit       0.018621
 3015 Fit       0.020090
 3016 Fit       0.020654
 3017 Fit       0.018301
 3018 Fit       0.028699
 3019 Fit       0.032840
 3020 Fit       0.022501
 3021 Fit       0.023776
 3022 Fit       0.026574
 3023 Fit       0.030024
 3024 Fit       0.018884
 3025 Fit       0.021799
 3026 Fit       0.024650
 3027 Fit       0.027510
 3028 Fit       0.030708
 3029 Fit       0.017604
 3030 Fit       0.020510
 3031 Fit       0.023146
 3032 Fit       0.025722
 3033 Fit       0.028338
 3034 Fit       0.031209
 3035 Fit       0.020331
 3036 Fit       0.023030
 3037 Fit       0.025728
 3038 Fit       0.028307
 3039 Fit       0.030518
 3040 Fit       0.009216
 3041 Fit       0.008021
 3042 Fit       0.008149
 3043 Fit       0.010629
 3044 Fit       0.004924
 3045 Fit       0.008656
 3046 Fit       0.003494
 3047 Fit       0.007810
 3048 Fit       0.009238
 3049 Fit       0.007318
 3050 Fit       0.009013
 3051 Fit       0.006842
 3052 Fit       0.009265
 3053 Fit       0.007542
 -----------------------------------------------------------------
 Leave Link  602 at Thu Jan 16 21:47:23 2014, MaxMem=   235929600 cpu:         1.0

 Test job not archived.
 1\1\GINC-G30\SP\RHF\Gen\C9H10Cl1N1O2\KOLAR\16-Jan-2014\0\\# hf/gen pop
 =mk iop(6/33=2,6/41=5,6/42=2)\\na resp\\0,1\C,0,0.817067,1.261819,-0.2
 14645\C,0,2.174225,1.142842,-0.509024\C,0,2.880799,0.043537,-0.021266\
 C,0,2.24929,-0.925666,0.754834\C,0,0.889117,-0.788284,1.036815\C,0,0.1
 49183,0.301062,0.558961\C,0,-1.332699,0.427072,0.83108\C,0,-2.203811,-
 0.079259,-0.338712\H,0,-1.912202,0.462014,-1.248879\C,0,-3.692643,0.27
 4658,-0.112048\O,0,-4.055021,1.285925,0.44184\O,0,-4.541655,-0.630009,
 -0.621869\N,0,-2.099587,-1.514006,-0.653939\Cl,0,4.594074,-0.116634,-0
 .384525\H,0,0.270095,2.124812,-0.587955\H,0,2.681332,1.89552,-1.10339\
 H,0,2.812882,-1.770287,1.136836\H,0,0.402697,-1.538754,1.656093\H,0,-1
 .602051,-0.133122,1.736366\H,0,-1.609912,1.468824,1.018626\H,0,-1.2595
 85,-1.710004,-1.192964\H,0,-2.031486,-2.062361,0.203305\H,0,-3.963662,
 -1.349837,-0.979275\\Version=AM64L-G09RevD.01\State=1-A\HF=-1010.30045
 74\RMSD=5.795e-09\Dipole=1.1063766,-1.068119,-0.2271444\Quadrupole=-20
 .4150915,11.2438751,9.1712164,6.9107879,1.7467436,-4.3982785\PG=C01 [X
 (C9H10Cl1N1O2)]\\@


 ERWIN WITH HIS PSI CAN DO
 CALCULATIONS QUITE A FEW.
 BUT ONE THING HAS NOT BEEN SEEN
 JUST WHAT DOES PSI REALLY MEAN.
 -- WALTER HUCKEL, TRANS. BY FELIX BLOCH
 Job cpu time:       0 days  0 hours  0 minutes 31.3 seconds.
 File lengths (MBytes):  RWF=     17 Int=      0 D2E=      0 Chk=      3 Scr=      1
 Normal termination of Gaussian 09 at Thu Jan 16 21:47:24 2014.
30.17user 1.11system 0:35.71elapsed 87%CPU (0avgtext+0avgdata 7458768maxresident)k
8inputs+46440outputs (0major+620785minor)pagefaults 0swaps
