Linux g59 2.6.38.6-client #1 SMP Tue Jun 12 11:27:21 CEST 2012 x86_64 GNU/Linux
Thu Jan 16 22:36:46 CET 2014

 Entering Gaussian System, Link 0=/usr/local/programs/common/gaussian/gaussian09_d01/arch/amd64-pgi_10.4.0-acml/g09/g09
 Initial command:
 /usr/local/programs/common/gaussian/gaussian09_d01/arch/amd64-pgi_10.4.0-acml/g09/l1.exe "/scratch/kolar/g09_25847/Gau-1799.inp" -scrdir="/scratch/kolar/g09_25847/"
 Entering Link 1 = /usr/local/programs/common/gaussian/gaussian09_d01/arch/amd64-pgi_10.4.0-acml/g09/l1.exe PID=      1801.
  
 Copyright (c) 1988,1990,1992,1993,1995,1998,2003,2009,2013,
            Gaussian, Inc.  All Rights Reserved.
  
 This is part of the Gaussian(R) 09 program.  It is based on
 the Gaussian(R) 03 system (copyright 2003, Gaussian, Inc.),
 the Gaussian(R) 98 system (copyright 1998, Gaussian, Inc.),
 the Gaussian(R) 94 system (copyright 1995, Gaussian, Inc.),
 the Gaussian 92(TM) system (copyright 1992, Gaussian, Inc.),
 the Gaussian 90(TM) system (copyright 1990, Gaussian, Inc.),
 the Gaussian 88(TM) system (copyright 1988, Gaussian, Inc.),
 the Gaussian 86(TM) system (copyright 1986, Carnegie Mellon
 University), and the Gaussian 82(TM) system (copyright 1983,
 Carnegie Mellon University). Gaussian is a federally registered
 trademark of Gaussian, Inc.
  
 This software contains proprietary and confidential information,
 including trade secrets, belonging to Gaussian, Inc.
  
 This software is provided under written license and may be
 used, copied, transmitted, or stored only in accord with that
 written license.
  
 The following legend is applicable only to US Government
 contracts under FAR:
  
                    RESTRICTED RIGHTS LEGEND
  
 Use, reproduction and disclosure by the US Government is
 subject to restrictions as set forth in subparagraphs (a)
 and (c) of the Commercial Computer Software - Restricted
 Rights clause in FAR 52.227-19.
  
 Gaussian, Inc.
 340 Quinnipiac St., Bldg. 40, Wallingford CT 06492
  
  
 ---------------------------------------------------------------
 Warning -- This program may not be used in any manner that
 competes with the business of Gaussian, Inc. or will provide
 assistance to any competitor of Gaussian, Inc.  The licensee
 of this program is prohibited from giving any competitor of
 Gaussian, Inc. access to this program.  By using this program,
 the user acknowledges that Gaussian, Inc. is engaged in the
 business of creating and licensing software in the field of
 computational chemistry and represents and warrants to the
 licensee that it is not a competitor of Gaussian, Inc. and that
 it will not use this program in any manner prohibited above.
 ---------------------------------------------------------------
  

 Cite this work as:
 Gaussian 09, Revision D.01,
 M. J. Frisch, G. W. Trucks, H. B. Schlegel, G. E. Scuseria, 
 M. A. Robb, J. R. Cheeseman, G. Scalmani, V. Barone, B. Mennucci, 
 G. A. Petersson, H. Nakatsuji, M. Caricato, X. Li, H. P. Hratchian, 
 A. F. Izmaylov, J. Bloino, G. Zheng, J. L. Sonnenberg, M. Hada, 
 M. Ehara, K. Toyota, R. Fukuda, J. Hasegawa, M. Ishida, T. Nakajima, 
 Y. Honda, O. Kitao, H. Nakai, T. Vreven, J. A. Montgomery, Jr., 
 J. E. Peralta, F. Ogliaro, M. Bearpark, J. J. Heyd, E. Brothers, 
 K. N. Kudin, V. N. Staroverov, T. Keith, R. Kobayashi, J. Normand, 
 K. Raghavachari, A. Rendell, J. C. Burant, S. S. Iyengar, J. Tomasi, 
 M. Cossi, N. Rega, J. M. Millam, M. Klene, J. E. Knox, J. B. Cross, 
 V. Bakken, C. Adamo, J. Jaramillo, R. Gomperts, R. E. Stratmann, 
 O. Yazyev, A. J. Austin, R. Cammi, C. Pomelli, J. W. Ochterski, 
 R. L. Martin, K. Morokuma, V. G. Zakrzewski, G. A. Voth, 
 P. Salvador, J. J. Dannenberg, S. Dapprich, A. D. Daniels, 
 O. Farkas, J. B. Foresman, J. V. Ortiz, J. Cioslowski, 
 and D. J. Fox, Gaussian, Inc., Wallingford CT, 2013.
 
 ******************************************
 Gaussian 09:  AM64L-G09RevD.01 24-Apr-2013
                16-Jan-2014 
 ******************************************
 %mem=1800mb
 -----------------------------------------
 # hf/gen pop=mk iop(6/33=2,6/41=5,6/42=2)
 -----------------------------------------
 1/38=1/1;
 2/12=2,17=6,18=5,40=1/2;
 3/5=7,11=9,16=1,25=1,30=1/1,2,3;
 4//1;
 5/5=2,38=5/2;
 6/7=2,8=2,9=2,10=2,15=8,20=1,28=1,33=2,41=5,42=2/1,2;
 99/5=1,9=1/99;
 -------
 na resp
 -------
 Symbolic Z-matrix:
 Charge =  0 Multiplicity = 1
 6                     1.75911  -1.20844   0.00003 
 6                     0.36742  -1.20843   0.00001 
 6                    -0.32606   0.        0.00001 
 6                     0.36742   1.20843   0.00002 
 6                     1.75911   1.20844   0. 
 6                     2.48194   0.        0. 
 7                     3.859    0.         0.00001 
 35                   -2.24182  0.        -0.00001 
 1                     2.29453  -2.1551    0.00007 
 1                    -0.17527  -2.14792   0.00002 
 1                    -0.17527   2.14793   0.00004 
 1                     2.29453   2.1551   0. 
 1                     4.37936  -0.86112  -0.00031 
 1                     4.37937   0.86111  -0.00004 
 
                          Input orientation:                          
 ---------------------------------------------------------------------
 Center     Atomic      Atomic             Coordinates (Angstroms)
 Number     Number       Type             X           Y           Z
 ---------------------------------------------------------------------
      1          6           0        1.759105   -1.208444    0.000029
      2          6           0        0.367417   -1.208425    0.000013
      3          6           0       -0.326064    0.000003    0.000012
      4          6           0        0.367417    1.208427    0.000021
      5          6           0        1.759108    1.208445    0.000004
      6          6           0        2.481941    0.000001    0.000002
      7          7           0        3.859001   -0.000003    0.000009
      8         35           0       -2.241823   -0.000001   -0.000009
      9          1           0        2.294533   -2.155102    0.000069
     10          1           0       -0.175274   -2.147925    0.000017
     11          1           0       -0.175270    2.147930    0.000040
     12          1           0        2.294533    2.155104   -0.000003
     13          1           0        4.379363   -0.861123   -0.000306
     14          1           0        4.379369    0.861113   -0.000042
 ---------------------------------------------------------------------
                    Distance matrix (angstroms):
                    1          2          3          4          5
     1  C    0.000000
     2  C    1.391688   0.000000
     3  C    2.410036   1.393275   0.000000
     4  C    2.788918   2.416852   1.393271   0.000000
     5  C    2.416889   2.788918   2.410036   1.391691   0.000000
     6  C    1.408130   2.435468   2.808005   2.435468   1.408128
     7  N    2.422786   3.694786   4.185065   3.694788   2.422787
     8  Br   4.179445   2.875486   1.915759   2.875488   4.179449
     9  H    1.087587   2.147085   3.392935   3.876481   3.405896
    10  H    2.150453   1.084976   2.153214   3.399943   3.873894
    11  H    3.873894   3.399945   2.153214   1.084977   2.150454
    12  H    3.405898   3.876481   3.392932   2.147085   1.087586
    13  H    2.643177   4.026950   4.783574   4.514283   3.338989
    14  H    3.338989   4.514282   4.783577   4.026957   2.643181
                    6          7          8          9         10
     6  C    0.000000
     7  N    1.377060   0.000000
     8  Br   4.723764   6.100824   0.000000
     9  H    2.163236   2.663083   5.022249   0.000000
    10  H    3.416779   4.570442   2.980638   2.469817   0.000000
    11  H    3.416778   4.570444   2.980646   4.961453   4.295855
    12  H    2.163236   2.663090   5.022251   4.310206   4.961452
    13  H    2.083685   1.006133   6.676948   2.453752   4.732925
    14  H    2.083686   1.006133   6.676953   3.666619   5.458854
                   11         12         13         14
    11  H    0.000000
    12  H    2.469813   0.000000
    13  H    5.458854   3.666625   0.000000
    14  H    4.732931   2.453763   1.722236   0.000000
 Stoichiometry    C6H6BrN
 Framework group  C1[X(C6H6BrN)]
 Deg. of freedom    36
 Full point group                 C1      NOp   1
 Largest Abelian subgroup         C1      NOp   1
 Largest concise Abelian subgroup C1      NOp   1
                         Standard orientation:                         
 ---------------------------------------------------------------------
 Center     Atomic      Atomic             Coordinates (Angstroms)
 Number     Number       Type             X           Y           Z
 ---------------------------------------------------------------------
      1          6           0       -1.759105   -1.208444   -0.000029
      2          6           0       -0.367417   -1.208425   -0.000013
      3          6           0        0.326064    0.000003   -0.000012
      4          6           0       -0.367417    1.208427   -0.000021
      5          6           0       -1.759108    1.208445   -0.000004
      6          6           0       -2.481941    0.000001   -0.000002
      7          7           0       -3.859001   -0.000003   -0.000009
      8         35           0        2.241823   -0.000001    0.000009
      9          1           0       -2.294533   -2.155102   -0.000069
     10          1           0        0.175274   -2.147925   -0.000017
     11          1           0        0.175270    2.147930   -0.000040
     12          1           0       -2.294533    2.155104    0.000003
     13          1           0       -4.379363   -0.861123    0.000306
     14          1           0       -4.379369    0.861113    0.000042
 ---------------------------------------------------------------------
 Rotational constants (GHZ):      5.5997164      0.6310372      0.5671271
 General basis read from cards:  (5D, 7F)
 There are   147 symmetry adapted cartesian basis functions of A   symmetry.
 There are   138 symmetry adapted basis functions of A   symmetry.
   138 basis functions,   303 primitive gaussians,   147 cartesian basis functions
    42 alpha electrons       42 beta electrons
       nuclear repulsion energy       519.8656822109 Hartrees.
 NAtoms=   14 NActive=   14 NUniq=   14 SFac= 1.00D+00 NAtFMM=   60 NAOKFM=F Big=F
 Integral buffers will be    131072 words long.
 Raffenetti 1 integral format.
 Two-electron integral symmetry is turned on.
 One-electron integrals computed using PRISM.
 NBasis=   138 RedAO= T EigKep=  4.50D-04  NBF=   138
 NBsUse=   138 1.00D-06 EigRej= -1.00D+00 NBFU=   138
 ExpMin= 1.43D-01 ExpMax= 5.74D+05 ExpMxC= 5.74D+03 IAcc=2 IRadAn=         4 AccDes= 0.00D+00
 Harris functional with IExCor=  205 and IRadAn=       4 diagonalized for initial guess.
 HarFok:  IExCor=  205 AccDes= 0.00D+00 IRadAn=         4 IDoV= 1 UseB2=F ITyADJ=14
 ICtDFT=  3500011 ScaDFX=  1.000000  1.000000  1.000000  1.000000
 FoFCou: FMM=F IPFlag=           0 FMFlag=      100000 FMFlg1=           0
         NFxFlg=           0 DoJE=T BraDBF=F KetDBF=T FulRan=T
         wScrn=  0.000000 ICntrl=     500 IOpCl=  0 I1Cent=   200000004 NGrid=           0
         NMat0=    1 NMatS0=      1 NMatT0=    0 NMatD0=    1 NMtDS0=    0 NMtDT0=    0
 Petite list used in FoFCou.
 Keep R1 ints in memory in canonical form, NReq=47704617.
 Requested convergence on RMS density matrix=1.00D-08 within 128 cycles.
 Requested convergence on MAX density matrix=1.00D-06.
 Requested convergence on             energy=1.00D-06.
 No special actions if energy rises.
 SCF Done:  E(RHF) =  -2854.73455104     A.U. after   14 cycles
            NFock= 14  Conv=0.42D-08     -V/T= 1.9989

 **********************************************************************

            Population analysis using the SCF density.

 **********************************************************************

 Orbital symmetries:
 BldTbl:  Degeneracy threshold= 1.00D-02
       Occupied  (A) (A) (A) (A) (A) (A) (A) (A) (A) (A) (A) (A)
                 (A) (A) (A) (A) (A) (A) (A) (A) (A) (A) (A) (A)
                 (A) (A) (A) (A) (A) (A) (A) (A) (A) (A) (A) (A)
                 (A) (A) (A) (A) (A) (A)
       Virtual   (A) (A) (A) (A) (A) (A) (A) (A) (A) (A) (A) (A)
                 (A) (A) (A) (A) (A) (A) (A) (A) (A) (A) (A) (A)
                 (A) (A) (A) (A) (A) (A) (A) (A) (A) (A) (A) (A)
                 (A) (A) (A) (A) (A) (A) (A) (A) (A) (A) (A) (A)
                 (A) (A) (A) (A) (A) (A) (A) (A) (A) (A) (A) (A)
                 (A) (A) (A) (A) (A) (A) (A) (A) (A) (A) (A) (A)
                 (A) (A) (A) (A) (A) (A) (A) (A) (A) (A) (A) (A)
                 (A) (A) (A) (A) (A) (A) (A) (A) (A) (A) (A) (A)
 The electronic state is 1-A.
 Alpha  occ. eigenvalues -- -489.83050 -64.37426 -58.54107 -58.53937 -58.53927
 Alpha  occ. eigenvalues --  -15.57296 -11.29460 -11.27884 -11.24962 -11.24959
 Alpha  occ. eigenvalues --  -11.23328 -11.23327  -9.65174  -7.46730  -7.45877
 Alpha  occ. eigenvalues --   -7.45856  -3.21044  -3.20637  -3.20619  -3.19627
 Alpha  occ. eigenvalues --   -3.19627  -1.23274  -1.14506  -1.03260  -1.02286
 Alpha  occ. eigenvalues --   -0.94116  -0.84573  -0.80662  -0.71469  -0.70704
 Alpha  occ. eigenvalues --   -0.63720  -0.61221  -0.59746  -0.59208  -0.54425
 Alpha  occ. eigenvalues --   -0.50333  -0.48670  -0.47660  -0.40167  -0.40057
 Alpha  occ. eigenvalues --   -0.34590  -0.28416
 Alpha virt. eigenvalues --    0.13431   0.15436   0.17448   0.21938   0.25801
 Alpha virt. eigenvalues --    0.26994   0.31050   0.31984   0.34142   0.35991
 Alpha virt. eigenvalues --    0.41985   0.45460   0.47594   0.50362   0.53670
 Alpha virt. eigenvalues --    0.61669   0.64748   0.65655   0.66017   0.66584
 Alpha virt. eigenvalues --    0.67736   0.69480   0.70420   0.73050   0.76071
 Alpha virt. eigenvalues --    0.77572   0.81243   0.81408   0.82554   0.83150
 Alpha virt. eigenvalues --    0.83346   0.86161   0.87097   0.91015   0.92676
 Alpha virt. eigenvalues --    0.95879   0.98144   1.00315   1.04746   1.06212
 Alpha virt. eigenvalues --    1.06634   1.10740   1.12985   1.14454   1.16573
 Alpha virt. eigenvalues --    1.17924   1.20332   1.25169   1.26208   1.26431
 Alpha virt. eigenvalues --    1.31861   1.38437   1.42093   1.43969   1.49263
 Alpha virt. eigenvalues --    1.49330   1.59566   1.63516   1.68336   1.71035
 Alpha virt. eigenvalues --    1.73023   1.78234   1.79047   1.83870   1.86766
 Alpha virt. eigenvalues --    1.94932   2.07199   2.08308   2.10535   2.16335
 Alpha virt. eigenvalues --    2.25400   2.27828   2.29531   2.34573   2.38060
 Alpha virt. eigenvalues --    2.41054   2.45213   2.48861   2.54917   2.57590
 Alpha virt. eigenvalues --    2.61530   2.63111   2.71739   2.78790   2.79493
 Alpha virt. eigenvalues --    2.92486   2.96391   2.98488   3.02797   3.10175
 Alpha virt. eigenvalues --    3.12939   3.21457   3.22372   3.49819   3.75790
 Alpha virt. eigenvalues --    9.18332
          Condensed to atoms (all electrons):
               1          2          3          4          5          6
     1  C    4.998352   0.537749  -0.052236  -0.033689  -0.038148   0.559496
     2  C    0.537749   4.886448   0.547146  -0.042089  -0.033689  -0.033894
     3  C   -0.052236   0.547146   4.842513   0.547150  -0.052236  -0.024390
     4  C   -0.033689  -0.042089   0.547150   4.886448   0.537746  -0.033894
     5  C   -0.038148  -0.033689  -0.052236   0.537746   4.998354   0.559499
     6  C    0.559496  -0.033894  -0.024390  -0.033894   0.559499   4.430582
     7  N   -0.062716   0.002848   0.000315   0.002848  -0.062716   0.260534
     8  Br   0.002898  -0.062924   0.278418  -0.062924   0.002898   0.000329
     9  H    0.378208  -0.024539   0.001888   0.000208   0.002607  -0.034622
    10  H   -0.026831   0.379884  -0.028919   0.002585   0.000220   0.001391
    11  H    0.000220   0.002585  -0.028919   0.379884  -0.026832   0.001391
    12  H    0.002607   0.000208   0.001888  -0.024540   0.378208  -0.034622
    13  H   -0.000427   0.000057   0.000000  -0.000070   0.002511  -0.028388
    14  H    0.002511  -0.000070   0.000000   0.000057  -0.000427  -0.028388
               7          8          9         10         11         12
     1  C   -0.062716   0.002898   0.378208  -0.026831   0.000220   0.002607
     2  C    0.002848  -0.062924  -0.024539   0.379884   0.002585   0.000208
     3  C    0.000315   0.278418   0.001888  -0.028919  -0.028919   0.001888
     4  C    0.002848  -0.062924   0.000208   0.002585   0.379884  -0.024540
     5  C   -0.062716   0.002898   0.002607   0.000220  -0.026832   0.378208
     6  C    0.260534   0.000329  -0.034622   0.001391   0.001391  -0.034622
     7  N    7.199481   0.000001  -0.002442  -0.000067  -0.000067  -0.002442
     8  Br   0.000001  35.007651  -0.000103  -0.001449  -0.001449  -0.000103
     9  H   -0.002442  -0.000103   0.475134  -0.001645   0.000009  -0.000112
    10  H   -0.000067  -0.001449  -0.001645   0.444303  -0.000094   0.000009
    11  H   -0.000067  -0.001449   0.000009  -0.000094   0.444303  -0.001645
    12  H   -0.002442  -0.000103  -0.000112   0.000009  -0.001645   0.475134
    13  H    0.335522   0.000000   0.003157  -0.000005   0.000002  -0.000068
    14  H    0.335522   0.000000  -0.000068   0.000002  -0.000005   0.003157
              13         14
     1  C   -0.000427   0.002511
     2  C    0.000057  -0.000070
     3  C    0.000000   0.000000
     4  C   -0.000070   0.000057
     5  C    0.002511  -0.000427
     6  C   -0.028388  -0.028388
     7  N    0.335522   0.335522
     8  Br   0.000000   0.000000
     9  H    0.003157  -0.000068
    10  H   -0.000005   0.000002
    11  H    0.000002  -0.000005
    12  H   -0.000068   0.003157
    13  H    0.311984  -0.017806
    14  H   -0.017806   0.311984
 Mulliken charges:
               1
     1  C   -0.267995
     2  C   -0.159719
     3  C   -0.032620
     4  C   -0.159720
     5  C   -0.267996
     6  C    0.404976
     7  N   -1.006619
     8  Br  -0.163241
     9  H    0.202319
    10  H    0.230618
    11  H    0.230618
    12  H    0.202319
    13  H    0.393530
    14  H    0.393530
 Sum of Mulliken charges =   0.00000
 Mulliken charges with hydrogens summed into heavy atoms:
               1
     1  C   -0.065676
     2  C    0.070899
     3  C   -0.032620
     4  C    0.070898
     5  C   -0.065677
     6  C    0.404976
     7  N   -0.219558
     8  Br  -0.163241
 DipInt: DoE/N= T F RetVal/Mat= T F Init=T NMatP=  1 IDeriv=0 Min/MaxMlt=  0  4
 Entering OneElI...
 OneElI was handed   235871900 working-precision words.
 Multipole integrals L=0 to 4 MinM= 0 MaxM= 0.
 Requested accuracy = 0.1000D-12
 ShPair: Thresh= 1.00D-13 NBox=     0 BxSize= 0.00D+00 RnKept= 1.26D+01
         NSMCal=                 1378 NSMKep=                1277
 PrsmSu:  NPrtUS=   1 ThrOK=F IAlg=1 NPAlg=1 LenDen=           0.
 Prism:   IPart=     0 DynPar=F LinDyn=F Incr=          12.
 PRISM was handed   235747065 working-precision words and  1277 shell-pairs
 IPart=  0 NShTot=        1277 NBatch=          94 AvBLen=        13.6
 PrSmSu:  NxtVal=             13.
 Electronic moments (au):
        -84.00000000         -1.60064423         -0.00000314          0.00025323
      -1482.48001253       -235.35212503        -48.14636211          0.00001238
         -0.00233055         -0.00037555       2392.97524239         -0.00121188
          0.00137825        437.40727454          0.00266737         -0.02180348
         40.09214549         -0.00002700          0.00645092          0.00070874
     -48863.79930871      -2523.30990816       -186.15001786         -0.01364634
          0.08200715          0.00176811         -0.00719901         -0.00541079
         -0.00112485      -2451.13479230       -854.22246244       -190.56142809
          0.01232447         -0.00751243         -0.00000855
 Electronic spatial extent (au):  <R**2>=           1765.9785
 DipInt: DoE/N= F T RetVal/Mat= T F Init=T NMatP=  1 IDeriv=0 Min/MaxMlt=  0  4
 Nuclear    moments (au):
         84.00000000          0.00000000          0.00000000          0.00000000
       1447.87248054        196.57551256          0.00000041          0.00000000
         -0.00001327          0.00000603      -2412.58394183          0.00120089
          0.00000000       -428.22530008         -0.00284060          0.04245750
         -0.00000293         -0.00000061         -0.00602360          0.00224948
      45531.38486481       1759.75507141          0.00000000          0.01382100
         -0.25545502         -0.00154288          0.00642946          0.00000000
          0.00000000       1711.70219340          0.00002417          0.00000146
         -0.03814963          0.00176558          0.00000485
 Total      moments (au):
          0.00000000         -1.60064423         -0.00000314          0.00025323
        -34.60753199        -38.77661246        -48.14636169          0.00001238
         -0.00234382         -0.00036952        -19.60869944         -0.00001099
          0.00137825          9.18197447         -0.00017323          0.02065402
         40.09214256         -0.00002761          0.00042732          0.00295822
      -3332.41444390       -763.55483675       -186.15001786          0.00017467
         -0.17344787          0.00022523         -0.00076955         -0.00541079
         -0.00112485       -739.43259890       -854.22243827       -190.56142663
         -0.02582515         -0.00574685         -0.00000370
 Traceless Quadrup. (au):
          5.90263672          1.73355625         -7.63619298          0.00001238
         -0.00234382         -0.00036952
 Charge=              0.0000 electrons
 Dipole moment (field-independent basis, Debye):
    X=             -4.0684    Y=              0.0000    Z=              0.0006  Tot=              4.0684
 Quadrupole moment (field-independent basis, Debye-Ang):
   XX=            -46.5483   YY=            -52.1559   ZZ=            -64.7585
   XY=              0.0000   XZ=             -0.0032   YZ=             -0.0005
 Traceless Quadrupole moment (field-independent basis, Debye-Ang):
   XX=              7.9392   YY=              2.3317   ZZ=            -10.2709
   XY=              0.0000   XZ=             -0.0032   YZ=             -0.0005
 Octapole moment (field-independent basis, Debye-Ang**2):
  XXX=            -13.9567  YYY=              0.0000  ZZZ=              0.0010  XYY=              6.5354
  XXY=             -0.0001  XXZ=              0.0147  XZZ=             28.5360  YZZ=              0.0000
  YYZ=              0.0003  XYZ=              0.0021
 Hexadecapole moment (field-independent basis, Debye-Ang**3):
 XXXX=          -1255.1470 YYYY=           -287.5913 ZZZZ=            -70.1130 XXXY=              0.0001
 XXXZ=             -0.0653 YYYX=              0.0001 YYYZ=             -0.0003 ZZZX=             -0.0020
 ZZZY=             -0.0004 XXYY=           -278.5058 XXZZ=           -321.7411 YYZZ=            -71.7746
 XXYZ=             -0.0097 YYXZ=             -0.0022 ZZXY=              0.0000
 N-N= 5.198656822109D+02 E-N=-7.856531499471D+03  KE= 2.857969353240D+03
 Entering OneElI...
 OneElI was handed   235884855 working-precision words.
 Calculate electrostatic properties
    NBasis =   138  MinDer = 0  MaxDer = 0
    NGrid  =    14  NMatD  =   1
 Requested accuracy = 0.1000D-12
 ShPair: Thresh= 1.00D-13 NBox=     0 BxSize= 0.00D+00 RnKept= 1.26D+01
         NSMCal=                 1378 NSMKep=                1191
 PrsmSu:  NPrtUS=   1 ThrOK=F IAlg=1 NPAlg=1 LenDen=           0.
 Prism:   IPart=     0 DynPar=F LinDyn=F Incr=         166.
 PRISM was handed   235768791 working-precision words and  1191 shell-pairs
 IPart=  0 NShTot=       16674 NBatch=        1192 AvBLen=        14.0
 PrSmSu:  NxtVal=            167.
 --------------------------------------------------------
       Center         ----      EFG at Nuclei      ----
                      3XX-RR        3YY-RR        3ZZ-RR
 --------------------------------------------------------
     1   Atom        0.113142      0.050518     -0.163660
     2   Atom        0.206619      0.155025     -0.361644
     3   Atom       -0.343096      0.316164      0.026932
     4   Atom        0.206617      0.155027     -0.361644
     5   Atom        0.113138      0.050519     -0.163657
     6   Atom        0.026509      0.353779     -0.380288
     7   Atom       -0.646290     -0.569772      1.216063
     8   Atom       -6.746210      3.293848      3.452362
     9   Atom        0.026545     -0.200065      0.173519
    10   Atom        0.032462     -0.197142      0.164680
    11   Atom        0.032464     -0.197143      0.164679
    12   Atom        0.026546     -0.200066      0.173520
    13   Atom        0.007420     -0.262800      0.255380
    14   Atom        0.007416     -0.262797      0.255380
 --------------------------------------------------------
                        XY            XZ            YZ
 --------------------------------------------------------
     1   Atom       -0.008044      0.000010     -0.000005
     2   Atom       -0.004554      0.000005      0.000003
     3   Atom       -0.000001     -0.000002      0.000002
     4   Atom        0.004553     -0.000001     -0.000005
     5   Atom        0.008045     -0.000011     -0.000010
     6   Atom        0.000000     -0.000022      0.000000
     7   Atom       -0.000001      0.000216      0.000279
     8   Atom        0.000028     -0.000129      0.000004
     9   Atom       -0.192134     -0.000007     -0.000015
    10   Atom        0.194335      0.000001     -0.000002
    11   Atom       -0.194334      0.000004      0.000007
    12   Atom        0.192134      0.000002     -0.000003
    13   Atom       -0.257152      0.000110      0.000178
    14   Atom        0.257155      0.000031     -0.000022
 --------------------------------------------------------


 ---------------------------------------------------------------------------------
              Nuclear Quadrupole Coupling Constant in Principal Axis System
 ---------------------------------------------------------------------------------

       Atom             a.u.   MegaHertz   Gauss  10(-4) cm-1        Axes

              Baa    -0.6463     3.104     1.108     1.035  1.0000  0.0000 -0.0001
     7 N(14)  Bbb    -0.5698     2.736     0.976     0.913  0.0000  1.0000 -0.0002
              Bcc     1.2161    -5.840    -2.084    -1.948  0.0001  0.0002  1.0000
 
              Baa    -6.7462   496.143   177.036   165.496  1.0000  0.0000  0.0000
     8 Br(79) Bbb     3.2938  -242.243   -86.438   -80.803  0.0000  1.0000  0.0000
              Bcc     3.4524  -253.900   -90.598   -84.692  0.0000  0.0000  1.0000
 

 ---------------------------------------------------------------------------------

 No NMR shielding tensors so no spin-rotation constants.
 Leave Link  601 at Thu Jan 16 22:36:56 2014, MaxMem=   235929600 cpu:         0.2
 FitSet:  NAtFit=    14 NAtPot=    14 NAtFrz=     0 MDM=    18 TotChg=   0.00000
 Merz-Kollman atomic radii used.
 Atom Element Radius
    1     6    1.50
    2     6    1.50
    3     6    1.50
    4     6    1.50
    5     6    1.50
    6     6    1.50
    7     7    1.50
    8    35    2.30
    9     1    1.20
   10     1    1.20
   11     1    1.20
   12     1    1.20
   13     1    1.20
   14     1    1.20
 Generate VDW surfaces: Layer= 5 Dens= 2 Start= 1.400 Inc= 0.179

 **********************************************************************

            Electrostatic Properties Using The SCF Density

 **********************************************************************

       Atomic Center    1 is at  -1.759105 -1.208444 -0.000029
       Atomic Center    2 is at  -0.367417 -1.208425 -0.000013
       Atomic Center    3 is at   0.326064  0.000003 -0.000012
       Atomic Center    4 is at  -0.367417  1.208427 -0.000021
       Atomic Center    5 is at  -1.759108  1.208445 -0.000004
       Atomic Center    6 is at  -2.481941  0.000001 -0.000002
       Atomic Center    7 is at  -3.859001 -0.000003 -0.000009
       Atomic Center    8 is at   2.241823 -0.000001  0.000009
       Atomic Center    9 is at  -2.294533 -2.155102 -0.000069
       Atomic Center   10 is at   0.175274 -2.147925 -0.000017
       Atomic Center   11 is at   0.175270  2.147930 -0.000040
       Atomic Center   12 is at  -2.294533  2.155104  0.000003
       Atomic Center   13 is at  -4.379363 -0.861123  0.000306
       Atomic Center   14 is at  -4.379369  0.861113  0.000042
      ESP Fit Center   15 is at  -1.759105 -1.208444  2.099971
      ESP Fit Center   16 is at  -1.399984 -0.586428  1.973326
      ESP Fit Center   17 is at  -2.477347 -1.208444  1.973326
      ESP Fit Center   18 is at  -2.118226 -1.830460  1.973326
      ESP Fit Center   19 is at  -1.399984 -1.830460  1.973326
      ESP Fit Center   20 is at  -3.054280 -1.588742  1.608664
      ESP Fit Center   21 is at  -1.951209 -2.544558  1.608664
      ESP Fit Center   22 is at  -1.198355 -2.436314  1.608664
      ESP Fit Center   23 is at  -1.197110 -2.938086  1.049971
      ESP Fit Center   24 is at  -1.197110 -2.938086 -1.050029
      ESP Fit Center   25 is at  -3.054280 -1.588742 -1.608722
      ESP Fit Center   26 is at  -1.951209 -2.544558 -1.608722
      ESP Fit Center   27 is at  -1.198355 -2.436314 -1.608722
      ESP Fit Center   28 is at  -1.399984 -0.586428 -1.973383
      ESP Fit Center   29 is at  -2.477347 -1.208444 -1.973383
      ESP Fit Center   30 is at  -2.118226 -1.830460 -1.973383
      ESP Fit Center   31 is at  -1.399984 -1.830460 -1.973383
      ESP Fit Center   32 is at  -1.759105 -1.208444 -2.100029
      ESP Fit Center   33 is at  -0.367417 -1.208425  2.099987
      ESP Fit Center   34 is at  -0.726538 -0.586409  1.973342
      ESP Fit Center   35 is at  -0.726538 -1.830441  1.973342
      ESP Fit Center   36 is at  -0.008296 -1.830441  1.973342
      ESP Fit Center   37 is at  -0.559521 -2.544539  1.608680
      ESP Fit Center   38 is at  -0.559521 -2.544539 -1.608706
      ESP Fit Center   39 is at  -0.726538 -0.586409 -1.973367
      ESP Fit Center   40 is at  -0.726538 -1.830441 -1.973367
      ESP Fit Center   41 is at  -0.008296 -1.830441 -1.973367
      ESP Fit Center   42 is at  -0.367417 -1.208425 -2.100013
      ESP Fit Center   43 is at  -0.392178  0.000003  1.973343
      ESP Fit Center   44 is at  -0.392178  0.000003 -1.973366
      ESP Fit Center   45 is at  -0.367417  1.208427  2.099979
      ESP Fit Center   46 is at  -0.008296  1.830443  1.973334
      ESP Fit Center   47 is at  -0.726538  1.830443  1.973334
      ESP Fit Center   48 is at  -0.726538  0.586411  1.973334
      ESP Fit Center   49 is at  -0.559521  2.544542  1.608672
      ESP Fit Center   50 is at  -0.559521  2.544542 -1.608714
      ESP Fit Center   51 is at  -0.008296  1.830443 -1.973375
      ESP Fit Center   52 is at  -0.726538  1.830443 -1.973375
      ESP Fit Center   53 is at  -0.726538  0.586411 -1.973375
      ESP Fit Center   54 is at  -0.367417  1.208427 -2.100021
      ESP Fit Center   55 is at  -1.759108  1.208445  2.099996
      ESP Fit Center   56 is at  -1.399987  1.830461  1.973351
      ESP Fit Center   57 is at  -2.118229  1.830461  1.973351
      ESP Fit Center   58 is at  -2.477350  1.208445  1.973351
      ESP Fit Center   59 is at  -1.399987  0.586429  1.973351
      ESP Fit Center   60 is at  -1.198358  2.436315  1.608689
      ESP Fit Center   61 is at  -1.951212  2.544560  1.608689
      ESP Fit Center   62 is at  -3.054283  1.588743  1.608689
      ESP Fit Center   63 is at  -1.197113  2.938087  1.049996
      ESP Fit Center   64 is at  -1.197113  2.938087 -1.050004
      ESP Fit Center   65 is at  -1.198358  2.436315 -1.608697
      ESP Fit Center   66 is at  -1.951212  2.544560 -1.608697
      ESP Fit Center   67 is at  -3.054283  1.588743 -1.608697
      ESP Fit Center   68 is at  -1.399987  1.830461 -1.973358
      ESP Fit Center   69 is at  -2.118229  1.830461 -1.973358
      ESP Fit Center   70 is at  -2.477350  1.208445 -1.973358
      ESP Fit Center   71 is at  -1.399987  0.586429 -1.973358
      ESP Fit Center   72 is at  -1.759108  1.208445 -2.100004
      ESP Fit Center   73 is at  -2.481941  0.000001  2.099998
      ESP Fit Center   74 is at  -1.763699  0.000001  1.973353
      ESP Fit Center   75 is at  -2.841062  0.622017  1.973353
      ESP Fit Center   76 is at  -2.841062 -0.622015  1.973353
      ESP Fit Center   77 is at  -1.132087  0.000001  1.608691
      ESP Fit Center   78 is at  -1.132087  0.000001 -1.608695
      ESP Fit Center   79 is at  -1.763699  0.000001 -1.973356
      ESP Fit Center   80 is at  -2.841062  0.622017 -1.973356
      ESP Fit Center   81 is at  -2.841062 -0.622015 -1.973356
      ESP Fit Center   82 is at  -2.481941  0.000001 -2.100002
      ESP Fit Center   83 is at  -3.859001 -0.000003  2.099991
      ESP Fit Center   84 is at  -3.499880  0.622013  1.973346
      ESP Fit Center   85 is at  -4.218122  0.622013  1.973346
      ESP Fit Center   86 is at  -4.577243 -0.000003  1.973346
      ESP Fit Center   87 is at  -4.218122 -0.622019  1.973346
      ESP Fit Center   88 is at  -3.499880 -0.622019  1.973346
      ESP Fit Center   89 is at  -3.298251  1.227867  1.608684
      ESP Fit Center   90 is at  -4.051105  1.336111  1.608684
      ESP Fit Center   91 is at  -5.154176  0.380295  1.608684
      ESP Fit Center   92 is at  -5.154176 -0.380301  1.608684
      ESP Fit Center   93 is at  -4.051105 -1.336117  1.608684
      ESP Fit Center   94 is at  -3.298251 -1.227873  1.608684
      ESP Fit Center   95 is at  -5.637912  0.378116  1.049991
      ESP Fit Center   96 is at  -5.637912 -0.378122  1.049991
      ESP Fit Center   97 is at  -5.637912  0.378116 -1.050009
      ESP Fit Center   98 is at  -5.637912 -0.378122 -1.050009
      ESP Fit Center   99 is at  -3.298251  1.227867 -1.608702
      ESP Fit Center  100 is at  -4.051105  1.336111 -1.608702
      ESP Fit Center  101 is at  -5.154176  0.380295 -1.608702
      ESP Fit Center  102 is at  -5.154176 -0.380301 -1.608702
      ESP Fit Center  103 is at  -4.051105 -1.336117 -1.608702
      ESP Fit Center  104 is at  -3.298251 -1.227873 -1.608702
      ESP Fit Center  105 is at  -3.499880  0.622013 -1.973363
      ESP Fit Center  106 is at  -4.218122  0.622013 -1.973363
      ESP Fit Center  107 is at  -4.577243 -0.000003 -1.973363
      ESP Fit Center  108 is at  -4.218122 -0.622019 -1.973363
      ESP Fit Center  109 is at  -3.499880 -0.622019 -1.973363
      ESP Fit Center  110 is at  -3.859001 -0.000003 -2.100009
      ESP Fit Center  111 is at   2.241823 -0.000001  3.220009
      ESP Fit Center  112 is at   2.958340 -0.000001  3.139277
      ESP Fit Center  113 is at   2.600082  0.620522  3.139277
      ESP Fit Center  114 is at   1.883564  0.620522  3.139277
      ESP Fit Center  115 is at   1.525306 -0.000001  3.139277
      ESP Fit Center  116 is at   1.883564 -0.620523  3.139277
      ESP Fit Center  117 is at   2.600082 -0.620523  3.139277
      ESP Fit Center  118 is at   3.638929 -0.000001  2.901129
      ESP Fit Center  119 is at   3.451752  0.698552  2.901129
      ESP Fit Center  120 is at   2.940376  1.209928  2.901129
      ESP Fit Center  121 is at   2.241823  1.397105  2.901129
      ESP Fit Center  122 is at   1.543270  1.209928  2.901129
      ESP Fit Center  123 is at   1.031894  0.698552  2.901129
      ESP Fit Center  124 is at   0.844717 -0.000001  2.901129
      ESP Fit Center  125 is at   1.031894 -0.698554  2.901129
      ESP Fit Center  126 is at   1.543270 -1.209930  2.901129
      ESP Fit Center  127 is at   2.241823 -1.397106  2.901129
      ESP Fit Center  128 is at   2.940376 -1.209930  2.901129
      ESP Fit Center  129 is at   3.451752 -0.698554  2.901129
      ESP Fit Center  130 is at   4.249460 -0.000001  2.517506
      ESP Fit Center  131 is at   4.113889  0.725242  2.517506
      ESP Fit Center  132 is at   3.725485  1.352536  2.517506
      ESP Fit Center  133 is at   3.136704  1.797162  2.517506
      ESP Fit Center  134 is at   2.427064  1.999072  2.517506
      ESP Fit Center  135 is at   1.692407  1.930996  2.517506
      ESP Fit Center  136 is at   1.031951  1.602128  2.517506
      ESP Fit Center  137 is at   0.534895  1.056884  2.517506
      ESP Fit Center  138 is at   0.268370  0.368902  2.517506
      ESP Fit Center  139 is at   0.268370 -0.368903  2.517506
      ESP Fit Center  140 is at   0.534895 -1.056885  2.517506
      ESP Fit Center  141 is at   1.031951 -1.602130  2.517506
      ESP Fit Center  142 is at   1.692407 -1.930998  2.517506
      ESP Fit Center  143 is at   2.427064 -1.999074  2.517506
      ESP Fit Center  144 is at   3.136704 -1.797164  2.517506
      ESP Fit Center  145 is at   3.725485 -1.352537  2.517506
      ESP Fit Center  146 is at   4.113889 -0.725243  2.517506
      ESP Fit Center  147 is at   4.759320 -0.000001  2.007646
      ESP Fit Center  148 is at   4.647475  0.742045  2.007646
      ESP Fit Center  149 is at   4.321877  1.418156  2.007646
      ESP Fit Center  150 is at   3.811457  1.968258  2.007646
      ESP Fit Center  151 is at   3.161568  2.343472  2.007646
      ESP Fit Center  152 is at   2.429956  2.510457  2.007646
      ESP Fit Center  153 is at   1.681627  2.454378  2.007646
      ESP Fit Center  154 is at   0.983074  2.180216  2.007646
      ESP Fit Center  155 is at   0.396367  1.712332  2.007646
      ESP Fit Center  156 is at  -0.247556  0.375213  2.007646
      ESP Fit Center  157 is at  -0.247556 -0.375214  2.007646
      ESP Fit Center  158 is at   0.396367 -1.712334  2.007646
      ESP Fit Center  159 is at   0.983074 -2.180217  2.007646
      ESP Fit Center  160 is at   1.681627 -2.454379  2.007646
      ESP Fit Center  161 is at   2.429956 -2.510459  2.007646
      ESP Fit Center  162 is at   3.161568 -2.343473  2.007646
      ESP Fit Center  163 is at   3.811457 -1.968259  2.007646
      ESP Fit Center  164 is at   4.321877 -1.418157  2.007646
      ESP Fit Center  165 is at   4.647475 -0.742046  2.007646
      ESP Fit Center  166 is at   5.142943 -0.000001  1.397115
      ESP Fit Center  167 is at   5.051799  0.721478  1.397115
      ESP Fit Center  168 is at   4.784094  1.397624  1.397115
      ESP Fit Center  169 is at   4.356648  1.985952  1.397115
      ESP Fit Center  170 is at   3.796321  2.449496  1.397115
      ESP Fit Center  171 is at   3.138318  2.759128  1.397115
      ESP Fit Center  172 is at   2.423986  2.895394  1.397115
      ESP Fit Center  173 is at   1.698207  2.849732  1.397115
      ESP Fit Center  174 is at   1.006586  2.625011  1.397115
      ESP Fit Center  175 is at   1.006586 -2.625012  1.397115
      ESP Fit Center  176 is at   1.698207 -2.849734  1.397115
      ESP Fit Center  177 is at   2.423986 -2.895396  1.397115
      ESP Fit Center  178 is at   3.138318 -2.759130  1.397115
      ESP Fit Center  179 is at   3.796321 -2.449497  1.397115
      ESP Fit Center  180 is at   4.356648 -1.985954  1.397115
      ESP Fit Center  181 is at   4.784094 -1.397626  1.397115
      ESP Fit Center  182 is at   5.051799 -0.721480  1.397115
      ESP Fit Center  183 is at   5.381091 -0.000001  0.716527
      ESP Fit Center  184 is at   5.296472  0.723964  0.716527
      ESP Fit Center  185 is at   5.047175  1.408900  0.716527
      ESP Fit Center  186 is at   4.646642  2.017882  0.716527
      ESP Fit Center  187 is at   4.116464  2.518079  0.716527
      ESP Fit Center  188 is at   3.485223  2.882526  0.716527
      ESP Fit Center  189 is at   2.786951  3.091575  0.716527
      ESP Fit Center  190 is at   2.059291  3.133956  0.716527
      ESP Fit Center  191 is at   2.059291 -3.133957  0.716527
      ESP Fit Center  192 is at   2.786951 -3.091576  0.716527
      ESP Fit Center  193 is at   3.485223 -2.882527  0.716527
      ESP Fit Center  194 is at   4.116464 -2.518080  0.716527
      ESP Fit Center  195 is at   4.646642 -2.017883  0.716527
      ESP Fit Center  196 is at   5.047175 -1.408902  0.716527
      ESP Fit Center  197 is at   5.296472 -0.723966  0.716527
      ESP Fit Center  198 is at   5.461823 -0.000001  0.000009
      ESP Fit Center  199 is at   5.381091  0.716517  0.000009
      ESP Fit Center  200 is at   5.142943  1.397105  0.000009
      ESP Fit Center  201 is at   4.759320  2.007636  0.000009
      ESP Fit Center  202 is at   4.249460  2.517497  0.000009
      ESP Fit Center  203 is at   3.638929  2.901119  0.000009
      ESP Fit Center  204 is at   2.958340  3.139267  0.000009
      ESP Fit Center  205 is at   2.241823  3.219999  0.000009
      ESP Fit Center  206 is at   2.241823 -3.220001  0.000009
      ESP Fit Center  207 is at   2.958340 -3.139269  0.000009
      ESP Fit Center  208 is at   3.638929 -2.901120  0.000009
      ESP Fit Center  209 is at   4.249460 -2.517498  0.000009
      ESP Fit Center  210 is at   4.759320 -2.007638  0.000009
      ESP Fit Center  211 is at   5.142943 -1.397106  0.000009
      ESP Fit Center  212 is at   5.381091 -0.716518  0.000009
      ESP Fit Center  213 is at   5.381091 -0.000001 -0.716508
      ESP Fit Center  214 is at   5.296472  0.723964 -0.716508
      ESP Fit Center  215 is at   5.047175  1.408900 -0.716508
      ESP Fit Center  216 is at   4.646642  2.017882 -0.716508
      ESP Fit Center  217 is at   4.116464  2.518079 -0.716508
      ESP Fit Center  218 is at   3.485223  2.882526 -0.716508
      ESP Fit Center  219 is at   2.786951  3.091575 -0.716508
      ESP Fit Center  220 is at   2.059291  3.133956 -0.716508
      ESP Fit Center  221 is at   2.059291 -3.133957 -0.716508
      ESP Fit Center  222 is at   2.786951 -3.091576 -0.716508
      ESP Fit Center  223 is at   3.485223 -2.882527 -0.716508
      ESP Fit Center  224 is at   4.116464 -2.518080 -0.716508
      ESP Fit Center  225 is at   4.646642 -2.017883 -0.716508
      ESP Fit Center  226 is at   5.047175 -1.408902 -0.716508
      ESP Fit Center  227 is at   5.296472 -0.723966 -0.716508
      ESP Fit Center  228 is at   5.142943 -0.000001 -1.397097
      ESP Fit Center  229 is at   5.051799  0.721478 -1.397097
      ESP Fit Center  230 is at   4.784094  1.397624 -1.397097
      ESP Fit Center  231 is at   4.356648  1.985952 -1.397097
      ESP Fit Center  232 is at   3.796321  2.449496 -1.397097
      ESP Fit Center  233 is at   3.138318  2.759128 -1.397097
      ESP Fit Center  234 is at   2.423986  2.895394 -1.397097
      ESP Fit Center  235 is at   1.698207  2.849732 -1.397097
      ESP Fit Center  236 is at   1.006586  2.625011 -1.397097
      ESP Fit Center  237 is at   1.006586 -2.625012 -1.397097
      ESP Fit Center  238 is at   1.698207 -2.849734 -1.397097
      ESP Fit Center  239 is at   2.423986 -2.895396 -1.397097
      ESP Fit Center  240 is at   3.138318 -2.759130 -1.397097
      ESP Fit Center  241 is at   3.796321 -2.449497 -1.397097
      ESP Fit Center  242 is at   4.356648 -1.985954 -1.397097
      ESP Fit Center  243 is at   4.784094 -1.397626 -1.397097
      ESP Fit Center  244 is at   5.051799 -0.721480 -1.397097
      ESP Fit Center  245 is at   4.759320 -0.000001 -2.007628
      ESP Fit Center  246 is at   4.647475  0.742045 -2.007628
      ESP Fit Center  247 is at   4.321877  1.418156 -2.007628
      ESP Fit Center  248 is at   3.811457  1.968258 -2.007628
      ESP Fit Center  249 is at   3.161568  2.343472 -2.007628
      ESP Fit Center  250 is at   2.429956  2.510457 -2.007628
      ESP Fit Center  251 is at   1.681627  2.454378 -2.007628
      ESP Fit Center  252 is at   0.983074  2.180216 -2.007628
      ESP Fit Center  253 is at   0.396367  1.712332 -2.007628
      ESP Fit Center  254 is at  -0.247556  0.375213 -2.007628
      ESP Fit Center  255 is at  -0.247556 -0.375214 -2.007628
      ESP Fit Center  256 is at   0.396367 -1.712334 -2.007628
      ESP Fit Center  257 is at   0.983074 -2.180217 -2.007628
      ESP Fit Center  258 is at   1.681627 -2.454379 -2.007628
      ESP Fit Center  259 is at   2.429956 -2.510459 -2.007628
      ESP Fit Center  260 is at   3.161568 -2.343473 -2.007628
      ESP Fit Center  261 is at   3.811457 -1.968259 -2.007628
      ESP Fit Center  262 is at   4.321877 -1.418157 -2.007628
      ESP Fit Center  263 is at   4.647475 -0.742046 -2.007628
      ESP Fit Center  264 is at   4.249460 -0.000001 -2.517488
      ESP Fit Center  265 is at   4.113889  0.725242 -2.517488
      ESP Fit Center  266 is at   3.725485  1.352536 -2.517488
      ESP Fit Center  267 is at   3.136704  1.797162 -2.517488
      ESP Fit Center  268 is at   2.427064  1.999072 -2.517488
      ESP Fit Center  269 is at   1.692407  1.930996 -2.517488
      ESP Fit Center  270 is at   1.031951  1.602128 -2.517488
      ESP Fit Center  271 is at   0.534895  1.056884 -2.517488
      ESP Fit Center  272 is at   0.268370  0.368902 -2.517488
      ESP Fit Center  273 is at   0.268370 -0.368903 -2.517488
      ESP Fit Center  274 is at   0.534895 -1.056885 -2.517488
      ESP Fit Center  275 is at   1.031951 -1.602130 -2.517488
      ESP Fit Center  276 is at   1.692407 -1.930998 -2.517488
      ESP Fit Center  277 is at   2.427064 -1.999074 -2.517488
      ESP Fit Center  278 is at   3.136704 -1.797164 -2.517488
      ESP Fit Center  279 is at   3.725485 -1.352537 -2.517488
      ESP Fit Center  280 is at   4.113889 -0.725243 -2.517488
      ESP Fit Center  281 is at   3.638929 -0.000001 -2.901111
      ESP Fit Center  282 is at   3.451752  0.698552 -2.901111
      ESP Fit Center  283 is at   2.940376  1.209928 -2.901111
      ESP Fit Center  284 is at   2.241823  1.397105 -2.901111
      ESP Fit Center  285 is at   1.543270  1.209928 -2.901111
      ESP Fit Center  286 is at   1.031894  0.698552 -2.901111
      ESP Fit Center  287 is at   0.844717 -0.000001 -2.901111
      ESP Fit Center  288 is at   1.031894 -0.698554 -2.901111
      ESP Fit Center  289 is at   1.543270 -1.209930 -2.901111
      ESP Fit Center  290 is at   2.241823 -1.397106 -2.901111
      ESP Fit Center  291 is at   2.940376 -1.209930 -2.901111
      ESP Fit Center  292 is at   3.451752 -0.698554 -2.901111
      ESP Fit Center  293 is at   2.958340 -0.000001 -3.139259
      ESP Fit Center  294 is at   2.600082  0.620522 -3.139259
      ESP Fit Center  295 is at   1.883564  0.620522 -3.139259
      ESP Fit Center  296 is at   1.525306 -0.000001 -3.139259
      ESP Fit Center  297 is at   1.883564 -0.620523 -3.139259
      ESP Fit Center  298 is at   2.600082 -0.620523 -3.139259
      ESP Fit Center  299 is at   2.241823 -0.000001 -3.219991
      ESP Fit Center  300 is at  -3.023458 -2.155102  1.513559
      ESP Fit Center  301 is at  -2.658995 -2.786369  1.513559
      ESP Fit Center  302 is at  -1.930071 -2.786369  1.513559
      ESP Fit Center  303 is at  -3.608010 -2.155102  1.047394
      ESP Fit Center  304 is at  -3.357158 -2.927144  1.047394
      ESP Fit Center  305 is at  -2.700420 -3.404293  1.047394
      ESP Fit Center  306 is at  -1.888646 -3.404293  1.047394
      ESP Fit Center  307 is at  -3.884818 -2.547072  0.373766
      ESP Fit Center  308 is at  -3.520503 -3.241217  0.373766
      ESP Fit Center  309 is at  -2.875333 -3.686545  0.373766
      ESP Fit Center  310 is at  -2.097108 -3.781039  0.373766
      ESP Fit Center  311 is at  -1.364112 -3.503050  0.373766
      ESP Fit Center  312 is at  -3.884818 -2.547072 -0.373904
      ESP Fit Center  313 is at  -3.520503 -3.241217 -0.373904
      ESP Fit Center  314 is at  -2.875333 -3.686545 -0.373904
      ESP Fit Center  315 is at  -2.097108 -3.781039 -0.373904
      ESP Fit Center  316 is at  -1.364112 -3.503050 -0.373904
      ESP Fit Center  317 is at  -3.608010 -2.155102 -1.047532
      ESP Fit Center  318 is at  -3.357158 -2.927144 -1.047532
      ESP Fit Center  319 is at  -2.700420 -3.404293 -1.047532
      ESP Fit Center  320 is at  -1.888646 -3.404293 -1.047532
      ESP Fit Center  321 is at  -3.023458 -2.155102 -1.513697
      ESP Fit Center  322 is at  -2.658995 -2.786369 -1.513697
      ESP Fit Center  323 is at  -1.930071 -2.786369 -1.513697
      ESP Fit Center  324 is at  -0.189188 -2.779192  1.513611
      ESP Fit Center  325 is at   0.539736 -2.779192  1.513611
      ESP Fit Center  326 is at  -0.230613 -3.397116  1.047446
      ESP Fit Center  327 is at   0.581161 -3.397116  1.047446
      ESP Fit Center  328 is at   1.237899 -2.919967  1.047446
      ESP Fit Center  329 is at  -1.050696 -3.234039  0.373818
      ESP Fit Center  330 is at  -0.405526 -3.679368  0.373818
      ESP Fit Center  331 is at   0.372699 -3.773862  0.373818
      ESP Fit Center  332 is at   1.105695 -3.495873  0.373818
      ESP Fit Center  333 is at  -1.050696 -3.234039 -0.373852
      ESP Fit Center  334 is at  -0.405526 -3.679368 -0.373852
      ESP Fit Center  335 is at   0.372699 -3.773862 -0.373852
      ESP Fit Center  336 is at   1.105695 -3.495873 -0.373852
      ESP Fit Center  337 is at  -0.230613 -3.397116 -1.047480
      ESP Fit Center  338 is at   0.581161 -3.397116 -1.047480
      ESP Fit Center  339 is at   1.237899 -2.919967 -1.047480
      ESP Fit Center  340 is at  -0.189188 -2.779192 -1.513645
      ESP Fit Center  341 is at   0.539736 -2.779192 -1.513645
      ESP Fit Center  342 is at   0.539732  2.779198  1.513588
      ESP Fit Center  343 is at  -0.189192  2.779198  1.513588
      ESP Fit Center  344 is at   1.237895  2.919973  1.047423
      ESP Fit Center  345 is at   0.581157  3.397121  1.047423
      ESP Fit Center  346 is at  -0.230617  3.397121  1.047423
      ESP Fit Center  347 is at   1.105691  3.495878  0.373795
      ESP Fit Center  348 is at   0.372694  3.773867  0.373795
      ESP Fit Center  349 is at  -0.405530  3.679374  0.373795
      ESP Fit Center  350 is at  -1.050700  3.234045  0.373795
      ESP Fit Center  351 is at   1.105691  3.495878 -0.373875
      ESP Fit Center  352 is at   0.372694  3.773867 -0.373875
      ESP Fit Center  353 is at  -0.405530  3.679374 -0.373875
      ESP Fit Center  354 is at  -1.050700  3.234045 -0.373875
      ESP Fit Center  355 is at   1.237895  2.919973 -1.047503
      ESP Fit Center  356 is at   0.581157  3.397121 -1.047503
      ESP Fit Center  357 is at  -0.230617  3.397121 -1.047503
      ESP Fit Center  358 is at   0.539732  2.779198 -1.513668
      ESP Fit Center  359 is at  -0.189192  2.779198 -1.513668
      ESP Fit Center  360 is at  -1.930071  2.786371  1.513631
      ESP Fit Center  361 is at  -2.658995  2.786371  1.513631
      ESP Fit Center  362 is at  -3.023458  2.155104  1.513631
      ESP Fit Center  363 is at  -1.888646  3.404295  1.047466
      ESP Fit Center  364 is at  -2.700420  3.404295  1.047466
      ESP Fit Center  365 is at  -3.357158  2.927146  1.047466
      ESP Fit Center  366 is at  -3.608010  2.155104  1.047466
      ESP Fit Center  367 is at  -1.364112  3.503052  0.373838
      ESP Fit Center  368 is at  -2.097109  3.781041  0.373838
      ESP Fit Center  369 is at  -2.875333  3.686547  0.373838
      ESP Fit Center  370 is at  -3.520503  3.241219  0.373838
      ESP Fit Center  371 is at  -3.884818  2.547074  0.373838
      ESP Fit Center  372 is at  -1.364112  3.503052 -0.373832
      ESP Fit Center  373 is at  -2.097109  3.781041 -0.373832
      ESP Fit Center  374 is at  -2.875333  3.686547 -0.373832
      ESP Fit Center  375 is at  -3.520503  3.241219 -0.373832
      ESP Fit Center  376 is at  -3.884818  2.547074 -0.373832
      ESP Fit Center  377 is at  -1.888646  3.404295 -1.047460
      ESP Fit Center  378 is at  -2.700420  3.404295 -1.047460
      ESP Fit Center  379 is at  -3.357158  2.927146 -1.047460
      ESP Fit Center  380 is at  -3.608010  2.155104 -1.047460
      ESP Fit Center  381 is at  -1.930071  2.786371 -1.513625
      ESP Fit Center  382 is at  -2.658995  2.786371 -1.513625
      ESP Fit Center  383 is at  -3.023458  2.155104 -1.513625
      ESP Fit Center  384 is at  -5.108288 -0.861123  1.513934
      ESP Fit Center  385 is at  -4.743825 -1.492390  1.513934
      ESP Fit Center  386 is at  -4.014901 -1.492390  1.513934
      ESP Fit Center  387 is at  -5.692840 -0.861123  1.047769
      ESP Fit Center  388 is at  -5.441988 -1.633165  1.047769
      ESP Fit Center  389 is at  -4.785250 -2.110314  1.047769
      ESP Fit Center  390 is at  -3.973476 -2.110314  1.047769
      ESP Fit Center  391 is at  -5.969648 -0.469153  0.374141
      ESP Fit Center  392 is at  -5.969648 -1.253093  0.374141
      ESP Fit Center  393 is at  -5.605333 -1.947238  0.374141
      ESP Fit Center  394 is at  -4.960163 -2.392566  0.374141
      ESP Fit Center  395 is at  -4.181938 -2.487060  0.374141
      ESP Fit Center  396 is at  -5.969648 -0.469153 -0.373529
      ESP Fit Center  397 is at  -5.969648 -1.253093 -0.373529
      ESP Fit Center  398 is at  -5.605333 -1.947238 -0.373529
      ESP Fit Center  399 is at  -4.960163 -2.392566 -0.373529
      ESP Fit Center  400 is at  -4.181938 -2.487060 -0.373529
      ESP Fit Center  401 is at  -5.692840 -0.861123 -1.047157
      ESP Fit Center  402 is at  -5.441988 -1.633165 -1.047157
      ESP Fit Center  403 is at  -4.785250 -2.110314 -1.047157
      ESP Fit Center  404 is at  -3.973476 -2.110314 -1.047157
      ESP Fit Center  405 is at  -5.108288 -0.861123 -1.513322
      ESP Fit Center  406 is at  -4.743825 -1.492390 -1.513322
      ESP Fit Center  407 is at  -4.014901 -1.492390 -1.513322
      ESP Fit Center  408 is at  -4.014907  1.492380  1.513670
      ESP Fit Center  409 is at  -4.743831  1.492380  1.513670
      ESP Fit Center  410 is at  -5.108294  0.861113  1.513670
      ESP Fit Center  411 is at  -3.973482  2.110304  1.047505
      ESP Fit Center  412 is at  -4.785256  2.110304  1.047505
      ESP Fit Center  413 is at  -5.441994  1.633155  1.047505
      ESP Fit Center  414 is at  -5.692846  0.861113  1.047505
      ESP Fit Center  415 is at  -4.181945  2.487050  0.373877
      ESP Fit Center  416 is at  -4.960169  2.392556  0.373877
      ESP Fit Center  417 is at  -5.605339  1.947228  0.373877
      ESP Fit Center  418 is at  -5.969654  1.253083  0.373877
      ESP Fit Center  419 is at  -5.969654  0.469143  0.373877
      ESP Fit Center  420 is at  -4.181945  2.487050 -0.373793
      ESP Fit Center  421 is at  -4.960169  2.392556 -0.373793
      ESP Fit Center  422 is at  -5.605339  1.947228 -0.373793
      ESP Fit Center  423 is at  -5.969654  1.253083 -0.373793
      ESP Fit Center  424 is at  -5.969654  0.469143 -0.373793
      ESP Fit Center  425 is at  -3.973482  2.110304 -1.047421
      ESP Fit Center  426 is at  -4.785256  2.110304 -1.047421
      ESP Fit Center  427 is at  -5.441994  1.633155 -1.047421
      ESP Fit Center  428 is at  -5.692846  0.861113 -1.047421
      ESP Fit Center  429 is at  -4.014907  1.492380 -1.513586
      ESP Fit Center  430 is at  -4.743831  1.492380 -1.513586
      ESP Fit Center  431 is at  -5.108294  0.861113 -1.513586
      ESP Fit Center  432 is at  -1.759105 -1.208444  2.368299
      ESP Fit Center  433 is at  -1.393178 -0.574640  2.252385
      ESP Fit Center  434 is at  -2.490959 -1.208444  2.252385
      ESP Fit Center  435 is at  -2.125032 -1.842248  2.252385
      ESP Fit Center  436 is at  -1.393178 -1.842248  2.252385
      ESP Fit Center  437 is at  -3.094785 -1.600635  1.915989
      ESP Fit Center  438 is at  -2.670716 -2.260499  1.915989
      ESP Fit Center  439 is at  -1.957217 -2.586343  1.915989
      ESP Fit Center  440 is at  -1.180819 -2.474714  1.915989
      ESP Fit Center  441 is at  -3.094785 -1.600635 -1.916047
      ESP Fit Center  442 is at  -2.670716 -2.260499 -1.916047
      ESP Fit Center  443 is at  -1.957217 -2.586343 -1.916047
      ESP Fit Center  444 is at  -1.180819 -2.474714 -1.916047
      ESP Fit Center  445 is at  -1.393178 -0.574640 -2.252443
      ESP Fit Center  446 is at  -2.490959 -1.208444 -2.252443
      ESP Fit Center  447 is at  -2.125032 -1.842248 -2.252443
      ESP Fit Center  448 is at  -1.393178 -1.842248 -2.252443
      ESP Fit Center  449 is at  -1.759105 -1.208444 -2.368357
      ESP Fit Center  450 is at  -0.367417 -1.208425  2.368315
      ESP Fit Center  451 is at  -0.733344 -0.574621  2.252401
      ESP Fit Center  452 is at  -0.733344 -1.842229  2.252401
      ESP Fit Center  453 is at  -0.001490 -1.842229  2.252401
      ESP Fit Center  454 is at  -0.565529 -2.586324  1.916005
      ESP Fit Center  455 is at   0.210869 -2.474695  1.916005
      ESP Fit Center  456 is at  -0.565529 -2.586324 -1.916031
      ESP Fit Center  457 is at   0.210869 -2.474695 -1.916031
      ESP Fit Center  458 is at  -0.733344 -0.574621 -2.252427
      ESP Fit Center  459 is at  -0.733344 -1.842229 -2.252427
      ESP Fit Center  460 is at  -0.001490 -1.842229 -2.252427
      ESP Fit Center  461 is at  -0.367417 -1.208425 -2.368341
      ESP Fit Center  462 is at  -0.367417  1.208427  2.368307
      ESP Fit Center  463 is at  -0.001490  1.842231  2.252393
      ESP Fit Center  464 is at  -0.733344  1.842231  2.252393
      ESP Fit Center  465 is at  -0.733344  0.574623  2.252393
      ESP Fit Center  466 is at   0.210869  2.474697  1.915997
      ESP Fit Center  467 is at  -0.565529  2.586326  1.915997
      ESP Fit Center  468 is at   0.210869  2.474697 -1.916039
      ESP Fit Center  469 is at  -0.565529  2.586326 -1.916039
      ESP Fit Center  470 is at  -0.001490  1.842231 -2.252435
      ESP Fit Center  471 is at  -0.733344  1.842231 -2.252435
      ESP Fit Center  472 is at  -0.733344  0.574623 -2.252435
      ESP Fit Center  473 is at  -0.367417  1.208427 -2.368349
      ESP Fit Center  474 is at  -1.759108  1.208445  2.368324
      ESP Fit Center  475 is at  -1.393181  1.842249  2.252410
      ESP Fit Center  476 is at  -2.125035  1.842249  2.252410
      ESP Fit Center  477 is at  -2.490962  1.208445  2.252410
      ESP Fit Center  478 is at  -1.393181  0.574641  2.252410
      ESP Fit Center  479 is at  -1.180822  2.474715  1.916014
      ESP Fit Center  480 is at  -1.957220  2.586344  1.916014
      ESP Fit Center  481 is at  -2.670719  2.260500  1.916014
      ESP Fit Center  482 is at  -3.094788  1.600636  1.916014
      ESP Fit Center  483 is at  -1.180822  2.474715 -1.916022
      ESP Fit Center  484 is at  -1.957220  2.586344 -1.916022
      ESP Fit Center  485 is at  -2.670719  2.260500 -1.916022
      ESP Fit Center  486 is at  -3.094788  1.600636 -1.916022
      ESP Fit Center  487 is at  -1.393181  1.842249 -2.252418
      ESP Fit Center  488 is at  -2.125035  1.842249 -2.252418
      ESP Fit Center  489 is at  -2.490962  1.208445 -2.252418
      ESP Fit Center  490 is at  -1.393181  0.574641 -2.252418
      ESP Fit Center  491 is at  -1.759108  1.208445 -2.368332
      ESP Fit Center  492 is at  -2.481941  0.000001  2.368326
      ESP Fit Center  493 is at  -1.750087  0.000001  2.252412
      ESP Fit Center  494 is at  -2.847868  0.633805  2.252412
      ESP Fit Center  495 is at  -2.847868 -0.633803  2.252412
      ESP Fit Center  496 is at  -1.750087  0.000001 -2.252416
      ESP Fit Center  497 is at  -2.847868  0.633805 -2.252416
      ESP Fit Center  498 is at  -2.847868 -0.633803 -2.252416
      ESP Fit Center  499 is at  -2.481941  0.000001 -2.368330
      ESP Fit Center  500 is at  -3.859001 -0.000003  2.368319
      ESP Fit Center  501 is at  -3.493074  0.633801  2.252405
      ESP Fit Center  502 is at  -4.224928  0.633801  2.252405
      ESP Fit Center  503 is at  -4.590855 -0.000003  2.252405
      ESP Fit Center  504 is at  -4.224928 -0.633807  2.252405
      ESP Fit Center  505 is at  -3.493074 -0.633807  2.252405
      ESP Fit Center  506 is at  -3.280715  1.266267  1.916009
      ESP Fit Center  507 is at  -4.057113  1.377896  1.916009
      ESP Fit Center  508 is at  -4.770612  1.052052  1.916009
      ESP Fit Center  509 is at  -5.194681  0.392188  1.916009
      ESP Fit Center  510 is at  -5.194681 -0.392194  1.916009
      ESP Fit Center  511 is at  -4.770612 -1.052058  1.916009
      ESP Fit Center  512 is at  -4.057113 -1.377902  1.916009
      ESP Fit Center  513 is at  -3.280715 -1.266273  1.916009
      ESP Fit Center  514 is at  -5.775019 -0.000003  1.392059
      ESP Fit Center  515 is at  -6.080695  0.370732  0.731845
      ESP Fit Center  516 is at  -6.080695 -0.370738  0.731845
      ESP Fit Center  517 is at  -6.227329 -0.000003 -0.000009
      ESP Fit Center  518 is at  -6.080695  0.370732 -0.731863
      ESP Fit Center  519 is at  -6.080695 -0.370738 -0.731863
      ESP Fit Center  520 is at  -5.775019 -0.000003 -1.392077
      ESP Fit Center  521 is at  -3.280715  1.266267 -1.916027
      ESP Fit Center  522 is at  -4.057113  1.377896 -1.916027
      ESP Fit Center  523 is at  -4.770612  1.052052 -1.916027
      ESP Fit Center  524 is at  -5.194681  0.392188 -1.916027
      ESP Fit Center  525 is at  -5.194681 -0.392194 -1.916027
      ESP Fit Center  526 is at  -4.770612 -1.052058 -1.916027
      ESP Fit Center  527 is at  -4.057113 -1.377902 -1.916027
      ESP Fit Center  528 is at  -3.280715 -1.266273 -1.916027
      ESP Fit Center  529 is at  -3.493074  0.633801 -2.252423
      ESP Fit Center  530 is at  -4.224928  0.633801 -2.252423
      ESP Fit Center  531 is at  -4.590855 -0.000003 -2.252423
      ESP Fit Center  532 is at  -4.224928 -0.633807 -2.252423
      ESP Fit Center  533 is at  -3.493074 -0.633807 -2.252423
      ESP Fit Center  534 is at  -3.859001 -0.000003 -2.368337
      ESP Fit Center  535 is at   2.241823 -0.000001  3.631446
      ESP Fit Center  536 is at   2.950281 -0.000001  3.561669
      ESP Fit Center  537 is at   2.596052  0.613542  3.561669
      ESP Fit Center  538 is at   1.887594  0.613542  3.561669
      ESP Fit Center  539 is at   1.533365 -0.000001  3.561669
      ESP Fit Center  540 is at   1.887594 -0.613543  3.561669
      ESP Fit Center  541 is at   2.596052 -0.613543  3.561669
      ESP Fit Center  542 is at   3.631514 -0.000001  3.355019
      ESP Fit Center  543 is at   3.445330  0.694845  3.355019
      ESP Fit Center  544 is at   2.936668  1.203507  3.355019
      ESP Fit Center  545 is at   2.241823  1.389690  3.355019
      ESP Fit Center  546 is at   1.546978  1.203507  3.355019
      ESP Fit Center  547 is at   1.038316  0.694845  3.355019
      ESP Fit Center  548 is at   0.852132 -0.000001  3.355019
      ESP Fit Center  549 is at   1.038316 -0.694846  3.355019
      ESP Fit Center  550 is at   1.546978 -1.203508  3.355019
      ESP Fit Center  551 is at   2.241823 -1.389691  3.355019
      ESP Fit Center  552 is at   2.936668 -1.203508  3.355019
      ESP Fit Center  553 is at   3.445330 -0.694846  3.355019
      ESP Fit Center  554 is at   4.259341 -0.000001  3.019438
      ESP Fit Center  555 is at   4.123103  0.728811  3.019438
      ESP Fit Center  556 is at   3.732787  1.359192  3.019438
      ESP Fit Center  557 is at   3.141108  1.806007  3.019438
      ESP Fit Center  558 is at   2.427976  2.008911  3.019438
      ESP Fit Center  559 is at   1.689703  1.940500  3.019438
      ESP Fit Center  560 is at   1.025997  1.610013  3.019438
      ESP Fit Center  561 is at   0.526495  1.062086  3.019438
      ESP Fit Center  562 is at   0.258657  0.370717  3.019438
      ESP Fit Center  563 is at   0.258657 -0.370719  3.019438
      ESP Fit Center  564 is at   0.526495 -1.062087  3.019438
      ESP Fit Center  565 is at   1.025997 -1.610015  3.019438
      ESP Fit Center  566 is at   1.689703 -1.940501  3.019438
      ESP Fit Center  567 is at   2.427976 -2.008912  3.019438
      ESP Fit Center  568 is at   3.141108 -1.806009  3.019438
      ESP Fit Center  569 is at   3.732787 -1.359194  3.019438
      ESP Fit Center  570 is at   4.123103 -0.728812  3.019438
      ESP Fit Center  571 is at   4.809636 -0.000001  2.567822
      ESP Fit Center  572 is at   4.705622  0.723436  2.567822
      ESP Fit Center  573 is at   4.402005  1.388264  2.567822
      ESP Fit Center  574 is at   3.923383  1.940623  2.567822
      ESP Fit Center  575 is at   3.308531  2.335765  2.567822
      ESP Fit Center  576 is at   2.607261  2.541676  2.567822
      ESP Fit Center  577 is at   1.876385  2.541676  2.567822
      ESP Fit Center  578 is at   1.175115  2.335765  2.567822
      ESP Fit Center  579 is at   0.560263  1.940623  2.567822
      ESP Fit Center  580 is at   0.081641  1.388264  2.567822
      ESP Fit Center  581 is at  -0.221976  0.723436  2.567822
      ESP Fit Center  582 is at  -0.325990 -0.000001  2.567822
      ESP Fit Center  583 is at  -0.221976 -0.723437  2.567822
      ESP Fit Center  584 is at   0.081641 -1.388265  2.567822
      ESP Fit Center  585 is at   0.560263 -1.940625  2.567822
      ESP Fit Center  586 is at   1.175115 -2.335766  2.567822
      ESP Fit Center  587 is at   1.876385 -2.541677  2.567822
      ESP Fit Center  588 is at   2.607261 -2.541677  2.567822
      ESP Fit Center  589 is at   3.308531 -2.335766  2.567822
      ESP Fit Center  590 is at   3.923383 -1.940625  2.567822
      ESP Fit Center  591 is at   4.402005 -1.388265  2.567822
      ESP Fit Center  592 is at   4.705622 -0.723437  2.567822
      ESP Fit Center  593 is at   5.261252 -0.000001  2.017527
      ESP Fit Center  594 is at   5.173513  0.722596  2.017527
      ESP Fit Center  595 is at   4.915395  1.403198  2.017527
      ESP Fit Center  596 is at   4.501898  2.002251  2.017527
      ESP Fit Center  597 is at   3.957054  2.484941  2.017527
      ESP Fit Center  598 is at   3.312527  2.823215  2.017527
      ESP Fit Center  599 is at   2.605775  2.997413  2.017527
      ESP Fit Center  600 is at   1.877871  2.997413  2.017527
      ESP Fit Center  601 is at   1.171119  2.823215  2.017527
      ESP Fit Center  602 is at   0.526592  2.484941  2.017527
      ESP Fit Center  603 is at   0.526592 -2.484942  2.017527
      ESP Fit Center  604 is at   1.171119 -2.823216  2.017527
      ESP Fit Center  605 is at   1.877871 -2.997415  2.017527
      ESP Fit Center  606 is at   2.605775 -2.997415  2.017527
      ESP Fit Center  607 is at   3.312527 -2.823216  2.017527
      ESP Fit Center  608 is at   3.957054 -2.484942  2.017527
      ESP Fit Center  609 is at   4.501898 -2.002253  2.017527
      ESP Fit Center  610 is at   4.915395 -1.403199  2.017527
      ESP Fit Center  611 is at   5.173513 -0.722597  2.017527
      ESP Fit Center  612 is at   5.596833 -0.000001  1.389700
      ESP Fit Center  613 is at   5.518395  0.721227  1.389700
      ESP Fit Center  614 is at   5.286747  1.408731  1.389700
      ESP Fit Center  615 is at   4.912723  2.030365  1.389700
      ESP Fit Center  616 is at   4.413810  2.557061  1.389700
      ESP Fit Center  617 is at   3.813338  2.964191  1.389700
      ESP Fit Center  618 is at   3.139383  3.232719  1.389700
      ESP Fit Center  619 is at   2.423460  3.350089  1.389700
      ESP Fit Center  620 is at   1.699043  3.310812  1.389700
      ESP Fit Center  621 is at   1.699043 -3.310813  1.389700
      ESP Fit Center  622 is at   2.423460 -3.350090  1.389700
      ESP Fit Center  623 is at   3.139383 -3.232720  1.389700
      ESP Fit Center  624 is at   3.813338 -2.964192  1.389700
      ESP Fit Center  625 is at   4.413810 -2.557062  1.389700
      ESP Fit Center  626 is at   4.912723 -2.030366  1.389700
      ESP Fit Center  627 is at   5.286747 -1.408733  1.389700
      ESP Fit Center  628 is at   5.518395 -0.721229  1.389700
      ESP Fit Center  629 is at   5.803482 -0.000001  0.708467
      ESP Fit Center  630 is at   5.730575  0.716956  0.708467
      ESP Fit Center  631 is at   5.514838  1.404561  0.708467
      ESP Fit Center  632 is at   5.165103  2.034662  0.708467
      ESP Fit Center  633 is at   4.695689  2.581464  0.708467
      ESP Fit Center  634 is at   4.125813  3.022581  0.708467
      ESP Fit Center  635 is at   3.478806  3.339953  0.708467
      ESP Fit Center  636 is at   2.781157  3.520587  0.708467
      ESP Fit Center  637 is at   2.061428  3.557087  0.708467
      ESP Fit Center  638 is at   2.061428 -3.557089  0.708467
      ESP Fit Center  639 is at   2.781157 -3.520588  0.708467
      ESP Fit Center  640 is at   3.478806 -3.339954  0.708467
      ESP Fit Center  641 is at   4.125813 -3.022583  0.708467
      ESP Fit Center  642 is at   4.695689 -2.581466  0.708467
      ESP Fit Center  643 is at   5.165103 -2.034664  0.708467
      ESP Fit Center  644 is at   5.514838 -1.404562  0.708467
      ESP Fit Center  645 is at   5.730575 -0.716957  0.708467
      ESP Fit Center  646 is at   5.873260 -0.000001  0.000009
      ESP Fit Center  647 is at   5.803482  0.708457  0.000009
      ESP Fit Center  648 is at   5.596833  1.389690  0.000009
      ESP Fit Center  649 is at   5.261252  2.017517  0.000009
      ESP Fit Center  650 is at   4.809636  2.567813  0.000009
      ESP Fit Center  651 is at   4.259341  3.019428  0.000009
      ESP Fit Center  652 is at   3.631514  3.355009  0.000009
      ESP Fit Center  653 is at   2.950281  3.561659  0.000009
      ESP Fit Center  654 is at   2.241823  3.631436  0.000009
      ESP Fit Center  655 is at   1.533365  3.561659  0.000009
      ESP Fit Center  656 is at   1.533365 -3.561660  0.000009
      ESP Fit Center  657 is at   2.241823 -3.631437  0.000009
      ESP Fit Center  658 is at   2.950281 -3.561660  0.000009
      ESP Fit Center  659 is at   3.631514 -3.355011  0.000009
      ESP Fit Center  660 is at   4.259341 -3.019430  0.000009
      ESP Fit Center  661 is at   4.809636 -2.567814  0.000009
      ESP Fit Center  662 is at   5.261252 -2.017519  0.000009
      ESP Fit Center  663 is at   5.596833 -1.389691  0.000009
      ESP Fit Center  664 is at   5.803482 -0.708459  0.000009
      ESP Fit Center  665 is at   5.803482 -0.000001 -0.708449
      ESP Fit Center  666 is at   5.730575  0.716956 -0.708449
      ESP Fit Center  667 is at   5.514838  1.404561 -0.708449
      ESP Fit Center  668 is at   5.165103  2.034662 -0.708449
      ESP Fit Center  669 is at   4.695689  2.581464 -0.708449
      ESP Fit Center  670 is at   4.125813  3.022581 -0.708449
      ESP Fit Center  671 is at   3.478806  3.339953 -0.708449
      ESP Fit Center  672 is at   2.781157  3.520587 -0.708449
      ESP Fit Center  673 is at   2.061428  3.557087 -0.708449
      ESP Fit Center  674 is at   2.061428 -3.557089 -0.708449
      ESP Fit Center  675 is at   2.781157 -3.520588 -0.708449
      ESP Fit Center  676 is at   3.478806 -3.339954 -0.708449
      ESP Fit Center  677 is at   4.125813 -3.022583 -0.708449
      ESP Fit Center  678 is at   4.695689 -2.581466 -0.708449
      ESP Fit Center  679 is at   5.165103 -2.034664 -0.708449
      ESP Fit Center  680 is at   5.514838 -1.404562 -0.708449
      ESP Fit Center  681 is at   5.730575 -0.716957 -0.708449
      ESP Fit Center  682 is at   5.596833 -0.000001 -1.389681
      ESP Fit Center  683 is at   5.518395  0.721227 -1.389681
      ESP Fit Center  684 is at   5.286747  1.408731 -1.389681
      ESP Fit Center  685 is at   4.912723  2.030365 -1.389681
      ESP Fit Center  686 is at   4.413810  2.557061 -1.389681
      ESP Fit Center  687 is at   3.813338  2.964191 -1.389681
      ESP Fit Center  688 is at   3.139383  3.232719 -1.389681
      ESP Fit Center  689 is at   2.423460  3.350089 -1.389681
      ESP Fit Center  690 is at   1.699043  3.310812 -1.389681
      ESP Fit Center  691 is at   1.699043 -3.310813 -1.389681
      ESP Fit Center  692 is at   2.423460 -3.350090 -1.389681
      ESP Fit Center  693 is at   3.139383 -3.232720 -1.389681
      ESP Fit Center  694 is at   3.813338 -2.964192 -1.389681
      ESP Fit Center  695 is at   4.413810 -2.557062 -1.389681
      ESP Fit Center  696 is at   4.912723 -2.030366 -1.389681
      ESP Fit Center  697 is at   5.286747 -1.408733 -1.389681
      ESP Fit Center  698 is at   5.518395 -0.721229 -1.389681
      ESP Fit Center  699 is at   5.261252 -0.000001 -2.017509
      ESP Fit Center  700 is at   5.173513  0.722596 -2.017509
      ESP Fit Center  701 is at   4.915395  1.403198 -2.017509
      ESP Fit Center  702 is at   4.501898  2.002251 -2.017509
      ESP Fit Center  703 is at   3.957054  2.484941 -2.017509
      ESP Fit Center  704 is at   3.312527  2.823215 -2.017509
      ESP Fit Center  705 is at   2.605775  2.997413 -2.017509
      ESP Fit Center  706 is at   1.877871  2.997413 -2.017509
      ESP Fit Center  707 is at   1.171119  2.823215 -2.017509
      ESP Fit Center  708 is at   0.526592  2.484941 -2.017509
      ESP Fit Center  709 is at   0.526592 -2.484942 -2.017509
      ESP Fit Center  710 is at   1.171119 -2.823216 -2.017509
      ESP Fit Center  711 is at   1.877871 -2.997415 -2.017509
      ESP Fit Center  712 is at   2.605775 -2.997415 -2.017509
      ESP Fit Center  713 is at   3.312527 -2.823216 -2.017509
      ESP Fit Center  714 is at   3.957054 -2.484942 -2.017509
      ESP Fit Center  715 is at   4.501898 -2.002253 -2.017509
      ESP Fit Center  716 is at   4.915395 -1.403199 -2.017509
      ESP Fit Center  717 is at   5.173513 -0.722597 -2.017509
      ESP Fit Center  718 is at   4.809636 -0.000001 -2.567804
      ESP Fit Center  719 is at   4.705622  0.723436 -2.567804
      ESP Fit Center  720 is at   4.402005  1.388264 -2.567804
      ESP Fit Center  721 is at   3.923383  1.940623 -2.567804
      ESP Fit Center  722 is at   3.308531  2.335765 -2.567804
      ESP Fit Center  723 is at   2.607261  2.541676 -2.567804
      ESP Fit Center  724 is at   1.876385  2.541676 -2.567804
      ESP Fit Center  725 is at   1.175115  2.335765 -2.567804
      ESP Fit Center  726 is at   0.560263  1.940623 -2.567804
      ESP Fit Center  727 is at   0.081641  1.388264 -2.567804
      ESP Fit Center  728 is at  -0.221976  0.723436 -2.567804
      ESP Fit Center  729 is at  -0.325990 -0.000001 -2.567804
      ESP Fit Center  730 is at  -0.221976 -0.723437 -2.567804
      ESP Fit Center  731 is at   0.081641 -1.388265 -2.567804
      ESP Fit Center  732 is at   0.560263 -1.940625 -2.567804
      ESP Fit Center  733 is at   1.175115 -2.335766 -2.567804
      ESP Fit Center  734 is at   1.876385 -2.541677 -2.567804
      ESP Fit Center  735 is at   2.607261 -2.541677 -2.567804
      ESP Fit Center  736 is at   3.308531 -2.335766 -2.567804
      ESP Fit Center  737 is at   3.923383 -1.940625 -2.567804
      ESP Fit Center  738 is at   4.402005 -1.388265 -2.567804
      ESP Fit Center  739 is at   4.705622 -0.723437 -2.567804
      ESP Fit Center  740 is at   4.259341 -0.000001 -3.019420
      ESP Fit Center  741 is at   4.123103  0.728811 -3.019420
      ESP Fit Center  742 is at   3.732787  1.359192 -3.019420
      ESP Fit Center  743 is at   3.141108  1.806007 -3.019420
      ESP Fit Center  744 is at   2.427976  2.008911 -3.019420
      ESP Fit Center  745 is at   1.689703  1.940500 -3.019420
      ESP Fit Center  746 is at   1.025997  1.610013 -3.019420
      ESP Fit Center  747 is at   0.526495  1.062086 -3.019420
      ESP Fit Center  748 is at   0.258657  0.370717 -3.019420
      ESP Fit Center  749 is at   0.258657 -0.370719 -3.019420
      ESP Fit Center  750 is at   0.526495 -1.062087 -3.019420
      ESP Fit Center  751 is at   1.025997 -1.610015 -3.019420
      ESP Fit Center  752 is at   1.689703 -1.940501 -3.019420
      ESP Fit Center  753 is at   2.427976 -2.008912 -3.019420
      ESP Fit Center  754 is at   3.141108 -1.806009 -3.019420
      ESP Fit Center  755 is at   3.732787 -1.359194 -3.019420
      ESP Fit Center  756 is at   4.123103 -0.728812 -3.019420
      ESP Fit Center  757 is at   3.631514 -0.000001 -3.355001
      ESP Fit Center  758 is at   3.445330  0.694845 -3.355001
      ESP Fit Center  759 is at   2.936668  1.203507 -3.355001
      ESP Fit Center  760 is at   2.241823  1.389690 -3.355001
      ESP Fit Center  761 is at   1.546978  1.203507 -3.355001
      ESP Fit Center  762 is at   1.038316  0.694845 -3.355001
      ESP Fit Center  763 is at   0.852132 -0.000001 -3.355001
      ESP Fit Center  764 is at   1.038316 -0.694846 -3.355001
      ESP Fit Center  765 is at   1.546978 -1.203508 -3.355001
      ESP Fit Center  766 is at   2.241823 -1.389691 -3.355001
      ESP Fit Center  767 is at   2.936668 -1.203508 -3.355001
      ESP Fit Center  768 is at   3.445330 -0.694846 -3.355001
      ESP Fit Center  769 is at   2.950281 -0.000001 -3.561650
      ESP Fit Center  770 is at   2.596052  0.613542 -3.561650
      ESP Fit Center  771 is at   1.887594  0.613542 -3.561650
      ESP Fit Center  772 is at   1.533365 -0.000001 -3.561650
      ESP Fit Center  773 is at   1.887594 -0.613543 -3.561650
      ESP Fit Center  774 is at   2.596052 -0.613543 -3.561650
      ESP Fit Center  775 is at   2.241823 -0.000001 -3.631427
      ESP Fit Center  776 is at  -2.657061 -2.783019  1.750371
      ESP Fit Center  777 is at  -3.579993 -2.532547  1.339660
      ESP Fit Center  778 is at  -3.171869 -3.167601  1.339660
      ESP Fit Center  779 is at  -2.485196 -3.481194  1.339660
      ESP Fit Center  780 is at  -1.737989 -3.373762  1.339660
      ESP Fit Center  781 is at  -3.871625 -2.914589  0.724987
      ESP Fit Center  782 is at  -3.385914 -3.523651  0.724987
      ESP Fit Center  783 is at  -2.684042 -3.861655  0.724987
      ESP Fit Center  784 is at  -1.905023 -3.861655  0.724987
      ESP Fit Center  785 is at  -1.203151 -3.523651  0.724987
      ESP Fit Center  786 is at  -4.044973 -2.880158 -0.000069
      ESP Fit Center  787 is at  -3.634262 -3.494831 -0.000069
      ESP Fit Center  788 is at  -3.019589 -3.905542 -0.000069
      ESP Fit Center  789 is at  -2.294533 -4.049764 -0.000069
      ESP Fit Center  790 is at  -1.569477 -3.905542 -0.000069
      ESP Fit Center  791 is at  -3.871625 -2.914589 -0.725125
      ESP Fit Center  792 is at  -3.385914 -3.523651 -0.725125
      ESP Fit Center  793 is at  -2.684042 -3.861655 -0.725125
      ESP Fit Center  794 is at  -1.905023 -3.861655 -0.725125
      ESP Fit Center  795 is at  -1.203151 -3.523651 -0.725125
      ESP Fit Center  796 is at  -3.579993 -2.532547 -1.339798
      ESP Fit Center  797 is at  -3.171869 -3.167601 -1.339798
      ESP Fit Center  798 is at  -2.485196 -3.481194 -1.339798
      ESP Fit Center  799 is at  -1.737989 -3.373762 -1.339798
      ESP Fit Center  800 is at  -2.657061 -2.783019 -1.750509
      ESP Fit Center  801 is at   0.537802 -2.775842  1.750423
      ESP Fit Center  802 is at  -0.702062 -3.160424  1.339712
      ESP Fit Center  803 is at  -0.015389 -3.474017  1.339712
      ESP Fit Center  804 is at   0.731818 -3.366585  1.339712
      ESP Fit Center  805 is at  -0.916107 -3.516474  0.725039
      ESP Fit Center  806 is at  -0.214235 -3.854478  0.725039
      ESP Fit Center  807 is at   0.564784 -3.854478  0.725039
      ESP Fit Center  808 is at   1.266656 -3.516474  0.725039
      ESP Fit Center  809 is at  -0.549782 -3.898365 -0.000017
      ESP Fit Center  810 is at   0.175274 -4.042587 -0.000017
      ESP Fit Center  811 is at   0.900330 -3.898365 -0.000017
      ESP Fit Center  812 is at  -0.916107 -3.516474 -0.725073
      ESP Fit Center  813 is at  -0.214235 -3.854478 -0.725073
      ESP Fit Center  814 is at   0.564784 -3.854478 -0.725073
      ESP Fit Center  815 is at   1.266656 -3.516474 -0.725073
      ESP Fit Center  816 is at  -0.702062 -3.160424 -1.339746
      ESP Fit Center  817 is at  -0.015389 -3.474017 -1.339746
      ESP Fit Center  818 is at   0.731818 -3.366585 -1.339746
      ESP Fit Center  819 is at   0.537802 -2.775842 -1.750457
      ESP Fit Center  820 is at   0.537798  2.775847  1.750400
      ESP Fit Center  821 is at   0.731813  3.366590  1.339689
      ESP Fit Center  822 is at  -0.015393  3.474022  1.339689
      ESP Fit Center  823 is at  -0.702066  3.160430  1.339689
      ESP Fit Center  824 is at   1.266651  3.516479  0.725016
      ESP Fit Center  825 is at   0.564779  3.854483  0.725016
      ESP Fit Center  826 is at  -0.214240  3.854483  0.725016
      ESP Fit Center  827 is at  -0.916112  3.516479  0.725016
      ESP Fit Center  828 is at   0.900326  3.898370 -0.000040
      ESP Fit Center  829 is at   0.175270  4.042593 -0.000040
      ESP Fit Center  830 is at  -0.549786  3.898370 -0.000040
      ESP Fit Center  831 is at   1.266651  3.516479 -0.725096
[...]
 2055 Fit      -0.006621
 2056 Fit      -0.009116
 2057 Fit      -0.002259
 2058 Fit      -0.002261
 2059 Fit      -0.004032
 2060 Fit      -0.006981
 2061 Fit       0.003497
 2062 Fit       0.003045
 2063 Fit       0.001407
 2064 Fit      -0.000743
 2065 Fit       0.003300
 2066 Fit       0.003298
 2067 Fit       0.003484
 2068 Fit       0.003037
 2069 Fit       0.001403
 2070 Fit      -0.000746
 2071 Fit      -0.002269
 2072 Fit      -0.002267
 2073 Fit      -0.004037
 2074 Fit      -0.006984
 2075 Fit      -0.007810
 2076 Fit      -0.006627
 2077 Fit      -0.009120
 2078 Fit      -0.010465
 2079 Fit      -0.007006
 2080 Fit      -0.002485
 2081 Fit       0.001819
 2082 Fit       0.005700
 2083 Fit       0.005700
 2084 Fit       0.001818
 2085 Fit      -0.002487
 2086 Fit      -0.007009
 2087 Fit      -0.007007
 2088 Fit      -0.002485
 2089 Fit       0.001819
 2090 Fit       0.005700
 2091 Fit       0.005700
 2092 Fit       0.001818
 2093 Fit      -0.002486
 2094 Fit      -0.007008
 2095 Fit      -0.010460
 2096 Fit      -0.009116
 2097 Fit      -0.006622
 2098 Fit      -0.007802
 2099 Fit      -0.006982
 2100 Fit      -0.004033
 2101 Fit      -0.002262
 2102 Fit      -0.002261
 2103 Fit      -0.000744
 2104 Fit       0.001406
 2105 Fit       0.003043
 2106 Fit       0.003494
 2107 Fit       0.003299
 2108 Fit       0.003298
 2109 Fit      -0.000746
 2110 Fit       0.001404
 2111 Fit       0.003039
 2112 Fit       0.003488
 2113 Fit      -0.006984
 2114 Fit      -0.004036
 2115 Fit      -0.002266
 2116 Fit      -0.002267
 2117 Fit      -0.009119
 2118 Fit      -0.006626
 2119 Fit      -0.007808
 2120 Fit      -0.010464
 2121 Fit      -0.009818
 2122 Fit      -0.013223
 2123 Fit      -0.007952
 2124 Fit      -0.007950
 2125 Fit      -0.004833
 2126 Fit      -0.004830
 2127 Fit      -0.004841
 2128 Fit      -0.004844
 2129 Fit      -0.013229
 2130 Fit      -0.007960
 2131 Fit      -0.007961
 2132 Fit      -0.009826
 2133 Fit      -0.003593
 2134 Fit      -0.004751
 2135 Fit      -0.001039
 2136 Fit       0.000139
 2137 Fit      -0.001037
 2138 Fit      -0.004749
 2139 Fit      -0.004832
 2140 Fit       0.000127
 2141 Fit       0.003039
 2142 Fit       0.004089
 2143 Fit       0.004250
 2144 Fit       0.004091
 2145 Fit       0.003043
 2146 Fit       0.000131
 2147 Fit      -0.004829
 2148 Fit       0.003513
 2149 Fit       0.007223
 2150 Fit       0.008849
 2151 Fit       0.009040
 2152 Fit       0.008747
 2153 Fit       0.008748
 2154 Fit       0.009043
 2155 Fit       0.008854
 2156 Fit       0.007229
 2157 Fit       0.003518
 2158 Fit       0.014008
 2159 Fit       0.013200
 2160 Fit       0.013201
 2161 Fit       0.014011
 2162 Fit       0.018139
 2163 Fit       0.017016
 2164 Fit       0.017017
 2165 Fit       0.018141
 2166 Fit       0.019619
 2167 Fit       0.019619
 2168 Fit       0.021089
 2169 Fit       0.020349
 2170 Fit       0.021089
 2171 Fit       0.019614
 2172 Fit       0.019613
 2173 Fit       0.018130
 2174 Fit       0.017007
 2175 Fit       0.017006
 2176 Fit       0.018128
 2177 Fit       0.013997
 2178 Fit       0.013188
 2179 Fit       0.013187
 2180 Fit       0.013994
 2181 Fit       0.003506
 2182 Fit       0.007215
 2183 Fit       0.008839
 2184 Fit       0.009028
 2185 Fit       0.008733
 2186 Fit       0.008731
 2187 Fit       0.009024
 2188 Fit       0.008834
 2189 Fit       0.007210
 2190 Fit       0.003502
 2191 Fit      -0.004840
 2192 Fit       0.000118
 2193 Fit       0.003028
 2194 Fit       0.004075
 2195 Fit       0.004234
 2196 Fit       0.004073
 2197 Fit       0.003025
 2198 Fit       0.000114
 2199 Fit      -0.004843
 2200 Fit      -0.004761
 2201 Fit      -0.001052
 2202 Fit       0.000124
 2203 Fit      -0.001053
 2204 Fit      -0.004763
 2205 Fit      -0.003607
 2206 Fit      -0.008905
 2207 Fit      -0.008831
 2208 Fit      -0.008807
 2209 Fit      -0.008854
 2210 Fit      -0.008976
 2211 Fit      -0.008854
 2212 Fit      -0.008807
 2213 Fit      -0.008695
 2214 Fit      -0.008672
 2215 Fit      -0.008594
 2216 Fit      -0.008514
 2217 Fit      -0.008613
 2218 Fit      -0.008939
 2219 Fit      -0.009139
 2220 Fit      -0.008939
 2221 Fit      -0.008613
 2222 Fit      -0.008514
 2223 Fit      -0.008594
 2224 Fit      -0.008672
 2225 Fit      -0.008471
 2226 Fit      -0.008463
 2227 Fit      -0.008419
 2228 Fit      -0.008297
 2229 Fit      -0.008109
 2230 Fit      -0.007982
 2231 Fit      -0.008126
 2232 Fit      -0.008632
 2233 Fit      -0.009253
 2234 Fit      -0.009534
 2235 Fit      -0.009253
 2236 Fit      -0.008632
 2237 Fit      -0.008126
 2238 Fit      -0.007982
 2239 Fit      -0.008109
 2240 Fit      -0.008297
 2241 Fit      -0.008419
 2242 Fit      -0.008463
 2243 Fit      -0.008157
 2244 Fit      -0.008163
 2245 Fit      -0.008160
 2246 Fit      -0.008104
 2247 Fit      -0.007944
 2248 Fit      -0.007669
 2249 Fit      -0.007347
 2250 Fit      -0.007148
 2251 Fit      -0.007311
 2252 Fit      -0.007989
 2253 Fit      -0.009037
 2254 Fit      -0.009983
 2255 Fit      -0.010354
 2256 Fit      -0.009982
 2257 Fit      -0.009037
 2258 Fit      -0.007989
 2259 Fit      -0.007310
 2260 Fit      -0.007147
 2261 Fit      -0.007347
 2262 Fit      -0.007669
 2263 Fit      -0.007944
 2264 Fit      -0.008104
 2265 Fit      -0.008160
 2266 Fit      -0.008163
 2267 Fit      -0.007775
 2268 Fit      -0.007790
 2269 Fit      -0.007820
 2270 Fit      -0.007823
 2271 Fit      -0.007739
 2272 Fit      -0.007517
 2273 Fit      -0.007133
 2274 Fit      -0.006625
 2275 Fit      -0.006130
 2276 Fit      -0.005897
 2277 Fit      -0.006242
 2278 Fit      -0.007366
 2279 Fit      -0.009095
 2280 Fit      -0.010780
 2281 Fit      -0.011740
 2282 Fit      -0.011740
 2283 Fit      -0.010779
 2284 Fit      -0.009094
 2285 Fit      -0.007365
 2286 Fit      -0.006241
 2287 Fit      -0.005897
 2288 Fit      -0.006129
 2289 Fit      -0.006625
 2290 Fit      -0.007133
 2291 Fit      -0.007517
 2292 Fit      -0.007739
 2293 Fit      -0.007823
 2294 Fit      -0.007820
 2295 Fit      -0.007790
 2296 Fit      -0.007359
 2297 Fit      -0.007383
 2298 Fit      -0.007438
 2299 Fit      -0.007488
 2300 Fit      -0.007473
 2301 Fit      -0.007329
 2302 Fit      -0.006998
 2303 Fit      -0.006449
 2304 Fit      -0.005703
 2305 Fit      -0.004876
 2306 Fit      -0.004224
 2307 Fit      -0.004154
 2308 Fit      -0.005129
 2309 Fit      -0.007384
 2310 Fit      -0.007383
 2311 Fit      -0.005128
 2312 Fit      -0.004154
 2313 Fit      -0.004223
 2314 Fit      -0.004876
 2315 Fit      -0.005703
 2316 Fit      -0.006449
 2317 Fit      -0.006998
 2318 Fit      -0.007329
 2319 Fit      -0.007473
 2320 Fit      -0.007488
 2321 Fit      -0.007438
 2322 Fit      -0.007383
 2323 Fit      -0.006953
 2324 Fit      -0.006981
 2325 Fit      -0.007054
 2326 Fit      -0.007140
 2327 Fit      -0.007186
 2328 Fit      -0.007130
 2329 Fit      -0.006905
 2330 Fit      -0.006450
 2331 Fit      -0.005722
 2332 Fit      -0.004717
 2333 Fit      -0.003504
 2334 Fit      -0.002291
 2335 Fit      -0.001499
 2336 Fit      -0.001759
 2337 Fit      -0.001759
 2338 Fit      -0.001499
 2339 Fit      -0.002291
 2340 Fit      -0.003503
 2341 Fit      -0.004716
 2342 Fit      -0.005722
 2343 Fit      -0.006450
 2344 Fit      -0.006905
 2345 Fit      -0.007130
 2346 Fit      -0.007186
 2347 Fit      -0.007140
 2348 Fit      -0.007054
 2349 Fit      -0.006981
 2350 Fit      -0.006599
 2351 Fit      -0.006631
 2352 Fit      -0.006717
 2353 Fit      -0.006827
 2354 Fit      -0.006914
 2355 Fit      -0.006919
 2356 Fit      -0.006775
 2357 Fit      -0.006412
 2358 Fit      -0.005762
 2359 Fit      -0.004768
 2360 Fit      -0.003398
 2361 Fit      -0.001684
 2362 Fit       0.000207
 2363 Fit       0.001839
 2364 Fit       0.001839
 2365 Fit       0.000207
 2366 Fit      -0.001684
 2367 Fit      -0.003398
 2368 Fit      -0.004767
 2369 Fit      -0.005761
 2370 Fit      -0.006412
 2371 Fit      -0.006775
 2372 Fit      -0.006919
 2373 Fit      -0.006914
 2374 Fit      -0.006827
 2375 Fit      -0.006717
 2376 Fit      -0.006631
 2377 Fit      -0.006339
 2378 Fit      -0.006375
 2379 Fit      -0.006472
 2380 Fit      -0.006601
 2381 Fit      -0.006713
 2382 Fit      -0.006746
 2383 Fit      -0.006628
 2384 Fit      -0.006280
 2385 Fit      -0.005620
 2386 Fit      -0.004564
 2387 Fit      -0.003031
 2388 Fit      -0.000958
 2389 Fit       0.001638
 2390 Fit       0.001638
 2391 Fit      -0.000958
 2392 Fit      -0.003031
 2393 Fit      -0.004564
 2394 Fit      -0.005620
 2395 Fit      -0.006280
 2396 Fit      -0.006628
 2397 Fit      -0.006746
 2398 Fit      -0.006713
 2399 Fit      -0.006601
 2400 Fit      -0.006472
 2401 Fit      -0.006375
 2402 Fit      -0.006201
 2403 Fit      -0.006238
 2404 Fit      -0.006339
 2405 Fit      -0.006476
 2406 Fit      -0.006601
 2407 Fit      -0.006654
 2408 Fit      -0.006564
 2409 Fit      -0.006251
 2410 Fit      -0.005630
 2411 Fit      -0.004607
 2412 Fit      -0.003080
 2413 Fit      -0.000937
 2414 Fit       0.001911
 2415 Fit       0.001911
 2416 Fit      -0.000937
 2417 Fit      -0.003080
 2418 Fit      -0.004607
 2419 Fit      -0.005630
 2420 Fit      -0.006251
 2421 Fit      -0.006564
 2422 Fit      -0.006654
 2423 Fit      -0.006601
 2424 Fit      -0.006476
 2425 Fit      -0.006339
 2426 Fit      -0.006238
 2427 Fit      -0.006201
 2428 Fit      -0.006238
 2429 Fit      -0.006339
 2430 Fit      -0.006476
 2431 Fit      -0.006601
 2432 Fit      -0.006654
 2433 Fit      -0.006564
 2434 Fit      -0.006251
 2435 Fit      -0.005630
 2436 Fit      -0.004607
 2437 Fit      -0.003080
 2438 Fit      -0.000937
 2439 Fit       0.001911
 2440 Fit       0.001911
 2441 Fit      -0.000937
 2442 Fit      -0.003080
 2443 Fit      -0.004607
 2444 Fit      -0.005630
 2445 Fit      -0.006251
 2446 Fit      -0.006564
 2447 Fit      -0.006654
 2448 Fit      -0.006601
 2449 Fit      -0.006476
 2450 Fit      -0.006339
 2451 Fit      -0.006238
 2452 Fit      -0.006339
 2453 Fit      -0.006375
 2454 Fit      -0.006473
 2455 Fit      -0.006601
 2456 Fit      -0.006713
 2457 Fit      -0.006746
 2458 Fit      -0.006628
 2459 Fit      -0.006280
 2460 Fit      -0.005621
 2461 Fit      -0.004565
 2462 Fit      -0.003031
 2463 Fit      -0.000958
 2464 Fit       0.001638
 2465 Fit       0.001637
 2466 Fit      -0.000958
 2467 Fit      -0.003031
 2468 Fit      -0.004565
 2469 Fit      -0.005621
 2470 Fit      -0.006280
 2471 Fit      -0.006628
 2472 Fit      -0.006746
 2473 Fit      -0.006713
 2474 Fit      -0.006601
 2475 Fit      -0.006472
 2476 Fit      -0.006375
 2477 Fit      -0.006600
 2478 Fit      -0.006632
 2479 Fit      -0.006717
 2480 Fit      -0.006827
 2481 Fit      -0.006914
 2482 Fit      -0.006919
 2483 Fit      -0.006775
 2484 Fit      -0.006412
 2485 Fit      -0.005762
 2486 Fit      -0.004768
 2487 Fit      -0.003398
 2488 Fit      -0.001684
 2489 Fit       0.000207
 2490 Fit       0.001839
 2491 Fit       0.001839
 2492 Fit       0.000206
 2493 Fit      -0.001684
 2494 Fit      -0.003399
 2495 Fit      -0.004768
 2496 Fit      -0.005762
 2497 Fit      -0.006412
 2498 Fit      -0.006775
 2499 Fit      -0.006919
 2500 Fit      -0.006914
 2501 Fit      -0.006827
 2502 Fit      -0.006717
 2503 Fit      -0.006632
 2504 Fit      -0.006953
 2505 Fit      -0.006981
 2506 Fit      -0.007055
 2507 Fit      -0.007140
 2508 Fit      -0.007186
 2509 Fit      -0.007130
 2510 Fit      -0.006905
 2511 Fit      -0.006450
 2512 Fit      -0.005723
 2513 Fit      -0.004717
 2514 Fit      -0.003504
 2515 Fit      -0.002292
 2516 Fit      -0.001499
 2517 Fit      -0.001760
 2518 Fit      -0.001760
 2519 Fit      -0.001500
 2520 Fit      -0.002292
 2521 Fit      -0.003504
 2522 Fit      -0.004717
 2523 Fit      -0.005723
 2524 Fit      -0.006450
 2525 Fit      -0.006905
 2526 Fit      -0.007130
 2527 Fit      -0.007186
 2528 Fit      -0.007140
 2529 Fit      -0.007055
 2530 Fit      -0.006981
 2531 Fit      -0.007360
 2532 Fit      -0.007383
 2533 Fit      -0.007439
 2534 Fit      -0.007488
 2535 Fit      -0.007473
 2536 Fit      -0.007330
 2537 Fit      -0.006999
 2538 Fit      -0.006449
 2539 Fit      -0.005703
 2540 Fit      -0.004876
 2541 Fit      -0.004224
 2542 Fit      -0.004155
 2543 Fit      -0.005130
 2544 Fit      -0.007386
 2545 Fit      -0.007386
 2546 Fit      -0.005130
 2547 Fit      -0.004155
 2548 Fit      -0.004224
 2549 Fit      -0.004877
 2550 Fit      -0.005703
 2551 Fit      -0.006449
 2552 Fit      -0.006999
 2553 Fit      -0.007330
 2554 Fit      -0.007473
 2555 Fit      -0.007488
 2556 Fit      -0.007439
 2557 Fit      -0.007383
 2558 Fit      -0.007776
 2559 Fit      -0.007791
 2560 Fit      -0.007821
 2561 Fit      -0.007823
 2562 Fit      -0.007740
 2563 Fit      -0.007518
 2564 Fit      -0.007133
 2565 Fit      -0.006625
 2566 Fit      -0.006130
 2567 Fit      -0.005898
 2568 Fit      -0.006243
 2569 Fit      -0.007367
 2570 Fit      -0.009097
 2571 Fit      -0.010783
 2572 Fit      -0.011744
 2573 Fit      -0.011744
 2574 Fit      -0.010783
 2575 Fit      -0.009097
 2576 Fit      -0.007368
 2577 Fit      -0.006243
 2578 Fit      -0.005898
 2579 Fit      -0.006130
 2580 Fit      -0.006626
 2581 Fit      -0.007133
 2582 Fit      -0.007518
 2583 Fit      -0.007740
 2584 Fit      -0.007823
 2585 Fit      -0.007821
 2586 Fit      -0.007791
 2587 Fit      -0.008158
 2588 Fit      -0.008163
 2589 Fit      -0.008161
 2590 Fit      -0.008104
 2591 Fit      -0.007945
 2592 Fit      -0.007670
 2593 Fit      -0.007347
 2594 Fit      -0.007148
 2595 Fit      -0.007312
 2596 Fit      -0.007991
 2597 Fit      -0.009039
 2598 Fit      -0.009985
 2599 Fit      -0.010357
 2600 Fit      -0.009985
 2601 Fit      -0.009040
 2602 Fit      -0.007991
 2603 Fit      -0.007312
 2604 Fit      -0.007149
 2605 Fit      -0.007347
 2606 Fit      -0.007670
 2607 Fit      -0.007945
 2608 Fit      -0.008104
 2609 Fit      -0.008161
 2610 Fit      -0.008163
 2611 Fit      -0.008471
 2612 Fit      -0.008464
 2613 Fit      -0.008419
 2614 Fit      -0.008297
 2615 Fit      -0.008110
 2616 Fit      -0.007983
 2617 Fit      -0.008127
 2618 Fit      -0.008634
 2619 Fit      -0.009255
 2620 Fit      -0.009536
 2621 Fit      -0.009255
 2622 Fit      -0.008634
 2623 Fit      -0.008127
 2624 Fit      -0.007983
 2625 Fit      -0.008110
 2626 Fit      -0.008297
 2627 Fit      -0.008419
 2628 Fit      -0.008464
 2629 Fit      -0.008696
 2630 Fit      -0.008673
 2631 Fit      -0.008595
 2632 Fit      -0.008515
 2633 Fit      -0.008615
 2634 Fit      -0.008940
 2635 Fit      -0.009141
 2636 Fit      -0.008940
 2637 Fit      -0.008615
 2638 Fit      -0.008515
 2639 Fit      -0.008595
 2640 Fit      -0.008673
 2641 Fit      -0.008832
 2642 Fit      -0.008808
 2643 Fit      -0.008855
 2644 Fit      -0.008977
 2645 Fit      -0.008855
 2646 Fit      -0.008808
 2647 Fit      -0.008906
 2648 Fit       0.007227
 2649 Fit       0.005010
 2650 Fit       0.014898
 2651 Fit       0.011933
 2652 Fit       0.009443
 2653 Fit       0.007316
 2654 Fit       0.005373
 2655 Fit       0.017157
 2656 Fit       0.013521
 2657 Fit       0.011070
 2658 Fit       0.009266
 2659 Fit       0.008022
 2660 Fit       0.017365
 2661 Fit       0.013792
 2662 Fit       0.011475
 2663 Fit       0.009905
 2664 Fit       0.009187
 2665 Fit       0.017363
 2666 Fit       0.013791
 2667 Fit       0.011475
 2668 Fit       0.009904
 2669 Fit       0.009187
 2670 Fit       0.017150
 2671 Fit       0.013517
 2672 Fit       0.011068
 2673 Fit       0.009264
 2674 Fit       0.008020
 2675 Fit       0.014884
 2676 Fit       0.011926
 2677 Fit       0.009439
 2678 Fit       0.007313
 2679 Fit       0.005371
 2680 Fit       0.007219
 2681 Fit       0.005006
 2682 Fit       0.003601
 2683 Fit       0.006183
 2684 Fit       0.004518
 2685 Fit       0.007007
 2686 Fit       0.005080
 2687 Fit       0.007007
 2688 Fit       0.005080
 2689 Fit       0.006182
 2690 Fit       0.004517
 2691 Fit       0.003600
 2692 Fit       0.003600
 2693 Fit       0.004518
 2694 Fit       0.006183
 2695 Fit       0.005080
 2696 Fit       0.007007
 2697 Fit       0.005080
 2698 Fit       0.007007
 2699 Fit       0.004518
 2700 Fit       0.006182
 2701 Fit       0.003600
 2702 Fit       0.005009
 2703 Fit       0.007224
 2704 Fit       0.005373
 2705 Fit       0.007315
 2706 Fit       0.009442
 2707 Fit       0.011931
 2708 Fit       0.014893
 2709 Fit       0.008021
 2710 Fit       0.009265
 2711 Fit       0.011069
 2712 Fit       0.013519
 2713 Fit       0.017154
 2714 Fit       0.009187
 2715 Fit       0.009905
 2716 Fit       0.011475
 2717 Fit       0.013792
 2718 Fit       0.017364
 2719 Fit       0.009187
 2720 Fit       0.009904
 2721 Fit       0.011475
 2722 Fit       0.013791
 2723 Fit       0.017363
 2724 Fit       0.008021
 2725 Fit       0.009265
 2726 Fit       0.011068
 2727 Fit       0.013518
 2728 Fit       0.017152
 2729 Fit       0.005372
 2730 Fit       0.007314
 2731 Fit       0.009440
 2732 Fit       0.011928
 2733 Fit       0.014889
 2734 Fit       0.005007
 2735 Fit       0.007221
 2736 Fit       0.013257
 2737 Fit       0.017104
 2738 Fit       0.017473
 2739 Fit       0.017204
 2740 Fit       0.016107
 2741 Fit       0.019756
 2742 Fit       0.020075
 2743 Fit       0.020222
 2744 Fit       0.020153
 2745 Fit       0.020069
 2746 Fit       0.021076
 2747 Fit       0.021231
 2748 Fit       0.021477
 2749 Fit       0.021629
 2750 Fit       0.021824
 2751 Fit       0.021074
 2752 Fit       0.021230
 2753 Fit       0.021475
 2754 Fit       0.021627
 2755 Fit       0.021823
 2756 Fit       0.019751
 2757 Fit       0.020070
 2758 Fit       0.020217
 2759 Fit       0.020148
 2760 Fit       0.020066
 2761 Fit       0.017094
 2762 Fit       0.017464
 2763 Fit       0.017196
 2764 Fit       0.016100
 2765 Fit       0.013244
 2766 Fit       0.013254
 2767 Fit       0.016105
 2768 Fit       0.017202
 2769 Fit       0.017471
 2770 Fit       0.017103
 2771 Fit       0.020069
 2772 Fit       0.020152
 2773 Fit       0.020221
 2774 Fit       0.020074
 2775 Fit       0.019756
 2776 Fit       0.021824
 2777 Fit       0.021628
 2778 Fit       0.021477
 2779 Fit       0.021231
 2780 Fit       0.021076
 2781 Fit       0.021823
 2782 Fit       0.021628
 2783 Fit       0.021476
 2784 Fit       0.021230
 2785 Fit       0.021074
 2786 Fit       0.020067
 2787 Fit       0.020149
 2788 Fit       0.020218
 2789 Fit       0.020071
 2790 Fit       0.019751
 2791 Fit       0.016102
 2792 Fit       0.017198
 2793 Fit       0.017466
 2794 Fit       0.017096
 2795 Fit       0.013247
 -----------------------------------------------------------------
 Leave Link  602 at Thu Jan 16 22:36:57 2014, MaxMem=   235929600 cpu:         0.6

 Test job not archived.
 1\1\GINC-G59\SP\RHF\Gen\C6H6Br1N1\KOLAR\16-Jan-2014\0\\# hf/gen pop=mk
  iop(6/33=2,6/41=5,6/42=2)\\na resp\\0,1\C,0,1.759105,-1.208444,0.0000
 29\C,0,0.367417,-1.208425,0.000013\C,0,-0.326064,0.000003,0.000012\C,0
 ,0.367417,1.208427,0.000021\C,0,1.759108,1.208445,0.000004\C,0,2.48194
 1,0.000001,0.000002\N,0,3.859001,-0.000003,0.000009\Br,0,-2.241823,-0.
 000001,-0.000009\H,0,2.294533,-2.155102,0.000069\H,0,-0.175274,-2.1479
 25,0.000017\H,0,-0.17527,2.14793,0.00004\H,0,2.294533,2.155104,-0.0000
 03\H,0,4.379363,-0.861123,-0.000306\H,0,4.379369,0.861113,-0.000042\\V
 ersion=AM64L-G09RevD.01\State=1-A\HF=-2854.734551\RMSD=4.203e-09\Dipol
 e=1.6006442,-0.0000031,-0.0002532\Quadrupole=5.9026367,1.7335563,-7.63
 6193,-0.0000122,-0.0023438,0.0003695\PG=C01 [X(C6H6Br1N1)]\\@


 IT IS DOUBTED WHETHER A MAN EVER BRINGS HIS FACULTIES TO BEAR WITH THEIR FULL FORCE
 ON A SUBJECT UNTIL HE WRITES UPON IT.

                          -- CICERO
 Job cpu time:       0 days  0 hours  0 minutes 10.3 seconds.
 File lengths (MBytes):  RWF=      9 Int=      0 D2E=      0 Chk=      2 Scr=      1
 Normal termination of Gaussian 09 at Thu Jan 16 22:36:57 2014.
9.73user 0.52system 0:10.34elapsed 99%CPU (0avgtext+0avgdata 1694304maxresident)k
8inputs+20240outputs (0major+258659minor)pagefaults 0swaps
