Linux g59 2.6.38.6-client #1 SMP Tue Jun 12 11:27:21 CEST 2012 x86_64 GNU/Linux
Thu Jan 16 22:36:46 CET 2014

 Entering Gaussian System, Link 0=/usr/local/programs/common/gaussian/gaussian09_d01/arch/amd64-pgi_10.4.0-acml/g09/g09
 Initial command:
 /usr/local/programs/common/gaussian/gaussian09_d01/arch/amd64-pgi_10.4.0-acml/g09/l1.exe "/scratch/kolar/g09_25889/Gau-1811.inp" -scrdir="/scratch/kolar/g09_25889/"
 Entering Link 1 = /usr/local/programs/common/gaussian/gaussian09_d01/arch/amd64-pgi_10.4.0-acml/g09/l1.exe PID=      1820.
  
 Copyright (c) 1988,1990,1992,1993,1995,1998,2003,2009,2013,
            Gaussian, Inc.  All Rights Reserved.
  
 This is part of the Gaussian(R) 09 program.  It is based on
 the Gaussian(R) 03 system (copyright 2003, Gaussian, Inc.),
 the Gaussian(R) 98 system (copyright 1998, Gaussian, Inc.),
 the Gaussian(R) 94 system (copyright 1995, Gaussian, Inc.),
 the Gaussian 92(TM) system (copyright 1992, Gaussian, Inc.),
 the Gaussian 90(TM) system (copyright 1990, Gaussian, Inc.),
 the Gaussian 88(TM) system (copyright 1988, Gaussian, Inc.),
 the Gaussian 86(TM) system (copyright 1986, Carnegie Mellon
 University), and the Gaussian 82(TM) system (copyright 1983,
 Carnegie Mellon University). Gaussian is a federally registered
 trademark of Gaussian, Inc.
  
 This software contains proprietary and confidential information,
 including trade secrets, belonging to Gaussian, Inc.
  
 This software is provided under written license and may be
 used, copied, transmitted, or stored only in accord with that
 written license.
  
 The following legend is applicable only to US Government
 contracts under FAR:
  
                    RESTRICTED RIGHTS LEGEND
  
 Use, reproduction and disclosure by the US Government is
 subject to restrictions as set forth in subparagraphs (a)
 and (c) of the Commercial Computer Software - Restricted
 Rights clause in FAR 52.227-19.
  
 Gaussian, Inc.
 340 Quinnipiac St., Bldg. 40, Wallingford CT 06492
  
  
 ---------------------------------------------------------------
 Warning -- This program may not be used in any manner that
 competes with the business of Gaussian, Inc. or will provide
 assistance to any competitor of Gaussian, Inc.  The licensee
 of this program is prohibited from giving any competitor of
 Gaussian, Inc. access to this program.  By using this program,
 the user acknowledges that Gaussian, Inc. is engaged in the
 business of creating and licensing software in the field of
 computational chemistry and represents and warrants to the
 licensee that it is not a competitor of Gaussian, Inc. and that
 it will not use this program in any manner prohibited above.
 ---------------------------------------------------------------
  

 Cite this work as:
 Gaussian 09, Revision D.01,
 M. J. Frisch, G. W. Trucks, H. B. Schlegel, G. E. Scuseria, 
 M. A. Robb, J. R. Cheeseman, G. Scalmani, V. Barone, B. Mennucci, 
 G. A. Petersson, H. Nakatsuji, M. Caricato, X. Li, H. P. Hratchian, 
 A. F. Izmaylov, J. Bloino, G. Zheng, J. L. Sonnenberg, M. Hada, 
 M. Ehara, K. Toyota, R. Fukuda, J. Hasegawa, M. Ishida, T. Nakajima, 
 Y. Honda, O. Kitao, H. Nakai, T. Vreven, J. A. Montgomery, Jr., 
 J. E. Peralta, F. Ogliaro, M. Bearpark, J. J. Heyd, E. Brothers, 
 K. N. Kudin, V. N. Staroverov, T. Keith, R. Kobayashi, J. Normand, 
 K. Raghavachari, A. Rendell, J. C. Burant, S. S. Iyengar, J. Tomasi, 
 M. Cossi, N. Rega, J. M. Millam, M. Klene, J. E. Knox, J. B. Cross, 
 V. Bakken, C. Adamo, J. Jaramillo, R. Gomperts, R. E. Stratmann, 
 O. Yazyev, A. J. Austin, R. Cammi, C. Pomelli, J. W. Ochterski, 
 R. L. Martin, K. Morokuma, V. G. Zakrzewski, G. A. Voth, 
 P. Salvador, J. J. Dannenberg, S. Dapprich, A. D. Daniels, 
 O. Farkas, J. B. Foresman, J. V. Ortiz, J. Cioslowski, 
 and D. J. Fox, Gaussian, Inc., Wallingford CT, 2013.
 
 ******************************************
 Gaussian 09:  AM64L-G09RevD.01 24-Apr-2013
                16-Jan-2014 
 ******************************************
 %mem=1800mb
 -----------------------------------------
 # hf/gen pop=mk iop(6/33=2,6/41=5,6/42=2)
 -----------------------------------------
 1/38=1/1;
 2/12=2,17=6,18=5,40=1/2;
 3/5=7,11=9,16=1,25=1,30=1/1,2,3;
 4//1;
 5/5=2,38=5/2;
 6/7=2,8=2,9=2,10=2,15=8,20=1,28=1,33=2,41=5,42=2/1,2;
 99/5=1,9=1/99;
 -------
 na resp
 -------
 Symbolic Z-matrix:
 Charge =  0 Multiplicity = 1
 6                    -1.04429   2.51866  -0.00034 
 6                    -2.42869   2.5255   -0.0001 
 6                    -3.14047   1.31805   0.00014 
 6                    -2.40452   0.12002   0.00006 
 6                    -1.02095   0.10041  -0.00022 
 6                    -0.30112   1.31486  -0.00038 
 6                     1.14574   1.43105  -0.00041 
 6                     2.16145   0.52659  -0.00051 
 6                     2.20359  -0.96549  -0.00095 
 8                     1.30874  -1.79433  -0.00119 
 7                     3.56499  -1.26341  -0.00109 
 6                     4.38003  -0.14591   0.00007 
 16                    6.03597  -0.10596   0.00122 
 7                     3.51481   0.90849  -0.00029 
 35                   -3.38397  -1.52935   0.00033 
 8                    -4.48886   1.36819   0.00043 
 1                    -0.51462   3.46785  -0.00056 
 1                    -2.99011   3.45403  -0.00012 
 1                    -0.49123  -0.84428  -0.00037 
 1                     1.48513   2.46774  -0.00027 
 1                     3.93065  -2.2058    0.00022 
 1                     3.85489   1.85945   0.00089 
 1                    -4.83334   0.4546    0.0006 
 
                          Input orientation:                          
 ---------------------------------------------------------------------
 Center     Atomic      Atomic             Coordinates (Angstroms)
 Number     Number       Type             X           Y           Z
 ---------------------------------------------------------------------
      1          6           0       -1.044286    2.518659   -0.000344
      2          6           0       -2.428694    2.525499   -0.000104
      3          6           0       -3.140474    1.318052    0.000144
      4          6           0       -2.404522    0.120020    0.000059
      5          6           0       -1.020949    0.100410   -0.000218
      6          6           0       -0.301120    1.314861   -0.000380
      7          6           0        1.145743    1.431045   -0.000412
      8          6           0        2.161448    0.526592   -0.000505
      9          6           0        2.203591   -0.965493   -0.000952
     10          8           0        1.308737   -1.794325   -0.001189
     11          7           0        3.564990   -1.263406   -0.001093
     12          6           0        4.380034   -0.145911    0.000067
     13         16           0        6.035967   -0.105956    0.001224
     14          7           0        3.514806    0.908493   -0.000293
     15         35           0       -3.383973   -1.529350    0.000333
     16          8           0       -4.488862    1.368192    0.000432
     17          1           0       -0.514615    3.467849   -0.000558
     18          1           0       -2.990108    3.454029   -0.000120
     19          1           0       -0.491228   -0.844281   -0.000368
     20          1           0        1.485134    2.467744   -0.000273
     21          1           0        3.930651   -2.205804    0.000221
     22          1           0        3.854892    1.859451    0.000885
     23          1           0       -4.833343    0.454596    0.000602
 ---------------------------------------------------------------------
                    Distance matrix (angstroms):
                    1          2          3          4          5
     1  C    0.000000
     2  C    1.384425   0.000000
     3  C    2.415670   1.401627   0.000000
     4  C    2.757483   2.405600   1.406025   0.000000
     5  C    2.418362   2.804069   2.444389   1.383712   0.000000
     6  C    1.414717   2.447900   2.839356   2.419079   1.411752
     7  C    2.445226   3.738239   4.287706   3.784596   2.542665
     8  C    3.774263   5.006499   5.360670   4.584036   3.210807
     9  C    4.763194   5.800439   5.811507   4.734242   3.396146
    10  O    4.913100   5.712204   5.429767   4.177680   3.002908
    11  N    5.962335   7.090843   7.185205   6.127719   4.784436
    12  C    6.043441   7.314042   7.661673   6.789766   5.406597
    13  S    7.551065   8.864256   9.286273   8.443514   7.059933
    14  N    4.835075   6.159537   6.667870   5.971611   4.607176
    15  Br   4.675523   4.165856   2.857795   1.918266   2.870540
    16  O    3.631622   2.362975   1.349320   2.429487   3.692383
    17  H    1.086974   2.133477   3.393636   3.844439   3.405293
    18  H    2.158967   1.085059   2.141263   3.385045   3.889003
    19  H    3.408114   3.887054   3.419677   2.142562   1.083072
    20  H    2.529932   3.914254   4.766345   4.543262   3.447423
    21  H    6.860798   7.926317   7.900530   6.748620   5.462322
    22  H    4.943329   6.318787   7.016285   6.496606   5.183440
    23  H    4.314778   3.173480   1.900358   2.451757   3.828811
                    6          7          8          9         10
     6  C    0.000000
     7  C    1.451520   0.000000
     8  C    2.585654   1.360034   0.000000
     9  C    3.387269   2.619625   1.492680   0.000000
    10  O    3.501239   3.229486   2.472604   1.219724   0.000000
    11  N    4.646963   3.621163   2.274648   1.393614   2.317877
    12  C    4.903780   3.598254   2.318272   2.325644   3.485704
    13  S    6.494413   5.126077   3.925814   3.927584   5.019691
    14  N    3.837503   2.426009   1.406210   2.287162   3.488835
    15  Br   4.194463   5.411309   5.914270   5.615942   4.700185
    16  O    4.188082   5.634956   6.703351   7.087666   6.604065
    17  H    2.163547   2.627805   3.976469   5.200304   5.569119
    18  H    3.436087   4.604099   5.925236   6.819581   6.784194
    19  H    2.167495   2.802995   2.985964   2.697544   2.035303
    20  H    2.125992   1.090840   2.055595   3.507606   4.265718
    21  H    5.504813   4.580653   3.255160   2.126290   2.654006
    22  H    4.191541   2.742813   2.155056   3.272172   4.453424
    23  H    4.613144   6.058294   6.995162   7.178795   6.540856
                   11         12         13         14         15
    11  N    0.000000
    12  C    1.383146   0.000000
    13  S    2.728630   1.656415   0.000000
    14  N    2.172479   1.363960   2.717602   0.000000
    15  Br   6.954050   7.886299   9.526874   7.316846   0.000000
    16  O    8.472889   8.997212  10.627565   8.016859   3.101053
    17  H    6.247235   6.084147   7.462051   4.773525   5.762397
    18  H    8.076107   8.202351   9.702759   6.985246   4.998919
    19  H    4.077814   4.921068   6.568820   4.372702   2.972759
    20  H    4.271684   3.900210   5.228194   2.559459   6.299600
    21  H    1.010853   2.108342   2.973503   3.141938   7.345837
    22  H    3.136285   2.072981   2.935969   1.009941   7.992818
    23  H    8.572254   9.232926  10.883755   8.360479   2.456973
                   16         17         18         19         20
    16  O    0.000000
    17  H    4.494797   0.000000
    18  H    2.568459   2.475532   0.000000
    19  H    4.569039   4.312193   4.971908   0.000000
    20  H    6.074343   2.235890   4.582636   3.856879   0.000000
    21  H    9.146674   7.207685   8.940392   4.626744   5.274714
    22  H    8.358204   4.656129   7.028279   5.118489   2.446584
    23  H    0.976384   5.266033   3.520528   4.532223   6.631434
                   21         22         23
    21  H    0.000000
    22  H    4.065961   0.000000
    23  H    9.158893   8.801082   0.000000
 Stoichiometry    C10H7BrN2O2S
 Framework group  C1[X(C10H7BrN2O2S)]
 Deg. of freedom    63
 Full point group                 C1      NOp   1
 Largest Abelian subgroup         C1      NOp   1
 Largest concise Abelian subgroup C1      NOp   1
                         Standard orientation:                         
 ---------------------------------------------------------------------
 Center     Atomic      Atomic             Coordinates (Angstroms)
 Number     Number       Type             X           Y           Z
 ---------------------------------------------------------------------
      1          6           0        1.044286    2.518659    0.000344
      2          6           0        2.428694    2.525499    0.000104
      3          6           0        3.140474    1.318052   -0.000144
      4          6           0        2.404522    0.120020   -0.000059
      5          6           0        1.020949    0.100410    0.000218
      6          6           0        0.301120    1.314861    0.000380
      7          6           0       -1.145743    1.431045    0.000412
      8          6           0       -2.161448    0.526592    0.000505
      9          6           0       -2.203591   -0.965493    0.000952
     10          8           0       -1.308737   -1.794325    0.001189
     11          7           0       -3.564990   -1.263406    0.001093
     12          6           0       -4.380034   -0.145911   -0.000067
     13         16           0       -6.035967   -0.105956   -0.001224
     14          7           0       -3.514806    0.908493    0.000293
     15         35           0        3.383973   -1.529350   -0.000333
     16          8           0        4.488862    1.368192   -0.000432
     17          1           0        0.514615    3.467849    0.000558
     18          1           0        2.990108    3.454029    0.000120
     19          1           0        0.491228   -0.844281    0.000368
     20          1           0       -1.485134    2.467744    0.000273
     21          1           0       -3.930651   -2.205804   -0.000221
     22          1           0       -3.854892    1.859451   -0.000885
     23          1           0        4.833343    0.454596   -0.000602
 ---------------------------------------------------------------------
 Rotational constants (GHZ):      0.8849849      0.1452897      0.1248009
 General basis read from cards:  (5D, 7F)
 There are   273 symmetry adapted cartesian basis functions of A   symmetry.
 There are   256 symmetry adapted basis functions of A   symmetry.
   256 basis functions,   555 primitive gaussians,   273 cartesian basis functions
    74 alpha electrons       74 beta electrons
       nuclear repulsion energy      1421.2478072842 Hartrees.
 NAtoms=   23 NActive=   23 NUniq=   23 SFac= 1.00D+00 NAtFMM=   60 NAOKFM=F Big=F
 Integral buffers will be    131072 words long.
 Raffenetti 1 integral format.
 Two-electron integral symmetry is turned on.
 One-electron integrals computed using PRISM.
 NBasis=   256 RedAO= T EigKep=  4.07D-04  NBF=   256
 NBsUse=   256 1.00D-06 EigRej= -1.00D+00 NBFU=   256
 ExpMin= 1.17D-01 ExpMax= 5.74D+05 ExpMxC= 5.74D+03 IAcc=2 IRadAn=         4 AccDes= 0.00D+00
 Harris functional with IExCor=  205 and IRadAn=       4 diagonalized for initial guess.
 HarFok:  IExCor=  205 AccDes= 0.00D+00 IRadAn=         4 IDoV= 1 UseB2=F ITyADJ=14
 ICtDFT=  3500011 ScaDFX=  1.000000  1.000000  1.000000  1.000000
 FoFCou: FMM=F IPFlag=           0 FMFlag=      100000 FMFlg1=           0
         NFxFlg=           0 DoJE=T BraDBF=F KetDBF=T FulRan=T
         wScrn=  0.000000 ICntrl=     500 IOpCl=  0 I1Cent=   200000004 NGrid=           0
         NMat0=    1 NMatS0=      1 NMatT0=    0 NMatD0=    1 NMtDS0=    0 NMtDT0=    0
 Petite list used in FoFCou.
 Requested convergence on RMS density matrix=1.00D-08 within 128 cycles.
 Requested convergence on MAX density matrix=1.00D-06.
 Requested convergence on             energy=1.00D-06.
 No special actions if energy rises.
 Integral accuracy reduced to 1.0D-05 until final iterations.
 Initial convergence to 1.0D-05 achieved.  Increase integral accuracy.
 SCF Done:  E(RHF) =  -3608.49115044     A.U. after   16 cycles
            NFock= 16  Conv=0.84D-08     -V/T= 1.9993

 **********************************************************************

            Population analysis using the SCF density.

 **********************************************************************

 Orbital symmetries:
 BldTbl:  Degeneracy threshold= 1.00D-02
       Occupied  (A) (A) (A) (A) (A) (A) (A) (A) (A) (A) (A) (A)
                 (A) (A) (A) (A) (A) (A) (A) (A) (A) (A) (A) (A)
                 (A) (A) (A) (A) (A) (A) (A) (A) (A) (A) (A) (A)
                 (A) (A) (A) (A) (A) (A) (A) (A) (A) (A) (A) (A)
                 (A) (A) (A) (A) (A) (A) (A) (A) (A) (A) (A) (A)
                 (A) (A) (A) (A) (A) (A) (A) (A) (A) (A) (A) (A)
                 (A) (A)
       Virtual   (A) (A) (A) (A) (A) (A) (A) (A) (A) (A) (A) (A)
                 (A) (A) (A) (A) (A) (A) (A) (A) (A) (A) (A) (A)
                 (A) (A) (A) (A) (A) (A) (A) (A) (A) (A) (A) (A)
                 (A) (A) (A) (A) (A) (A) (A) (A) (A) (A) (A) (A)
                 (A) (A) (A) (A) (A) (A) (A) (A) (A) (A) (A) (A)
                 (A) (A) (A) (A) (A) (A) (A) (A) (A) (A) (A) (A)
                 (A) (A) (A) (A) (A) (A) (A) (A) (A) (A) (A) (A)
                 (A) (A) (A) (A) (A) (A) (A) (A) (A) (A) (A) (A)
                 (A) (A) (A) (A) (A) (A) (A) (A) (A) (A) (A) (A)
                 (A) (A) (A) (A) (A) (A) (A) (A) (A) (A) (A) (A)
                 (A) (A) (A) (A) (A) (A) (A) (A) (A) (A) (A) (A)
                 (A) (A) (A) (A) (A) (A) (A) (A) (A) (A) (A) (A)
                 (A) (A) (A) (A) (A) (A) (A) (A) (A) (A) (A) (A)
                 (A) (A) (A) (A) (A) (A) (A) (A) (A) (A) (A) (A)
                 (A) (A) (A) (A) (A) (A) (A) (A) (A) (A) (A) (A)
                 (A) (A)
 The electronic state is 1-A.
 Alpha  occ. eigenvalues -- -489.86473 -91.89974 -64.40845 -58.57525 -58.57360
 Alpha  occ. eigenvalues --  -58.57339 -20.61683 -20.57808 -15.64508 -15.64401
 Alpha  occ. eigenvalues --  -11.40833 -11.40467 -11.34461 -11.32418 -11.31252
 Alpha  occ. eigenvalues --  -11.29970 -11.27598 -11.27419 -11.27092 -11.25660
 Alpha  occ. eigenvalues --   -9.68600  -8.91539  -7.50147  -7.49322  -7.49258
 Alpha  occ. eigenvalues --   -6.59816  -6.59510  -6.59410  -3.24465  -3.24081
 Alpha  occ. eigenvalues --   -3.24018  -3.23053  -3.23051  -1.43525  -1.43350
 Alpha  occ. eigenvalues --   -1.37247  -1.23935  -1.19008  -1.11608  -1.08152
 Alpha  occ. eigenvalues --   -1.05315  -0.99654  -0.98251  -0.93231  -0.87852
 Alpha  occ. eigenvalues --   -0.86329  -0.85014  -0.79298  -0.76322  -0.73770
 Alpha  occ. eigenvalues --   -0.70493  -0.69961  -0.68943  -0.66822  -0.66093
 Alpha  occ. eigenvalues --   -0.63853  -0.61763  -0.60604  -0.59468  -0.58860
 Alpha  occ. eigenvalues --   -0.55661  -0.55646  -0.54484  -0.53198  -0.50260
 Alpha  occ. eigenvalues --   -0.49105  -0.46555  -0.45905  -0.43781  -0.40511
 Alpha  occ. eigenvalues --   -0.35951  -0.35255  -0.34454  -0.29675
 Alpha virt. eigenvalues --    0.02977   0.11047   0.13306   0.15065   0.16876
 Alpha virt. eigenvalues --    0.19347   0.20952   0.23567   0.24423   0.25902
 Alpha virt. eigenvalues --    0.27252   0.27610   0.30794   0.32909   0.35445
 Alpha virt. eigenvalues --    0.36073   0.38334   0.38948   0.40351   0.41294
 Alpha virt. eigenvalues --    0.43079   0.45899   0.46978   0.47775   0.50470
 Alpha virt. eigenvalues --    0.52506   0.55745   0.56760   0.57694   0.58218
 Alpha virt. eigenvalues --    0.61817   0.62167   0.62835   0.63071   0.64646
 Alpha virt. eigenvalues --    0.64734   0.67280   0.67334   0.69407   0.69966
 Alpha virt. eigenvalues --    0.70543   0.71308   0.72309   0.73765   0.75276
 Alpha virt. eigenvalues --    0.76096   0.77633   0.77974   0.80024   0.80673
 Alpha virt. eigenvalues --    0.80969   0.81217   0.83291   0.83790   0.84477
 Alpha virt. eigenvalues --    0.85248   0.89320   0.90686   0.93669   0.94462
 Alpha virt. eigenvalues --    0.96791   0.97213   0.98764   1.00172   1.00897
 Alpha virt. eigenvalues --    1.02795   1.03313   1.03721   1.05686   1.06141
 Alpha virt. eigenvalues --    1.07958   1.09597   1.09657   1.11091   1.11699
 Alpha virt. eigenvalues --    1.12742   1.14091   1.14178   1.15913   1.16762
 Alpha virt. eigenvalues --    1.18890   1.20408   1.24041   1.24065   1.25933
 Alpha virt. eigenvalues --    1.26955   1.28456   1.30882   1.31236   1.31961
 Alpha virt. eigenvalues --    1.35027   1.36909   1.38581   1.39933   1.43252
 Alpha virt. eigenvalues --    1.45459   1.47425   1.48129   1.49734   1.52548
 Alpha virt. eigenvalues --    1.55280   1.56532   1.57280   1.58176   1.60704
 Alpha virt. eigenvalues --    1.65154   1.65952   1.66550   1.67410   1.69426
 Alpha virt. eigenvalues --    1.70713   1.72610   1.73678   1.74156   1.77724
 Alpha virt. eigenvalues --    1.78638   1.80379   1.88570   1.92004   1.96582
 Alpha virt. eigenvalues --    2.00102   2.01132   2.03515   2.04161   2.06064
 Alpha virt. eigenvalues --    2.06632   2.09864   2.12318   2.16139   2.16792
 Alpha virt. eigenvalues --    2.16958   2.18863   2.20243   2.23584   2.26946
 Alpha virt. eigenvalues --    2.27829   2.29072   2.30797   2.34338   2.36137
 Alpha virt. eigenvalues --    2.39763   2.40476   2.42373   2.42380   2.44090
 Alpha virt. eigenvalues --    2.44984   2.46780   2.55453   2.56020   2.57979
 Alpha virt. eigenvalues --    2.58369   2.60692   2.61775   2.61925   2.70389
 Alpha virt. eigenvalues --    2.73865   2.76296   2.76797   2.81169   2.84201
 Alpha virt. eigenvalues --    2.84872   2.89134   2.92458   2.95375   2.97954
 Alpha virt. eigenvalues --    2.99202   3.02502   3.02986   3.09549   3.10147
 Alpha virt. eigenvalues --    3.13589   3.16653   3.23901   3.26630   3.29582
 Alpha virt. eigenvalues --    3.35426   3.40732   3.47881   3.53273   3.66844
 Alpha virt. eigenvalues --    3.76426   9.19282
          Condensed to atoms (all electrons):
               1          2          3          4          5          6
     1  C    4.912462   0.541391  -0.040443  -0.028801  -0.044045   0.534211
     2  C    0.541391   4.986337   0.549630  -0.059475  -0.032627  -0.043007
     3  C   -0.040443   0.549630   4.403943   0.491237  -0.026302  -0.022353
     4  C   -0.028801  -0.059475   0.491237   5.047285   0.485007  -0.042859
     5  C   -0.044045  -0.032627  -0.026302   0.485007   5.037404   0.551285
     6  C    0.534211  -0.043007  -0.022353  -0.042859   0.551285   4.750397
     7  C   -0.039794   0.003080   0.000130   0.004465  -0.042057   0.408504
     8  C    0.002972  -0.000114   0.000018  -0.000049  -0.007480  -0.028957
     9  C    0.000017   0.000001  -0.000001   0.000040   0.000827  -0.001663
    10  O   -0.000018   0.000000  -0.000001   0.000818  -0.014058  -0.002272
    11  N    0.000000   0.000000   0.000000   0.000000  -0.000075  -0.000075
    12  C    0.000002   0.000000   0.000000   0.000000   0.000007  -0.000037
    13  S    0.000000   0.000000   0.000000   0.000000   0.000000  -0.000001
    14  N   -0.000089   0.000000   0.000000   0.000001   0.000079   0.001683
    15  Br   0.000269   0.003316  -0.065882   0.279920  -0.058351   0.001411
    16  O    0.002273  -0.048594   0.280297  -0.072242   0.003550  -0.000117
    17  H    0.377007  -0.024618   0.001934   0.000133   0.002773  -0.035610
    18  H   -0.025462   0.374960  -0.025759   0.003542  -0.000010   0.001422
    19  H    0.002194   0.000007   0.001047  -0.023925   0.344370  -0.015874
    20  H   -0.001774   0.000282  -0.000007  -0.000084   0.002514  -0.032535
    21  H    0.000000   0.000000   0.000000   0.000000   0.000000   0.000002
    22  H   -0.000002   0.000000   0.000000   0.000000  -0.000001   0.000044
    23  H   -0.000153   0.004249  -0.031070  -0.006549   0.000547  -0.000015
               7          8          9         10         11         12
     1  C   -0.039794   0.002972   0.000017  -0.000018   0.000000   0.000002
     2  C    0.003080  -0.000114   0.000001   0.000000   0.000000   0.000000
     3  C    0.000130   0.000018  -0.000001  -0.000001   0.000000   0.000000
     4  C    0.004465  -0.000049   0.000040   0.000818   0.000000   0.000000
     5  C   -0.042057  -0.007480   0.000827  -0.014058  -0.000075   0.000007
     6  C    0.408504  -0.028957  -0.001663  -0.002272  -0.000075  -0.000037
     7  C    4.948148   0.630869  -0.033534  -0.001013   0.003575   0.002345
     8  C    0.630869   4.921664   0.368021  -0.072318  -0.116420  -0.043051
     9  C   -0.033534   0.368021   4.047960   0.597755   0.266748  -0.045025
    10  O   -0.001013  -0.072318   0.597755   8.142032  -0.072057   0.001412
    11  N    0.003575  -0.116420   0.266748  -0.072057   7.390520   0.254875
    12  C    0.002345  -0.043051  -0.045025   0.001412   0.254875   4.601112
    13  S    0.000034   0.001806   0.001100  -0.000052  -0.075757   0.443653
    14  N   -0.062324   0.177064  -0.032210   0.002835  -0.103792   0.297208
    15  Br  -0.000105  -0.000002  -0.000008  -0.000002   0.000000   0.000000
    16  O   -0.000002   0.000000   0.000000   0.000000   0.000000   0.000000
    17  H   -0.001071   0.000107   0.000003   0.000000   0.000000   0.000000
    18  H   -0.000077   0.000001   0.000000   0.000000   0.000000   0.000000
    19  H   -0.001266   0.000012  -0.002534   0.019240   0.000306  -0.000009
    20  H    0.380380  -0.041264   0.001890  -0.000022  -0.000126   0.000104
    21  H   -0.000035   0.004627  -0.010816   0.002576   0.309490  -0.016536
    22  H    0.000261  -0.016373   0.001392  -0.000023   0.003171  -0.017631
    23  H    0.000000   0.000000   0.000000   0.000000   0.000000   0.000000
              13         14         15         16         17         18
     1  C    0.000000  -0.000089   0.000269   0.002273   0.377007  -0.025462
     2  C    0.000000   0.000000   0.003316  -0.048594  -0.024618   0.374960
     3  C    0.000000   0.000000  -0.065882   0.280297   0.001934  -0.025759
     4  C    0.000000   0.000001   0.279920  -0.072242   0.000133   0.003542
     5  C    0.000000   0.000079  -0.058351   0.003550   0.002773  -0.000010
     6  C   -0.000001   0.001683   0.001411  -0.000117  -0.035610   0.001422
     7  C    0.000034  -0.062324  -0.000105  -0.000002  -0.001071  -0.000077
     8  C    0.001806   0.177064  -0.000002   0.000000   0.000107   0.000001
     9  C    0.001100  -0.032210  -0.000008   0.000000   0.000003   0.000000
    10  O   -0.000052   0.002835  -0.000002   0.000000   0.000000   0.000000
    11  N   -0.075757  -0.103792   0.000000   0.000000   0.000000   0.000000
    12  C    0.443653   0.297208   0.000000   0.000000   0.000000   0.000000
    13  S   15.959065  -0.082123   0.000000   0.000000   0.000000   0.000000
    14  N   -0.082123   7.343789   0.000000   0.000000  -0.000009   0.000000
    15  Br   0.000000   0.000000  34.962121  -0.013912   0.000006  -0.000093
    16  O    0.000000   0.000000  -0.013912   8.388225  -0.000038  -0.000411
    17  H    0.000000  -0.000009   0.000006  -0.000038   0.454035  -0.001647
    18  H    0.000000   0.000000  -0.000093  -0.000411  -0.001647   0.433921
    19  H    0.000000  -0.000010  -0.000085  -0.000013  -0.000076   0.000007
    20  H   -0.000023  -0.004140   0.000001   0.000000   0.004348  -0.000011
    21  H    0.003923   0.002767   0.000000   0.000000   0.000000   0.000000
    22  H    0.005434   0.320925   0.000000   0.000000  -0.000001   0.000000
    23  H    0.000000   0.000000   0.027408   0.255396   0.000002  -0.000121
              19         20         21         22         23
     1  C    0.002194  -0.001774   0.000000  -0.000002  -0.000153
     2  C    0.000007   0.000282   0.000000   0.000000   0.004249
     3  C    0.001047  -0.000007   0.000000   0.000000  -0.031070
     4  C   -0.023925  -0.000084   0.000000   0.000000  -0.006549
     5  C    0.344370   0.002514   0.000000  -0.000001   0.000547
     6  C   -0.015874  -0.032535   0.000002   0.000044  -0.000015
     7  C   -0.001266   0.380380  -0.000035   0.000261   0.000000
     8  C    0.000012  -0.041264   0.004627  -0.016373   0.000000
     9  C   -0.002534   0.001890  -0.010816   0.001392   0.000000
    10  O    0.019240  -0.000022   0.002576  -0.000023   0.000000
    11  N    0.000306  -0.000126   0.309490   0.003171   0.000000
    12  C   -0.000009   0.000104  -0.016536  -0.017631   0.000000
    13  S    0.000000  -0.000023   0.003923   0.005434   0.000000
    14  N   -0.000010  -0.004140   0.002767   0.320925   0.000000
    15  Br  -0.000085   0.000001   0.000000   0.000000   0.027408
    16  O   -0.000013   0.000000   0.000000   0.000000   0.255396
    17  H   -0.000076   0.004348   0.000000  -0.000001   0.000002
    18  H    0.000007  -0.000011   0.000000   0.000000  -0.000121
    19  H    0.327821  -0.000005  -0.000002  -0.000001  -0.000004
    20  H   -0.000005   0.467260   0.000002   0.002458   0.000000
    21  H   -0.000002   0.000002   0.257636  -0.000027   0.000000
    22  H   -0.000001   0.002458  -0.000027   0.267949   0.000000
    23  H   -0.000004   0.000000   0.000000   0.000000   0.257879
 Mulliken charges:
               1
     1  C   -0.192218
     2  C   -0.254819
     3  C    0.483582
     4  C   -0.078465
     5  C   -0.203357
     6  C   -0.023585
     7  C   -0.200516
     8  C    0.218868
     9  C    0.840038
    10  O   -0.604832
    11  N   -0.860385
    12  C    0.521570
    13  S   -0.257059
    14  N   -0.861655
    15  Br  -0.136013
    16  O   -0.794412
    17  H    0.222722
    18  H    0.239737
    19  H    0.348802
    20  H    0.220751
    21  H    0.446392
    22  H    0.432424
    23  H    0.492429
 Sum of Mulliken charges =   0.00000
 Mulliken charges with hydrogens summed into heavy atoms:
               1
     1  C    0.030504
     2  C   -0.015082
     3  C    0.483582
     4  C   -0.078465
     5  C    0.145445
     6  C   -0.023585
     7  C    0.020235
     8  C    0.218868
     9  C    0.840038
    10  O   -0.604832
    11  N   -0.413992
    12  C    0.521570
    13  S   -0.257059
    14  N   -0.429230
    15  Br  -0.136013
    16  O   -0.301983
 DipInt: DoE/N= T F RetVal/Mat= T F Init=T NMatP=  1 IDeriv=0 Min/MaxMlt=  0  4
 Entering OneElI...
 OneElI was handed   235736581 working-precision words.
 Multipole integrals L=0 to 4 MinM= 0 MaxM= 0.
 Requested accuracy = 0.1000D-12
 ShPair: Thresh= 1.00D-13 NBox=     0 BxSize= 0.00D+00 RnKept= 2.06D+01
         NSMCal=                 3828 NSMKep=                3025
 PrsmSu:  NPrtUS=   1 ThrOK=F IAlg=1 NPAlg=1 LenDen=           0.
 Prism:   IPart=     0 DynPar=F LinDyn=F Incr=          30.
 PRISM was handed   235438993 working-precision words and  3025 shell-pairs
 IPart=  0 NShTot=        3025 NBatch=         143 AvBLen=        21.2
 PrSmSu:  NxtVal=             31.
 Electronic moments (au):
       -148.00000000          1.01319773          1.15929450         -0.00099440
      -6254.82820736      -1132.07069366        -86.28956840         -3.35421713
          0.00163888          0.00397557      16242.34755019      -1152.50078172
         -0.01053822      -2610.44479607       1970.61232174          5.21255912
         57.47347271        -32.81408332         -0.34404423         -0.62239146
    -482623.00511619     -18993.17834739       -327.40922176      -3153.19584820
        -38.94310271      -3830.54905968         -0.41390879         -0.18787979
          0.00098298     -31672.32145374      -3680.24888696       -707.52935126
         -0.27609948          2.51890993       -130.04249587
 Electronic spatial extent (au):  <R**2>=           7473.1885
 DipInt: DoE/N= F T RetVal/Mat= T F Init=T NMatP=  1 IDeriv=0 Min/MaxMlt=  0  4
 Nuclear    moments (au):
        148.00000000          0.00000000          0.00000000          0.00000000
       6149.86050289       1056.89156472          0.00021938          0.00000000
          0.00012115         -0.00006962     -15713.32298870       1122.03569456
         -0.00000001       2627.00769400      -2030.61640248         -5.21036092
         -0.00126573         -0.00022767          0.31804167          0.62091905
     457634.37588560      15783.45274775          0.00000000       2417.58128772
         38.30076667       3478.57502223          0.52953039          0.00000137
         -0.00000045      27840.13919697          0.01454405          0.00107249
          0.35738734         -2.40016490          0.00094411
 Total      moments (au):
          0.00000000          1.01319773          1.15929450         -0.00099440
       -104.96770446        -75.17912893        -86.28934902         -3.35421713
          0.00176003          0.00390595        529.02456149        -30.46508717
         -0.01053824         16.56289793        -60.00408073          0.00219820
         57.47220698        -32.81431099         -0.02600256         -0.00147241
     -24988.62923058      -3209.72559964       -327.40922176       -735.61456048
         -0.64233605       -351.97403745          0.11562160         -0.18787842
          0.00098253      -3832.18225677      -3680.23434291       -707.52827877
          0.08128786          0.11874503       -130.04155176
 Traceless Quadrup. (au):
        -16.15564366         13.63293187          2.52271179         -3.35421713
          0.00176003          0.00390595
 Charge=              0.0000 electrons
 Dipole moment (field-independent basis, Debye):
    X=              2.5753    Y=              2.9466    Z=             -0.0025  Tot=              3.9134
 Quadrupole moment (field-independent basis, Debye-Ang):
   XX=           -141.1851   YY=           -101.1185   ZZ=           -116.0621
   XY=             -4.5115   XZ=              0.0024   YZ=              0.0053
 Traceless Quadrupole moment (field-independent basis, Debye-Ang):
   XX=            -21.7299   YY=             18.3368   ZZ=              3.3931
   XY=             -4.5115   XZ=              0.0024   YZ=              0.0053
 Octapole moment (field-independent basis, Debye-Ang**2):
  XXX=            376.5393  YYY=            -21.6839  ZZZ=             -0.0075  XYY=             11.7888
  XXY=            -42.7086  XXZ=              0.0016  XZZ=             40.9065  YZZ=            -23.3560
  YYZ=             -0.0185  XYZ=             -0.0010
 Hexadecapole moment (field-independent basis, Debye-Ang**3):
 XXXX=          -9411.9154 YYYY=          -1208.9365 ZZZZ=           -123.3180 XXXY=           -277.0677
 XXXZ=             -0.2419 YYYX=           -132.5703 YYYZ=              0.0435 ZZZX=             -0.0708
 ZZZY=              0.0004 XXYY=          -1443.3835 XXZZ=          -1386.1526 YYZZ=           -266.4891
 XXYZ=              0.0306 YYXZ=              0.0447 ZZXY=            -48.9799
 N-N= 1.421247807284D+03 E-N=-1.144041165361D+04  KE= 3.611144075423D+03
 Entering OneElI...
 OneElI was handed   235782144 working-precision words.
 Calculate electrostatic properties
    NBasis =   256  MinDer = 0  MaxDer = 0
    NGrid  =    23  NMatD  =   1
 Requested accuracy = 0.1000D-12
 PrtBox:  NBox=     1 Levels=  1 BoxLen=   35.73 SMaxX=       20.54
          Shift=           11.406325            4.168366            0.002313
 Box      1 Number                   0 centers from      1 to     87:
 ShPair: Thresh= 1.00D-13 NBox=     1 BxSize= 3.57D+01 RnKept= 1.83D+01
         NSMCal=                 3828 NSMKep=                2637
 PrsmSu:  NPrtUS=   1 ThrOK=F IAlg=1 NPAlg=1 LenDen=           0.
 Prism:   IPart=     0 DynPar=F LinDyn=F Incr=         512.
 PRISM was handed   235516570 working-precision words and  2637 shell-pairs
 IPart=  0 NShTot=       60651 NBatch=        2647 AvBLen=        22.9
 PrSmSu:  NxtVal=            513.
 --------------------------------------------------------
       Center         ----      EFG at Nuclei      ----
                      3XX-RR        3YY-RR        3ZZ-RR
 --------------------------------------------------------
     1   Atom        0.230463      0.160949     -0.391412
     2   Atom        0.143245      0.073065     -0.216310
     3   Atom       -0.063921      0.385762     -0.321841
     4   Atom        0.177746     -0.236281      0.058535
     5   Atom        0.163736      0.264219     -0.427955
     6   Atom        0.030954      0.146370     -0.177325
     7   Atom        0.196428      0.159404     -0.355832
     8   Atom       -0.057903      0.100249     -0.042346
     9   Atom        0.149072      0.346221     -0.495292
    10   Atom        0.250491      0.477922     -0.728413
    11   Atom       -0.430909     -0.402666      0.833575
    12   Atom        0.428974      0.081090     -0.510064
    13   Atom       -2.431833      2.079101      0.352732
    14   Atom       -0.502415     -0.442128      0.944543
    15   Atom        0.531685     -4.202119      3.670434
    16   Atom       -1.316851     -0.256839      1.573691
    17   Atom        0.031708     -0.197320      0.165612
    18   Atom        0.023082     -0.192303      0.169220
    19   Atom        0.038299     -0.189800      0.151501
    20   Atom        0.085963     -0.251975      0.166012
    21   Atom        0.094255     -0.321471      0.227217
    22   Atom        0.103012     -0.337537      0.234525
    23   Atom        0.092609     -0.329464      0.236855
 --------------------------------------------------------
                        XY            XZ            YZ
 --------------------------------------------------------
     1   Atom        0.021394     -0.000091      0.000053
     2   Atom        0.021736     -0.000066      0.000026
     3   Atom       -0.037162     -0.000064      0.000061
     4   Atom        0.260725     -0.000019     -0.000063
     5   Atom        0.049706     -0.000114     -0.000012
     6   Atom        0.005790     -0.000015      0.000015
     7   Atom        0.015043     -0.000031     -0.000093
     8   Atom        0.163547      0.000023     -0.000044
     9   Atom       -0.101710      0.000141     -0.000221
    10   Atom        1.324761     -0.000485     -0.000383
    11   Atom        0.047905     -0.000829     -0.000320
    12   Atom        0.009388      0.000584     -0.000195
    13   Atom        0.121866     -0.001761     -0.000738
    14   Atom       -0.031432     -0.000656      0.000772
    15   Atom        4.322042      0.000875     -0.001234
    16   Atom        0.723669      0.000714     -0.000363
    17   Atom        0.190608      0.000044     -0.000077
    18   Atom       -0.198067      0.000002     -0.000009
    19   Atom       -0.168877      0.000021      0.000040
    20   Atom        0.126751     -0.000026      0.000057
    21   Atom       -0.186805     -0.000308     -0.000716
    22   Atom        0.171019     -0.000252      0.000680
    23   Atom        0.196316      0.000052     -0.000102
 --------------------------------------------------------


 ---------------------------------------------------------------------------------
              Nuclear Quadrupole Coupling Constant in Principal Axis System
 ---------------------------------------------------------------------------------

       Atom             a.u.   MegaHertz   Gauss  10(-4) cm-1        Axes

              Baa    -0.4667     2.242     0.800     0.748  0.8009 -0.5989  0.0004
    11 N(14)  Bbb    -0.3668     1.762     0.629     0.588  0.5989  0.8009  0.0006
              Bcc     0.8336    -4.003    -1.429    -1.335 -0.0007 -0.0003  1.0000
 
              Baa    -0.5158     2.477     0.884     0.826  0.9198  0.3923  0.0002
    14 N(14)  Bbb    -0.4287     2.059     0.735     0.687 -0.3923  0.9198 -0.0007
              Bcc     0.9445    -4.536    -1.619    -1.513 -0.0005  0.0006  1.0000
 
              Baa    -6.7629   497.372   177.475   165.906 -0.5097  0.8603  0.0001
    15 Br(79) Bbb     3.0925  -227.434   -81.154   -75.864  0.8603  0.5097 -0.0002
              Bcc     3.6704  -269.938   -96.321   -90.042  0.0003  0.0000  1.0000
 

 ---------------------------------------------------------------------------------

 No NMR shielding tensors so no spin-rotation constants.
 Leave Link  601 at Thu Jan 16 22:40:36 2014, MaxMem=   235929600 cpu:         0.4
 FitSet:  NAtFit=    23 NAtPot=    23 NAtFrz=     0 MDM=    27 TotChg=   0.00000
 Merz-Kollman atomic radii used.
 Atom Element Radius
    1     6    1.50
    2     6    1.50
    3     6    1.50
    4     6    1.50
    5     6    1.50
    6     6    1.50
    7     6    1.50
    8     6    1.50
    9     6    1.50
   10     8    1.40
   11     7    1.50
   12     6    1.50
   13    16    1.75
   14     7    1.50
   15    35    2.30
   16     8    1.40
   17     1    1.20
   18     1    1.20
   19     1    1.20
   20     1    1.20
   21     1    1.20
   22     1    1.20
   23     1    1.20
 Generate VDW surfaces: Layer= 5 Dens= 2 Start= 1.400 Inc= 0.179

 **********************************************************************

            Electrostatic Properties Using The SCF Density

 **********************************************************************

       Atomic Center    1 is at   1.044286  2.518659  0.000344
       Atomic Center    2 is at   2.428694  2.525499  0.000104
       Atomic Center    3 is at   3.140474  1.318052 -0.000144
       Atomic Center    4 is at   2.404522  0.120020 -0.000059
       Atomic Center    5 is at   1.020949  0.100410  0.000218
       Atomic Center    6 is at   0.301120  1.314861  0.000380
       Atomic Center    7 is at  -1.145743  1.431045  0.000412
       Atomic Center    8 is at  -2.161448  0.526592  0.000505
       Atomic Center    9 is at  -2.203591 -0.965493  0.000952
       Atomic Center   10 is at  -1.308737 -1.794325  0.001189
       Atomic Center   11 is at  -3.564990 -1.263406  0.001093
       Atomic Center   12 is at  -4.380034 -0.145911 -0.000067
       Atomic Center   13 is at  -6.035967 -0.105956 -0.001224
       Atomic Center   14 is at  -3.514806  0.908493  0.000293
       Atomic Center   15 is at   3.383973 -1.529350 -0.000333
       Atomic Center   16 is at   4.488862  1.368192 -0.000432
       Atomic Center   17 is at   0.514615  3.467849  0.000558
       Atomic Center   18 is at   2.990108  3.454029  0.000120
       Atomic Center   19 is at   0.491228 -0.844281  0.000368
       Atomic Center   20 is at  -1.485134  2.467744  0.000273
       Atomic Center   21 is at  -3.930651 -2.205804 -0.000221
       Atomic Center   22 is at  -3.854892  1.859451 -0.000885
       Atomic Center   23 is at   4.833343  0.454596 -0.000602
      ESP Fit Center   24 is at   1.044286  2.518659  2.100344
      ESP Fit Center   25 is at   1.403407  3.140675  1.973699
      ESP Fit Center   26 is at   0.685165  3.140675  1.973699
      ESP Fit Center   27 is at   0.326044  2.518659  1.973699
      ESP Fit Center   28 is at   1.403407  1.896643  1.973699
      ESP Fit Center   29 is at   1.605036  3.746529  1.609037
      ESP Fit Center   30 is at   0.852182  3.854774  1.609037
      ESP Fit Center   31 is at  -0.250890  2.898957  1.609037
      ESP Fit Center   32 is at   1.606281  4.248301  1.050344
      ESP Fit Center   33 is at   1.606281  4.248301 -1.049656
      ESP Fit Center   34 is at   1.605036  3.746529 -1.608349
      ESP Fit Center   35 is at   0.852182  3.854774 -1.608349
      ESP Fit Center   36 is at  -0.250890  2.898957 -1.608349
      ESP Fit Center   37 is at   1.403407  3.140675 -1.973011
      ESP Fit Center   38 is at   0.685165  3.140675 -1.973011
      ESP Fit Center   39 is at   0.326044  2.518659 -1.973011
      ESP Fit Center   40 is at   1.403407  1.896643 -1.973011
      ESP Fit Center   41 is at   1.044286  2.518659 -2.099656
      ESP Fit Center   42 is at   2.428694  2.525499  2.100104
      ESP Fit Center   43 is at   3.146936  2.525499  1.973459
      ESP Fit Center   44 is at   2.787815  3.147515  1.973459
      ESP Fit Center   45 is at   2.069573  3.147515  1.973459
      ESP Fit Center   46 is at   2.069573  1.903483  1.973459
      ESP Fit Center   47 is at   3.778548  2.525499  1.608797
      ESP Fit Center   48 is at   3.564263  3.255285  1.608797
      ESP Fit Center   49 is at   2.236590  3.861614  1.608797
      ESP Fit Center   50 is at   3.778548  2.525499 -1.608589
      ESP Fit Center   51 is at   3.564263  3.255285 -1.608589
      ESP Fit Center   52 is at   2.236590  3.861614 -1.608589
      ESP Fit Center   53 is at   3.146936  2.525499 -1.973251
      ESP Fit Center   54 is at   2.787815  3.147515 -1.973251
      ESP Fit Center   55 is at   2.069573  3.147515 -1.973251
      ESP Fit Center   56 is at   2.069573  1.903483 -1.973251
      ESP Fit Center   57 is at   2.428694  2.525499 -2.099896
      ESP Fit Center   58 is at   3.140474  1.318052  2.099856
      ESP Fit Center   59 is at   3.858716  1.318052  1.973211
      ESP Fit Center   60 is at   3.499595  1.940068  1.973211
      ESP Fit Center   61 is at   2.422232  1.318052  1.973211
      ESP Fit Center   62 is at   3.858716  1.318052 -1.973499
      ESP Fit Center   63 is at   3.499595  1.940068 -1.973499
      ESP Fit Center   64 is at   2.422232  1.318052 -1.973499
      ESP Fit Center   65 is at   3.140474  1.318052 -2.100144
      ESP Fit Center   66 is at   2.045401  0.742036  1.973296
      ESP Fit Center   67 is at   2.045401  0.742036 -1.973414
      ESP Fit Center   68 is at   1.020949  0.100410  2.100218
      ESP Fit Center   69 is at   1.380070  0.722426  1.973573
      ESP Fit Center   70 is at   0.302707  0.100410  1.973573
      ESP Fit Center   71 is at   0.661828 -0.521606  1.973573
      ESP Fit Center   72 is at  -0.274226 -0.279888  1.608911
      ESP Fit Center   73 is at  -0.274226 -0.279888 -1.608475
      ESP Fit Center   74 is at   1.380070  0.722426 -1.973137
      ESP Fit Center   75 is at   0.302707  0.100410 -1.973137
      ESP Fit Center   76 is at   0.661828 -0.521606 -1.973137
      ESP Fit Center   77 is at   1.020949  0.100410 -2.099782
      ESP Fit Center   78 is at   0.301120  1.314861  2.100380
      ESP Fit Center   79 is at   1.019362  1.314861  1.973735
      ESP Fit Center   80 is at  -0.058001  1.936877  1.973735
      ESP Fit Center   81 is at  -0.417122  1.314861  1.973735
      ESP Fit Center   82 is at  -0.058001  0.692845  1.973735
      ESP Fit Center   83 is at   1.019362  1.314861 -1.972975
      ESP Fit Center   84 is at  -0.058001  1.936877 -1.972975
      ESP Fit Center   85 is at  -0.417122  1.314861 -1.972975
      ESP Fit Center   86 is at  -0.058001  0.692845 -1.972975
      ESP Fit Center   87 is at   0.301120  1.314861 -2.099620
      ESP Fit Center   88 is at  -1.145743  1.431045  2.100412
      ESP Fit Center   89 is at  -0.427501  1.431045  1.973767
      ESP Fit Center   90 is at  -0.786622  2.053061  1.973767
      ESP Fit Center   91 is at  -1.504864  2.053061  1.973767
      ESP Fit Center   92 is at  -1.863985  1.431045  1.973767
      ESP Fit Center   93 is at  -0.786622  0.809029  1.973767
      ESP Fit Center   94 is at  -0.584993  2.658915  1.609105
      ESP Fit Center   95 is at  -2.029709  2.451197  1.609105
      ESP Fit Center   96 is at  -0.584993  0.203175  1.609105
      ESP Fit Center   97 is at  -0.584993  2.658915 -1.608281
      ESP Fit Center   98 is at  -2.029709  2.451197 -1.608281
      ESP Fit Center   99 is at  -0.584993  0.203175 -1.608281
      ESP Fit Center  100 is at  -0.427501  1.431045 -1.972943
      ESP Fit Center  101 is at  -0.786622  2.053061 -1.972943
      ESP Fit Center  102 is at  -1.504864  2.053061 -1.972943
      ESP Fit Center  103 is at  -1.863985  1.431045 -1.972943
      ESP Fit Center  104 is at  -0.786622  0.809029 -1.972943
      ESP Fit Center  105 is at  -1.145743  1.431045 -2.099588
      ESP Fit Center  106 is at  -2.161448  0.526592  2.100505
      ESP Fit Center  107 is at  -1.443206  0.526592  1.973860
      ESP Fit Center  108 is at  -2.520569  1.148608  1.973860
      ESP Fit Center  109 is at  -2.879690  0.526592  1.973860
      ESP Fit Center  110 is at  -2.520569 -0.095424  1.973860
      ESP Fit Center  111 is at  -1.802327 -0.095424  1.973860
      ESP Fit Center  112 is at  -1.025879 -0.203194  1.609198
      ESP Fit Center  113 is at  -1.025879 -0.203194 -1.608188
      ESP Fit Center  114 is at  -1.443206  0.526592 -1.972850
      ESP Fit Center  115 is at  -2.520569  1.148608 -1.972850
      ESP Fit Center  116 is at  -2.879690  0.526592 -1.972850
      ESP Fit Center  117 is at  -2.520569 -0.095424 -1.972850
      ESP Fit Center  118 is at  -1.802327 -0.095424 -1.972850
      ESP Fit Center  119 is at  -2.161448  0.526592 -2.099495
      ESP Fit Center  120 is at  -2.203591 -0.965493  2.100952
      ESP Fit Center  121 is at  -1.485349 -0.965493  1.974307
      ESP Fit Center  122 is at  -1.844470 -0.343477  1.974307
      ESP Fit Center  123 is at  -2.562712 -0.343477  1.974307
      ESP Fit Center  124 is at  -2.562712 -1.587509  1.974307
      ESP Fit Center  125 is at  -1.844470 -1.587509  1.974307
      ESP Fit Center  126 is at  -2.395695 -2.301607  1.609645
      ESP Fit Center  127 is at  -2.395695 -2.301607 -1.607741
      ESP Fit Center  128 is at  -1.485349 -0.965493 -1.972403
      ESP Fit Center  129 is at  -1.844470 -0.343477 -1.972403
      ESP Fit Center  130 is at  -2.562712 -0.343477 -1.972403
      ESP Fit Center  131 is at  -2.562712 -1.587509 -1.972403
      ESP Fit Center  132 is at  -1.844470 -1.587509 -1.972403
      ESP Fit Center  133 is at  -2.203591 -0.965493 -2.099048
      ESP Fit Center  134 is at  -1.308737 -1.794325  1.961189
      ESP Fit Center  135 is at  -0.558677 -1.794325  1.811993
      ESP Fit Center  136 is at  -0.933707 -1.144754  1.811993
      ESP Fit Center  137 is at  -1.683767 -2.443896  1.811993
      ESP Fit Center  138 is at  -0.933707 -2.443896  1.811993
      ESP Fit Center  139 is at   0.077192 -1.794325  1.387118
      ESP Fit Center  140 is at  -0.615772 -0.594075  1.387118
      ESP Fit Center  141 is at  -2.001702 -2.994575  1.387118
      ESP Fit Center  142 is at  -1.308737 -3.180254  1.387118
      ESP Fit Center  143 is at  -0.615772 -2.994575  1.387118
      ESP Fit Center  144 is at  -0.108487 -2.487290  1.387118
      ESP Fit Center  145 is at  -2.214139 -3.362527  0.751249
      ESP Fit Center  146 is at  -1.498018 -3.595209  0.751249
      ESP Fit Center  147 is at  -0.749168 -3.516502  0.751249
      ESP Fit Center  148 is at  -0.097073 -3.140014  0.751249
      ESP Fit Center  149 is at   0.345515 -2.530845  0.751249
      ESP Fit Center  150 is at  -2.489901 -3.358439  0.001189
      ESP Fit Center  151 is at  -1.845116 -3.679503  0.001189
      ESP Fit Center  152 is at  -1.127891 -3.745964  0.001189
      ESP Fit Center  153 is at  -0.435090 -3.548845  0.001189
      ESP Fit Center  154 is at   0.139721 -3.114768  0.001189
      ESP Fit Center  155 is at  -2.214139 -3.362527 -0.748871
      ESP Fit Center  156 is at  -1.498018 -3.595209 -0.748871
      ESP Fit Center  157 is at  -0.749168 -3.516502 -0.748871
      ESP Fit Center  158 is at  -0.097073 -3.140014 -0.748871
      ESP Fit Center  159 is at   0.345515 -2.530845 -0.748871
      ESP Fit Center  160 is at   0.077192 -1.794325 -1.384740
      ESP Fit Center  161 is at  -0.615772 -0.594075 -1.384740
      ESP Fit Center  162 is at  -2.001702 -2.994575 -1.384740
      ESP Fit Center  163 is at  -1.308737 -3.180254 -1.384740
      ESP Fit Center  164 is at  -0.615772 -2.994575 -1.384740
      ESP Fit Center  165 is at  -0.108487 -2.487290 -1.384740
      ESP Fit Center  166 is at  -0.558677 -1.794325 -1.809615
      ESP Fit Center  167 is at  -0.933707 -1.144754 -1.809615
      ESP Fit Center  168 is at  -1.683767 -2.443896 -1.809615
      ESP Fit Center  169 is at  -0.933707 -2.443896 -1.809615
      ESP Fit Center  170 is at  -1.308737 -1.794325 -1.958811
      ESP Fit Center  171 is at  -3.564990 -1.263406  2.101093
      ESP Fit Center  172 is at  -3.205869 -0.641390  1.974448
      ESP Fit Center  173 is at  -4.283232 -1.263406  1.974448
      ESP Fit Center  174 is at  -3.924111 -1.885422  1.974448
      ESP Fit Center  175 is at  -3.205869 -1.885422  1.974448
      ESP Fit Center  176 is at  -4.860165 -1.643704  1.609786
      ESP Fit Center  177 is at  -4.448956 -2.283558  1.609786
      ESP Fit Center  178 is at  -3.004240 -2.491276  1.609786
      ESP Fit Center  179 is at  -4.860165 -1.643704 -1.607600
      ESP Fit Center  180 is at  -4.448956 -2.283558 -1.607600
      ESP Fit Center  181 is at  -3.004240 -2.491276 -1.607600
      ESP Fit Center  182 is at  -3.205869 -0.641390 -1.972262
      ESP Fit Center  183 is at  -4.283232 -1.263406 -1.972262
      ESP Fit Center  184 is at  -3.924111 -1.885422 -1.972262
      ESP Fit Center  185 is at  -3.205869 -1.885422 -1.972262
      ESP Fit Center  186 is at  -3.564990 -1.263406 -2.098907
      ESP Fit Center  187 is at  -4.380034 -0.145911  2.099933
      ESP Fit Center  188 is at  -3.661792 -0.145911  1.973288
      ESP Fit Center  189 is at  -4.739155 -0.767927  1.973288
      ESP Fit Center  190 is at  -3.661792 -0.145911 -1.973422
      ESP Fit Center  191 is at  -4.739155 -0.767927 -1.973422
      ESP Fit Center  192 is at  -4.380034 -0.145911 -2.100067
      ESP Fit Center  193 is at  -6.035967 -0.105956  2.448776
      ESP Fit Center  194 is at  -5.278875 -0.105956  2.328864
      ESP Fit Center  195 is at  -5.657421  0.549704  2.328864
      ESP Fit Center  196 is at  -6.414513  0.549704  2.328864
      ESP Fit Center  197 is at  -6.793059 -0.105956  2.328864
      ESP Fit Center  198 is at  -6.414513 -0.761617  2.328864
      ESP Fit Center  199 is at  -5.657421 -0.761617  2.328864
      ESP Fit Center  200 is at  -4.788826  0.614081  1.980868
      ESP Fit Center  201 is at  -5.315930  1.141184  1.980868
      ESP Fit Center  202 is at  -6.035967  1.334118  1.980868
      ESP Fit Center  203 is at  -6.756004  1.141184  1.980868
      ESP Fit Center  204 is at  -7.283108  0.614081  1.980868
      ESP Fit Center  205 is at  -7.476041 -0.105956  1.980868
      ESP Fit Center  206 is at  -7.283108 -0.825993  1.980868
      ESP Fit Center  207 is at  -6.756004 -1.353097  1.980868
      ESP Fit Center  208 is at  -6.035967 -1.546030  1.980868
      ESP Fit Center  209 is at  -5.315930 -1.353097  1.980868
      ESP Fit Center  210 is at  -4.788826 -0.825993  1.980868
      ESP Fit Center  211 is at  -5.277453  1.725258  1.438850
      ESP Fit Center  212 is at  -6.035967  1.876136  1.438850
      ESP Fit Center  213 is at  -6.794481  1.725258  1.438850
      ESP Fit Center  214 is at  -7.437517  1.295594  1.438850
      ESP Fit Center  215 is at  -7.867181  0.652558  1.438850
      ESP Fit Center  216 is at  -8.018059 -0.105956  1.438850
      ESP Fit Center  217 is at  -7.867181 -0.864470  1.438850
      ESP Fit Center  218 is at  -7.437517 -1.507507  1.438850
      ESP Fit Center  219 is at  -6.794481 -1.937170  1.438850
      ESP Fit Center  220 is at  -6.035967 -2.088048  1.438850
      ESP Fit Center  221 is at  -5.277453 -1.937170  1.438850
      ESP Fit Center  222 is at  -5.463964  2.152832  0.755868
      ESP Fit Center  223 is at  -6.228384  2.216174  0.755868
      ESP Fit Center  224 is at  -6.971953  2.027877  0.755868
      ESP Fit Center  225 is at  -7.614093  1.608346  0.755868
      ESP Fit Center  226 is at  -8.085219  1.003043  0.755868
      ESP Fit Center  227 is at  -8.334276  0.277564  0.755868
      ESP Fit Center  228 is at  -8.334276 -0.489476  0.755868
      ESP Fit Center  229 is at  -8.085219 -1.214956  0.755868
      ESP Fit Center  230 is at  -7.614093 -1.820258  0.755868
      ESP Fit Center  231 is at  -6.971953 -2.239789  0.755868
      ESP Fit Center  232 is at  -6.228384 -2.428086  0.755868
      ESP Fit Center  233 is at  -5.463964 -2.364744  0.755868
      ESP Fit Center  234 is at  -5.852878  2.337193 -0.001224
      ESP Fit Center  235 is at  -6.581143  2.282617 -0.001224
      ESP Fit Center  236 is at  -7.260967  2.015806 -0.001224
      ESP Fit Center  237 is at  -7.831944  1.560467 -0.001224
      ESP Fit Center  238 is at  -8.243341  0.957059 -0.001224
      ESP Fit Center  239 is at  -8.458603  0.259197 -0.001224
      ESP Fit Center  240 is at  -8.458603 -0.471110 -0.001224
      ESP Fit Center  241 is at  -8.243341 -1.168971 -0.001224
      ESP Fit Center  242 is at  -7.831944 -1.772379 -0.001224
      ESP Fit Center  243 is at  -7.260967 -2.227718 -0.001224
      ESP Fit Center  244 is at  -6.581143 -2.494529 -0.001224
      ESP Fit Center  245 is at  -5.852878 -2.549105 -0.001224
      ESP Fit Center  246 is at  -5.463964  2.152832 -0.758316
      ESP Fit Center  247 is at  -6.228384  2.216174 -0.758316
      ESP Fit Center  248 is at  -6.971953  2.027877 -0.758316
      ESP Fit Center  249 is at  -7.614093  1.608346 -0.758316
      ESP Fit Center  250 is at  -8.085219  1.003043 -0.758316
      ESP Fit Center  251 is at  -8.334276  0.277564 -0.758316
      ESP Fit Center  252 is at  -8.334276 -0.489476 -0.758316
      ESP Fit Center  253 is at  -8.085219 -1.214956 -0.758316
      ESP Fit Center  254 is at  -7.614093 -1.820258 -0.758316
      ESP Fit Center  255 is at  -6.971953 -2.239789 -0.758316
      ESP Fit Center  256 is at  -6.228384 -2.428086 -0.758316
      ESP Fit Center  257 is at  -5.463964 -2.364744 -0.758316
      ESP Fit Center  258 is at  -5.277453  1.725258 -1.441298
      ESP Fit Center  259 is at  -6.035967  1.876136 -1.441298
      ESP Fit Center  260 is at  -6.794481  1.725258 -1.441298
      ESP Fit Center  261 is at  -7.437517  1.295594 -1.441298
      ESP Fit Center  262 is at  -7.867181  0.652558 -1.441298
      ESP Fit Center  263 is at  -8.018059 -0.105956 -1.441298
      ESP Fit Center  264 is at  -7.867181 -0.864470 -1.441298
      ESP Fit Center  265 is at  -7.437517 -1.507507 -1.441298
      ESP Fit Center  266 is at  -6.794481 -1.937170 -1.441298
      ESP Fit Center  267 is at  -6.035967 -2.088048 -1.441298
      ESP Fit Center  268 is at  -5.277453 -1.937170 -1.441298
      ESP Fit Center  269 is at  -4.788826  0.614081 -1.983316
      ESP Fit Center  270 is at  -5.315930  1.141184 -1.983316
      ESP Fit Center  271 is at  -6.035967  1.334118 -1.983316
      ESP Fit Center  272 is at  -6.756004  1.141184 -1.983316
      ESP Fit Center  273 is at  -7.283108  0.614081 -1.983316
      ESP Fit Center  274 is at  -7.476041 -0.105956 -1.983316
      ESP Fit Center  275 is at  -7.283108 -0.825993 -1.983316
      ESP Fit Center  276 is at  -6.756004 -1.353097 -1.983316
      ESP Fit Center  277 is at  -6.035967 -1.546030 -1.983316
      ESP Fit Center  278 is at  -5.315930 -1.353097 -1.983316
      ESP Fit Center  279 is at  -4.788826 -0.825993 -1.983316
      ESP Fit Center  280 is at  -5.278875 -0.105956 -2.331312
      ESP Fit Center  281 is at  -5.657421  0.549704 -2.331312
      ESP Fit Center  282 is at  -6.414513  0.549704 -2.331312
      ESP Fit Center  283 is at  -6.793059 -0.105956 -2.331312
      ESP Fit Center  284 is at  -6.414513 -0.761617 -2.331312
      ESP Fit Center  285 is at  -5.657421 -0.761617 -2.331312
      ESP Fit Center  286 is at  -6.035967 -0.105956 -2.451224
      ESP Fit Center  287 is at  -3.514806  0.908493  2.100293
      ESP Fit Center  288 is at  -2.796564  0.908493  1.973648
      ESP Fit Center  289 is at  -3.155685  1.530509  1.973648
      ESP Fit Center  290 is at  -3.873927  1.530509  1.973648
      ESP Fit Center  291 is at  -4.233048  0.908493  1.973648
      ESP Fit Center  292 is at  -3.155685  0.286477  1.973648
      ESP Fit Center  293 is at  -2.954056  2.136363  1.608986
      ESP Fit Center  294 is at  -4.398772  1.928645  1.608986
      ESP Fit Center  295 is at  -4.809981  1.288791  1.608986
      ESP Fit Center  296 is at  -2.954056  2.136363 -1.608400
      ESP Fit Center  297 is at  -4.398772  1.928645 -1.608400
      ESP Fit Center  298 is at  -4.809981  1.288791 -1.608400
      ESP Fit Center  299 is at  -2.796564  0.908493 -1.973062
      ESP Fit Center  300 is at  -3.155685  1.530509 -1.973062
      ESP Fit Center  301 is at  -3.873927  1.530509 -1.973062
      ESP Fit Center  302 is at  -4.233048  0.908493 -1.973062
      ESP Fit Center  303 is at  -3.155685  0.286477 -1.973062
      ESP Fit Center  304 is at  -3.514806  0.908493 -2.099707
      ESP Fit Center  305 is at   3.383973 -1.529350  3.219667
      ESP Fit Center  306 is at   4.100490 -1.529350  3.138935
      ESP Fit Center  307 is at   3.742232 -0.908828  3.138935
      ESP Fit Center  308 is at   3.025714 -0.908828  3.138935
      ESP Fit Center  309 is at   2.667456 -1.529350  3.138935
      ESP Fit Center  310 is at   3.025714 -2.149872  3.138935
      ESP Fit Center  311 is at   3.742232 -2.149872  3.138935
      ESP Fit Center  312 is at   4.781079 -1.529350  2.900787
      ESP Fit Center  313 is at   4.593902 -0.830797  2.900787
      ESP Fit Center  314 is at   4.082526 -0.319421  2.900787
      ESP Fit Center  315 is at   3.383973 -0.132244  2.900787
      ESP Fit Center  316 is at   2.685420 -0.319421  2.900787
      ESP Fit Center  317 is at   2.174044 -0.830797  2.900787
      ESP Fit Center  318 is at   1.986867 -1.529350  2.900787
      ESP Fit Center  319 is at   2.174044 -2.227903  2.900787
      ESP Fit Center  320 is at   2.685420 -2.739279  2.900787
      ESP Fit Center  321 is at   3.383973 -2.926455  2.900787
      ESP Fit Center  322 is at   4.082526 -2.739279  2.900787
      ESP Fit Center  323 is at   4.593902 -2.227903  2.900787
      ESP Fit Center  324 is at   5.391610 -1.529350  2.517164
      ESP Fit Center  325 is at   5.256039 -0.804108  2.517164
      ESP Fit Center  326 is at   4.867635 -0.176813  2.517164
      ESP Fit Center  327 is at   4.278854  0.267813  2.517164
      ESP Fit Center  328 is at   3.569214  0.469723  2.517164
      ESP Fit Center  329 is at   2.834557  0.401647  2.517164
      ESP Fit Center  330 is at   2.174101  0.072779  2.517164
      ESP Fit Center  331 is at   1.677046 -0.472465  2.517164
      ESP Fit Center  332 is at   1.410520 -1.160447  2.517164
      ESP Fit Center  333 is at   1.410520 -1.898252  2.517164
      ESP Fit Center  334 is at   1.677046 -2.586235  2.517164
      ESP Fit Center  335 is at   2.174101 -3.131479  2.517164
      ESP Fit Center  336 is at   2.834557 -3.460347  2.517164
      ESP Fit Center  337 is at   3.569214 -3.528423  2.517164
      ESP Fit Center  338 is at   4.278854 -3.326513  2.517164
      ESP Fit Center  339 is at   4.867635 -2.881886  2.517164
      ESP Fit Center  340 is at   5.256039 -2.254592  2.517164
      ESP Fit Center  341 is at   5.901470 -1.529350  2.007304
      ESP Fit Center  342 is at   5.789625 -0.787304  2.007304
      ESP Fit Center  343 is at   5.464027 -0.111193  2.007304
      ESP Fit Center  344 is at   4.953607  0.438909  2.007304
      ESP Fit Center  345 is at   4.303718  0.814122  2.007304
      ESP Fit Center  346 is at   0.894594 -1.154136  2.007304
      ESP Fit Center  347 is at   0.894594 -1.904563  2.007304
      ESP Fit Center  348 is at   1.115786 -2.621651  2.007304
      ESP Fit Center  349 is at   1.538517 -3.241683  2.007304
      ESP Fit Center  350 is at   2.125224 -3.709566  2.007304
      ESP Fit Center  351 is at   2.823777 -3.983728  2.007304
      ESP Fit Center  352 is at   3.572106 -4.039808  2.007304
      ESP Fit Center  353 is at   4.303718 -3.872822  2.007304
      ESP Fit Center  354 is at   4.953607 -3.497609  2.007304
      ESP Fit Center  355 is at   5.464027 -2.947507  2.007304
      ESP Fit Center  356 is at   5.789625 -2.271395  2.007304
      ESP Fit Center  357 is at   6.285093 -1.529350  1.396773
      ESP Fit Center  358 is at   6.193949 -0.807871  1.396773
      ESP Fit Center  359 is at   5.926244 -0.131725  1.396773
      ESP Fit Center  360 is at   0.505729 -1.892957  1.396773
      ESP Fit Center  361 is at   0.686580 -2.597323  1.396773
      ESP Fit Center  362 is at   1.036918 -3.234585  1.396773
      ESP Fit Center  363 is at   1.534730 -3.764701  1.396773
      ESP Fit Center  364 is at   2.148736 -4.154361  1.396773
      ESP Fit Center  365 is at   2.840357 -4.379083  1.396773
      ESP Fit Center  366 is at   3.566136 -4.424745  1.396773
      ESP Fit Center  367 is at   4.280468 -4.288479  1.396773
      ESP Fit Center  368 is at   4.938471 -3.978846  1.396773
      ESP Fit Center  369 is at   5.498798 -3.515303  1.396773
      ESP Fit Center  370 is at   5.926244 -2.926975  1.396773
      ESP Fit Center  371 is at   6.193949 -2.250829  1.396773
      ESP Fit Center  372 is at   6.523241 -1.529350  0.716184
      ESP Fit Center  373 is at   6.438622 -0.805385  0.716184
      ESP Fit Center  374 is at   0.434026 -2.603043  0.716184
      ESP Fit Center  375 is at   0.761153 -3.254406  0.716184
      ESP Fit Center  376 is at   1.229677 -3.812771  0.716184
      ESP Fit Center  377 is at   1.814339 -4.248036  0.716184
      ESP Fit Center  378 is at   2.483621 -4.536736  0.716184
      ESP Fit Center  379 is at   3.201441 -4.663307  0.716184
      ESP Fit Center  380 is at   3.929101 -4.620925  0.716184
      ESP Fit Center  381 is at   4.627374 -4.411876  0.716184
      ESP Fit Center  382 is at   5.258614 -4.047429  0.716184
      ESP Fit Center  383 is at   5.788792 -3.547232  0.716184
      ESP Fit Center  384 is at   6.189325 -2.938251  0.716184
      ESP Fit Center  385 is at   6.438622 -2.253315  0.716184
      ESP Fit Center  386 is at   6.603973 -1.529350 -0.000333
      ESP Fit Center  387 is at   6.523241 -0.812832 -0.000333
      ESP Fit Center  388 is at   0.482853 -2.926455 -0.000333
      ESP Fit Center  389 is at   0.866476 -3.536987 -0.000333
      ESP Fit Center  390 is at   1.376336 -4.046847 -0.000333
      ESP Fit Center  391 is at   1.986867 -4.430470 -0.000333
      ESP Fit Center  392 is at   2.667456 -4.668618 -0.000333
      ESP Fit Center  393 is at   3.383973 -4.749350 -0.000333
      ESP Fit Center  394 is at   4.100490 -4.668618 -0.000333
      ESP Fit Center  395 is at   4.781079 -4.430470 -0.000333
      ESP Fit Center  396 is at   5.391610 -4.046847 -0.000333
      ESP Fit Center  397 is at   5.901470 -3.536987 -0.000333
      ESP Fit Center  398 is at   6.285093 -2.926455 -0.000333
      ESP Fit Center  399 is at   6.523241 -2.245867 -0.000333
      ESP Fit Center  400 is at   6.523241 -1.529350 -0.716850
      ESP Fit Center  401 is at   6.438622 -0.805385 -0.716850
      ESP Fit Center  402 is at   0.434026 -2.603043 -0.716850
      ESP Fit Center  403 is at   0.761153 -3.254406 -0.716850
      ESP Fit Center  404 is at   1.229677 -3.812771 -0.716850
      ESP Fit Center  405 is at   1.814339 -4.248036 -0.716850
      ESP Fit Center  406 is at   2.483621 -4.536736 -0.716850
      ESP Fit Center  407 is at   3.201441 -4.663307 -0.716850
      ESP Fit Center  408 is at   3.929101 -4.620925 -0.716850
      ESP Fit Center  409 is at   4.627374 -4.411876 -0.716850
      ESP Fit Center  410 is at   5.258614 -4.047429 -0.716850
      ESP Fit Center  411 is at   5.788792 -3.547232 -0.716850
      ESP Fit Center  412 is at   6.189325 -2.938251 -0.716850
      ESP Fit Center  413 is at   6.438622 -2.253315 -0.716850
      ESP Fit Center  414 is at   6.285093 -1.529350 -1.397439
      ESP Fit Center  415 is at   6.193949 -0.807871 -1.397439
      ESP Fit Center  416 is at   5.926244 -0.131725 -1.397439
      ESP Fit Center  417 is at   0.505729 -1.892957 -1.397439
      ESP Fit Center  418 is at   0.686580 -2.597323 -1.397439
      ESP Fit Center  419 is at   1.036918 -3.234585 -1.397439
      ESP Fit Center  420 is at   1.534730 -3.764701 -1.397439
      ESP Fit Center  421 is at   2.148736 -4.154361 -1.397439
      ESP Fit Center  422 is at   2.840357 -4.379083 -1.397439
      ESP Fit Center  423 is at   3.566136 -4.424745 -1.397439
      ESP Fit Center  424 is at   4.280468 -4.288479 -1.397439
      ESP Fit Center  425 is at   4.938471 -3.978846 -1.397439
      ESP Fit Center  426 is at   5.498798 -3.515303 -1.397439
      ESP Fit Center  427 is at   5.926244 -2.926975 -1.397439
      ESP Fit Center  428 is at   6.193949 -2.250829 -1.397439
      ESP Fit Center  429 is at   5.901470 -1.529350 -2.007970
      ESP Fit Center  430 is at   5.789625 -0.787304 -2.007970
      ESP Fit Center  431 is at   5.464027 -0.111193 -2.007970
      ESP Fit Center  432 is at   4.953607  0.438909 -2.007970
      ESP Fit Center  433 is at   4.303718  0.814122 -2.007970
      ESP Fit Center  434 is at   0.894594 -1.154136 -2.007970
      ESP Fit Center  435 is at   0.894594 -1.904563 -2.007970
      ESP Fit Center  436 is at   1.115786 -2.621651 -2.007970
      ESP Fit Center  437 is at   1.538517 -3.241683 -2.007970
      ESP Fit Center  438 is at   2.125224 -3.709566 -2.007970
      ESP Fit Center  439 is at   2.823777 -3.983728 -2.007970
      ESP Fit Center  440 is at   3.572106 -4.039808 -2.007970
      ESP Fit Center  441 is at   4.303718 -3.872822 -2.007970
      ESP Fit Center  442 is at   4.953607 -3.497609 -2.007970
      ESP Fit Center  443 is at   5.464027 -2.947507 -2.007970
      ESP Fit Center  444 is at   5.789625 -2.271395 -2.007970
      ESP Fit Center  445 is at   5.391610 -1.529350 -2.517830
      ESP Fit Center  446 is at   5.256039 -0.804108 -2.517830
      ESP Fit Center  447 is at   4.867635 -0.176813 -2.517830
      ESP Fit Center  448 is at   4.278854  0.267813 -2.517830
      ESP Fit Center  449 is at   3.569214  0.469723 -2.517830
      ESP Fit Center  450 is at   2.834557  0.401647 -2.517830
      ESP Fit Center  451 is at   2.174101  0.072779 -2.517830
      ESP Fit Center  452 is at   1.677046 -0.472465 -2.517830
      ESP Fit Center  453 is at   1.410520 -1.160447 -2.517830
      ESP Fit Center  454 is at   1.410520 -1.898252 -2.517830
      ESP Fit Center  455 is at   1.677046 -2.586235 -2.517830
      ESP Fit Center  456 is at   2.174101 -3.131479 -2.517830
      ESP Fit Center  457 is at   2.834557 -3.460347 -2.517830
      ESP Fit Center  458 is at   3.569214 -3.528423 -2.517830
      ESP Fit Center  459 is at   4.278854 -3.326513 -2.517830
      ESP Fit Center  460 is at   4.867635 -2.881886 -2.517830
      ESP Fit Center  461 is at   5.256039 -2.254592 -2.517830
      ESP Fit Center  462 is at   4.781079 -1.529350 -2.901453
      ESP Fit Center  463 is at   4.593902 -0.830797 -2.901453
      ESP Fit Center  464 is at   4.082526 -0.319421 -2.901453
      ESP Fit Center  465 is at   3.383973 -0.132244 -2.901453
      ESP Fit Center  466 is at   2.685420 -0.319421 -2.901453
      ESP Fit Center  467 is at   2.174044 -0.830797 -2.901453
      ESP Fit Center  468 is at   1.986867 -1.529350 -2.901453
      ESP Fit Center  469 is at   2.174044 -2.227903 -2.901453
      ESP Fit Center  470 is at   2.685420 -2.739279 -2.901453
      ESP Fit Center  471 is at   3.383973 -2.926455 -2.901453
      ESP Fit Center  472 is at   4.082526 -2.739279 -2.901453
      ESP Fit Center  473 is at   4.593902 -2.227903 -2.901453
      ESP Fit Center  474 is at   4.100490 -1.529350 -3.139601
      ESP Fit Center  475 is at   3.742232 -0.908828 -3.139601
      ESP Fit Center  476 is at   3.025714 -0.908828 -3.139601
      ESP Fit Center  477 is at   2.667456 -1.529350 -3.139601
      ESP Fit Center  478 is at   3.025714 -2.149872 -3.139601
      ESP Fit Center  479 is at   3.742232 -2.149872 -3.139601
      ESP Fit Center  480 is at   3.383973 -1.529350 -3.220333
      ESP Fit Center  481 is at   4.488862  1.368192  1.959568
      ESP Fit Center  482 is at   5.238921  1.368192  1.810372
      ESP Fit Center  483 is at   4.863892  2.017763  1.810372
      ESP Fit Center  484 is at   4.113832  2.017763  1.810372
      ESP Fit Center  485 is at   4.863892  0.718622  1.810372
      ESP Fit Center  486 is at   5.874791  1.368192  1.385497
      ESP Fit Center  487 is at   5.689112  2.061157  1.385497
      ESP Fit Center  488 is at   5.181827  2.568442  1.385497
      ESP Fit Center  489 is at   4.488862  2.754122  1.385497
      ESP Fit Center  490 is at   6.299666  1.368192  0.749628
      ESP Fit Center  491 is at   6.143114  2.104713  0.749628
      ESP Fit Center  492 is at   5.700526  2.713882  0.749628
      ESP Fit Center  493 is at   5.048431  3.090369  0.749628
      ESP Fit Center  494 is at   6.448862  1.368192 -0.000432
      ESP Fit Center  495 is at   6.316508  2.076226 -0.000432
      ESP Fit Center  496 is at   5.937319  2.688636 -0.000432
      ESP Fit Center  497 is at   5.362509  3.122712 -0.000432
      ESP Fit Center  498 is at   4.669708  3.319831 -0.000432
      ESP Fit Center  499 is at   6.299666  1.368192 -0.750492
      ESP Fit Center  500 is at   6.143114  2.104713 -0.750492
      ESP Fit Center  501 is at   5.700526  2.713882 -0.750492
      ESP Fit Center  502 is at   5.048431  3.090369 -0.750492
      ESP Fit Center  503 is at   5.874791  1.368192 -1.386361
      ESP Fit Center  504 is at   5.689112  2.061157 -1.386361
      ESP Fit Center  505 is at   5.181827  2.568442 -1.386361
      ESP Fit Center  506 is at   4.488862  2.754122 -1.386361
      ESP Fit Center  507 is at   5.238921  1.368192 -1.811236
      ESP Fit Center  508 is at   4.863892  2.017763 -1.811236
      ESP Fit Center  509 is at   4.113832  2.017763 -1.811236
      ESP Fit Center  510 is at   4.863892  0.718622 -1.811236
      ESP Fit Center  511 is at   4.488862  1.368192 -1.960432
      ESP Fit Center  512 is at   0.879077  4.099116  1.514186
      ESP Fit Center  513 is at   0.150153  4.099116  1.514186
      ESP Fit Center  514 is at  -0.214310  3.467849  1.514186
      ESP Fit Center  515 is at   0.920502  4.717040  1.048021
      ESP Fit Center  516 is at   0.108728  4.717040  1.048021
      ESP Fit Center  517 is at  -0.548010  4.239891  1.048021
      ESP Fit Center  518 is at   1.445036  4.815797  0.374393
      ESP Fit Center  519 is at   0.712039  5.093786  0.374393
      ESP Fit Center  520 is at  -0.066185  4.999292  0.374393
      ESP Fit Center  521 is at  -0.711355  4.553964  0.374393
      ESP Fit Center  522 is at   1.445036  4.815797 -0.373277
      ESP Fit Center  523 is at   0.712039  5.093786 -0.373277
      ESP Fit Center  524 is at  -0.066185  4.999292 -0.373277
      ESP Fit Center  525 is at  -0.711355  4.553964 -0.373277
      ESP Fit Center  526 is at   0.920502  4.717040 -1.046905
      ESP Fit Center  527 is at   0.108728  4.717040 -1.046905
      ESP Fit Center  528 is at  -0.548010  4.239891 -1.046905
      ESP Fit Center  529 is at   0.879077  4.099116 -1.513070
      ESP Fit Center  530 is at   0.150153  4.099116 -1.513070
      ESP Fit Center  531 is at  -0.214310  3.467849 -1.513070
      ESP Fit Center  532 is at   3.719033  3.454029  1.513748
      ESP Fit Center  533 is at   3.354570  4.085296  1.513748
      ESP Fit Center  534 is at   2.625646  4.085296  1.513748
      ESP Fit Center  535 is at   4.303585  3.454029  1.047583
      ESP Fit Center  536 is at   4.052733  4.226072  1.047583
      ESP Fit Center  537 is at   3.395995  4.703220  1.047583
      ESP Fit Center  538 is at   2.584221  4.703220  1.047583
      ESP Fit Center  539 is at   4.627987  3.454029  0.373955
      ESP Fit Center  540 is at   4.440378  4.215189  0.373955
      ESP Fit Center  541 is at   3.920529  4.801977  0.373955
      ESP Fit Center  542 is at   3.187532  5.079966  0.373955
      ESP Fit Center  543 is at   2.409308  4.985473  0.373955
      ESP Fit Center  544 is at   1.764138  4.540144  0.373955
      ESP Fit Center  545 is at   4.627987  3.454029 -0.373715
      ESP Fit Center  546 is at   4.440378  4.215189 -0.373715
      ESP Fit Center  547 is at   3.920529  4.801977 -0.373715
      ESP Fit Center  548 is at   3.187532  5.079966 -0.373715
      ESP Fit Center  549 is at   2.409308  4.985473 -0.373715
      ESP Fit Center  550 is at   1.764138  4.540144 -0.373715
      ESP Fit Center  551 is at   4.303585  3.454029 -1.047343
      ESP Fit Center  552 is at   4.052733  4.226072 -1.047343
      ESP Fit Center  553 is at   3.395995  4.703220 -1.047343
      ESP Fit Center  554 is at   2.584221  4.703220 -1.047343
      ESP Fit Center  555 is at   3.719033  3.454029 -1.513508
      ESP Fit Center  556 is at   3.354570  4.085296 -1.513508
      ESP Fit Center  557 is at   2.625646  4.085296 -1.513508
      ESP Fit Center  558 is at  -0.237697 -0.844281  1.513996
      ESP Fit Center  559 is at   0.126766 -1.475548  1.513996
      ESP Fit Center  560 is at  -0.237697 -0.844281 -1.513260
      ESP Fit Center  561 is at   0.126766 -1.475548 -1.513260
      ESP Fit Center  562 is at  -1.120672  3.099011  1.513901
      ESP Fit Center  563 is at  -1.849596  3.099011  1.513901
      ESP Fit Center  564 is at  -2.214059  2.467744  1.513901
      ESP Fit Center  565 is at  -1.079247  3.716935  1.047736
      ESP Fit Center  566 is at  -1.891021  3.716935  1.047736
      ESP Fit Center  567 is at  -2.547759  3.239786  1.047736
      ESP Fit Center  568 is at  -1.287710  4.093681  0.374108
      ESP Fit Center  569 is at  -2.065934  3.999187  0.374108
      ESP Fit Center  570 is at  -2.711104  3.553859  0.374108
      ESP Fit Center  571 is at  -1.287710  4.093681 -0.373562
      ESP Fit Center  572 is at  -2.065934  3.999187 -0.373562
      ESP Fit Center  573 is at  -2.711104  3.553859 -0.373562
      ESP Fit Center  574 is at  -1.079247  3.716935 -1.047190
      ESP Fit Center  575 is at  -1.891021  3.716935 -1.047190
      ESP Fit Center  576 is at  -2.547759  3.239786 -1.047190
      ESP Fit Center  577 is at  -1.120672  3.099011 -1.513355
      ESP Fit Center  578 is at  -1.849596  3.099011 -1.513355
      ESP Fit Center  579 is at  -2.214059  2.467744 -1.513355
      ESP Fit Center  580 is at  -4.295113 -2.837071  1.513407
      ESP Fit Center  581 is at  -3.566189 -2.837071  1.513407
      ESP Fit Center  582 is at  -5.244128 -2.205804  1.047242
      ESP Fit Center  583 is at  -4.993276 -2.977846  1.047242
      ESP Fit Center  584 is at  -4.336538 -3.454995  1.047242
      ESP Fit Center  585 is at  -3.524764 -3.454995  1.047242
      ESP Fit Center  586 is at  -2.868026 -2.977846  1.047242
      ESP Fit Center  587 is at  -5.520936 -2.597774  0.373614
      ESP Fit Center  588 is at  -5.156621 -3.291919  0.373614
      ESP Fit Center  589 is at  -4.511451 -3.737247  0.373614
      ESP Fit Center  590 is at  -3.733226 -3.831741  0.373614
      ESP Fit Center  591 is at  -3.000230 -3.553752  0.373614
      ESP Fit Center  592 is at  -5.520936 -2.597774 -0.374056
      ESP Fit Center  593 is at  -5.156621 -3.291919 -0.374056
      ESP Fit Center  594 is at  -4.511451 -3.737247 -0.374056
      ESP Fit Center  595 is at  -3.733226 -3.831741 -0.374056
      ESP Fit Center  596 is at  -3.000230 -3.553752 -0.374056
      ESP Fit Center  597 is at  -5.244128 -2.205804 -1.047684
      ESP Fit Center  598 is at  -4.993276 -2.977846 -1.047684
      ESP Fit Center  599 is at  -4.336538 -3.454995 -1.047684
      ESP Fit Center  600 is at  -3.524764 -3.454995 -1.047684
      ESP Fit Center  601 is at  -2.868026 -2.977846 -1.047684
      ESP Fit Center  602 is at  -4.295113 -2.837071 -1.513849
      ESP Fit Center  603 is at  -3.566189 -2.837071 -1.513849
      ESP Fit Center  604 is at  -3.490430  2.490718  1.512743
      ESP Fit Center  605 is at  -4.219354  2.490718  1.512743
      ESP Fit Center  606 is at  -2.792267  2.631493  1.046578
      ESP Fit Center  607 is at  -3.449005  3.108642  1.046578
      ESP Fit Center  608 is at  -4.260779  3.108642  1.046578
      ESP Fit Center  609 is at  -4.917517  2.631493  1.046578
      ESP Fit Center  610 is at  -3.657468  3.485388  0.372950
      ESP Fit Center  611 is at  -4.435692  3.390894  0.372950
      ESP Fit Center  612 is at  -5.080862  2.945566  0.372950
      ESP Fit Center  613 is at  -5.445177  2.251421  0.372950
      ESP Fit Center  614 is at  -3.657468  3.485388 -0.374720
      ESP Fit Center  615 is at  -4.435692  3.390894 -0.374720
      ESP Fit Center  616 is at  -5.080862  2.945566 -0.374720
      ESP Fit Center  617 is at  -5.445177  2.251421 -0.374720
      ESP Fit Center  618 is at  -2.792267  2.631493 -1.048348
      ESP Fit Center  619 is at  -3.449005  3.108642 -1.048348
      ESP Fit Center  620 is at  -4.260779  3.108642 -1.048348
      ESP Fit Center  621 is at  -4.917517  2.631493 -1.048348
      ESP Fit Center  622 is at  -3.490430  2.490718 -1.514513
[...]
 3259 Fit      -0.009381
 3260 Fit      -0.012357
 3261 Fit      -0.013683
 3262 Fit      -0.014043
 3263 Fit      -0.013976
 3264 Fit      -0.013886
 3265 Fit      -0.014022
 3266 Fit      -0.014460
 3267 Fit      -0.015103
 3268 Fit      -0.015691
 3269 Fit      -0.015820
 3270 Fit      -0.014962
 3271 Fit      -0.012459
 3272 Fit      -0.007424
 3273 Fit       0.001577
 3274 Fit       0.001838
 3275 Fit      -0.006075
 3276 Fit      -0.010653
 3277 Fit      -0.013007
 3278 Fit      -0.013948
 3279 Fit      -0.014123
 3280 Fit      -0.014041
 3281 Fit      -0.014057
 3282 Fit      -0.014349
 3283 Fit      -0.014906
 3284 Fit      -0.015533
 3285 Fit      -0.015868
 3286 Fit      -0.015413
 3287 Fit      -0.013544
 3288 Fit      -0.009476
 3289 Fit      -0.002092
 3290 Fit       0.004362
 3291 Fit      -0.004259
 3292 Fit      -0.009604
 3293 Fit      -0.012558
 3294 Fit      -0.013905
 3295 Fit      -0.014323
 3296 Fit      -0.014366
 3297 Fit      -0.014433
 3298 Fit      -0.014728
 3299 Fit      -0.015240
 3300 Fit      -0.015748
 3301 Fit      -0.015851
 3302 Fit      -0.015009
 3303 Fit      -0.012582
 3304 Fit      -0.007835
 3305 Fit       0.000054
 3306 Fit       0.002496
 3307 Fit      -0.004883
 3308 Fit      -0.009868
 3309 Fit      -0.012749
 3310 Fit      -0.014123
 3311 Fit      -0.014628
 3312 Fit      -0.014809
 3313 Fit      -0.015027
 3314 Fit      -0.015404
 3315 Fit      -0.015799
 3316 Fit      -0.015842
 3317 Fit      -0.015002
 3318 Fit      -0.012687
 3319 Fit      -0.008374
 3320 Fit      -0.001899
 3321 Fit       0.004197
 3322 Fit      -0.001686
 3323 Fit      -0.007266
 3324 Fit      -0.011239
 3325 Fit      -0.013530
 3326 Fit      -0.014613
 3327 Fit      -0.015083
 3328 Fit      -0.015391
 3329 Fit      -0.015696
 3330 Fit      -0.015818
 3331 Fit      -0.015305
 3332 Fit      -0.013592
 3333 Fit      -0.010264
 3334 Fit      -0.005468
 3335 Fit      -0.000457
 3336 Fit       0.001357
 3337 Fit      -0.001598
 3338 Fit      -0.006026
 3339 Fit      -0.010210
 3340 Fit      -0.013027
 3341 Fit      -0.014505
 3342 Fit      -0.015191
 3343 Fit      -0.015518
 3344 Fit      -0.015471
 3345 Fit      -0.014602
 3346 Fit      -0.012380
 3347 Fit      -0.008771
 3348 Fit      -0.004698
 3349 Fit      -0.001267
 3350 Fit      -0.002580
 3351 Fit      -0.003083
 3352 Fit      -0.005445
 3353 Fit      -0.008980
 3354 Fit      -0.012137
 3355 Fit      -0.013999
 3356 Fit      -0.014764
 3357 Fit      -0.014675
 3358 Fit      -0.013423
 3359 Fit      -0.010726
 3360 Fit      -0.007247
 3361 Fit      -0.004199
 3362 Fit      -0.007276
 3363 Fit      -0.008592
 3364 Fit      -0.011704
 3365 Fit      -0.013301
 3366 Fit      -0.012399
 3367 Fit      -0.009405
 3368 Fit      -0.010836
 3369 Fit       0.006542
 3370 Fit       0.008828
 3371 Fit       0.009551
 3372 Fit       0.006742
 3373 Fit       0.002497
 3374 Fit       0.007825
 3375 Fit       0.013871
 3376 Fit       0.013023
 3377 Fit       0.008486
 3378 Fit       0.019757
 3379 Fit       0.016039
 3380 Fit       0.008936
 3381 Fit       0.027163
 3382 Fit       0.027219
 3383 Fit       0.019812
 3384 Fit       0.016095
 3385 Fit       0.008978
 3386 Fit       0.013917
 3387 Fit       0.013073
 3388 Fit       0.008528
 3389 Fit       0.008865
 3390 Fit       0.009593
 3391 Fit       0.006780
 3392 Fit       0.002522
 3393 Fit       0.007862
 3394 Fit       0.006578
 3395 Fit      -0.001560
 3396 Fit      -0.001136
 3397 Fit      -0.000991
 3398 Fit      -0.001303
 3399 Fit      -0.001899
 3400 Fit      -0.002126
 3401 Fit      -0.001678
 3402 Fit      -0.000615
 3403 Fit      -0.000416
 3404 Fit      -0.000451
 3405 Fit      -0.000616
 3406 Fit      -0.000931
 3407 Fit      -0.001471
 3408 Fit      -0.002168
 3409 Fit      -0.002678
 3410 Fit      -0.002685
 3411 Fit      -0.002256
 3412 Fit      -0.001645
 3413 Fit      -0.001056
 3414 Fit       0.000010
 3415 Fit       0.000196
 3416 Fit       0.000147
 3417 Fit      -0.000022
 3418 Fit      -0.000148
 3419 Fit      -0.000263
 3420 Fit      -0.000485
 3421 Fit      -0.000886
 3422 Fit      -0.001537
 3423 Fit      -0.002391
 3424 Fit      -0.003130
 3425 Fit      -0.003426
 3426 Fit      -0.003246
 3427 Fit      -0.002750
 3428 Fit      -0.002115
 3429 Fit      -0.001469
 3430 Fit      -0.000879
 3431 Fit      -0.000374
 3432 Fit       0.000735
 3433 Fit       0.000925
 3434 Fit       0.000835
 3435 Fit       0.000485
 3436 Fit       0.000120
 3437 Fit       0.000001
 3438 Fit       0.000058
 3439 Fit       0.000068
 3440 Fit      -0.000028
 3441 Fit      -0.000244
 3442 Fit      -0.000676
 3443 Fit      -0.001477
 3444 Fit      -0.002611
 3445 Fit      -0.003665
 3446 Fit      -0.004223
 3447 Fit      -0.004220
 3448 Fit      -0.003824
 3449 Fit      -0.003212
 3450 Fit      -0.002514
 3451 Fit      -0.001817
 3452 Fit      -0.001170
 3453 Fit      -0.000594
 3454 Fit      -0.000082
 3455 Fit       0.000371
 3456 Fit       0.001548
 3457 Fit       0.001780
 3458 Fit       0.001673
 3459 Fit       0.001103
 3460 Fit       0.000223
 3461 Fit      -0.000431
 3462 Fit      -0.000428
 3463 Fit      -0.000045
 3464 Fit       0.000201
 3465 Fit       0.000289
 3466 Fit       0.000342
 3467 Fit       0.000327
 3468 Fit       0.000133
 3469 Fit      -0.000557
 3470 Fit      -0.002010
 3471 Fit      -0.003814
 3472 Fit      -0.005112
 3473 Fit      -0.005530
 3474 Fit      -0.005278
 3475 Fit      -0.004670
 3476 Fit      -0.003908
 3477 Fit      -0.003097
 3478 Fit      -0.002299
 3479 Fit      -0.001555
 3480 Fit      -0.000889
 3481 Fit      -0.000303
 3482 Fit       0.000217
 3483 Fit       0.000698
 3484 Fit       0.001152
 3485 Fit       0.002414
 3486 Fit       0.002737
 3487 Fit       0.002672
 3488 Fit       0.001915
 3489 Fit       0.000361
 3490 Fit      -0.001448
 3491 Fit      -0.002305
 3492 Fit      -0.001615
 3493 Fit      -0.000501
 3494 Fit       0.001255
 3495 Fit       0.000531
 3496 Fit      -0.001928
 3497 Fit      -0.005196
 3498 Fit      -0.007300
 3499 Fit      -0.007688
 3500 Fit      -0.007063
 3501 Fit      -0.006086
 3502 Fit      -0.005049
 3503 Fit      -0.004040
 3504 Fit      -0.003083
 3505 Fit      -0.002193
 3506 Fit      -0.001387
 3507 Fit      -0.000677
 3508 Fit      -0.000062
 3509 Fit       0.000476
 3510 Fit       0.000969
 3511 Fit       0.001453
 3512 Fit       0.001945
 3513 Fit       0.003273
 3514 Fit       0.003728
 3515 Fit       0.003805
 3516 Fit       0.003054
 3517 Fit       0.000997
 3518 Fit      -0.002338
 3519 Fit      -0.011959
 3520 Fit      -0.010106
 3521 Fit      -0.008204
 3522 Fit      -0.006592
 3523 Fit      -0.005237
 3524 Fit      -0.004059
 3525 Fit      -0.003006
 3526 Fit      -0.002058
 3527 Fit      -0.001213
 3528 Fit      -0.000474
 3529 Fit       0.000162
 3530 Fit       0.000711
 3531 Fit       0.001202
 3532 Fit       0.001675
 3533 Fit       0.002172
 3534 Fit       0.002713
 3535 Fit       0.004043
 3536 Fit       0.004654
 3537 Fit       0.004925
 3538 Fit       0.004311
 3539 Fit       0.002002
 3540 Fit      -0.012969
 3541 Fit      -0.009659
 3542 Fit      -0.007392
 3543 Fit      -0.005709
 3544 Fit      -0.004350
 3545 Fit      -0.003185
 3546 Fit      -0.002159
 3547 Fit      -0.001251
 3548 Fit      -0.000458
 3549 Fit       0.000224
 3550 Fit       0.000807
 3551 Fit       0.001314
 3552 Fit       0.001781
 3553 Fit       0.002254
 3554 Fit       0.002777
 3555 Fit       0.003380
 3556 Fit       0.004631
 3557 Fit       0.005398
 3558 Fit       0.005854
 3559 Fit       0.005345
 3560 Fit       0.002735
 3561 Fit      -0.014045
 3562 Fit      -0.009889
 3563 Fit      -0.007321
 3564 Fit      -0.005505
 3565 Fit      -0.004072
 3566 Fit      -0.002860
 3567 Fit      -0.001805
 3568 Fit      -0.000882
 3569 Fit      -0.000083
 3570 Fit       0.000596
 3571 Fit       0.001173
 3572 Fit       0.001675
 3573 Fit       0.002143
 3574 Fit       0.002630
 3575 Fit       0.003189
 3576 Fit       0.003858
 3577 Fit       0.004950
 3578 Fit       0.005805
 3579 Fit       0.006388
 3580 Fit       0.006032
 3581 Fit      -0.013362
 3582 Fit      -0.009360
 3583 Fit      -0.006893
 3584 Fit      -0.005130
 3585 Fit      -0.003726
 3586 Fit      -0.002534
 3587 Fit      -0.001497
 3588 Fit      -0.000594
 3589 Fit       0.000183
 3590 Fit       0.000843
 3591 Fit       0.001402
 3592 Fit       0.001892
 3593 Fit       0.002355
 3594 Fit       0.002847
 3595 Fit       0.003422
 3596 Fit       0.004123
 3597 Fit       0.004951
 3598 Fit       0.005805
 3599 Fit       0.006389
 3600 Fit       0.006033
 3601 Fit      -0.013355
 3602 Fit      -0.009356
 3603 Fit      -0.006891
 3604 Fit      -0.005128
 3605 Fit      -0.003725
 3606 Fit      -0.002533
 3607 Fit      -0.001497
 3608 Fit      -0.000593
 3609 Fit       0.000184
 3610 Fit       0.000843
 3611 Fit       0.001403
 3612 Fit       0.001892
 3613 Fit       0.002356
 3614 Fit       0.002847
 3615 Fit       0.003423
 3616 Fit       0.004124
 3617 Fit       0.004633
 3618 Fit       0.005401
 3619 Fit       0.005857
 3620 Fit       0.005348
 3621 Fit       0.002740
 3622 Fit      -0.014023
 3623 Fit      -0.009876
 3624 Fit      -0.007313
 3625 Fit      -0.005500
 3626 Fit      -0.004068
 3627 Fit      -0.002858
 3628 Fit      -0.001802
 3629 Fit      -0.000880
 3630 Fit      -0.000082
 3631 Fit       0.000598
 3632 Fit       0.001175
 3633 Fit       0.001677
 3634 Fit       0.002145
 3635 Fit       0.002632
 3636 Fit       0.003191
 3637 Fit       0.003860
 3638 Fit       0.004046
 3639 Fit       0.004657
 3640 Fit       0.004930
 3641 Fit       0.004317
 3642 Fit       0.002008
 3643 Fit      -0.012934
 3644 Fit      -0.009639
 3645 Fit      -0.007379
 3646 Fit      -0.005700
 3647 Fit      -0.004343
 3648 Fit      -0.003180
 3649 Fit      -0.002155
 3650 Fit      -0.001248
 3651 Fit      -0.000455
 3652 Fit       0.000227
 3653 Fit       0.000810
 3654 Fit       0.001317
 3655 Fit       0.001784
 3656 Fit       0.002256
 3657 Fit       0.002780
 3658 Fit       0.003382
 3659 Fit       0.003277
 3660 Fit       0.003733
 3661 Fit       0.003810
 3662 Fit       0.003060
 3663 Fit       0.001003
 3664 Fit      -0.002334
 3665 Fit      -0.011905
 3666 Fit      -0.010071
 3667 Fit      -0.008181
 3668 Fit      -0.006577
 3669 Fit      -0.005227
 3670 Fit      -0.004051
 3671 Fit      -0.003000
 3672 Fit      -0.002053
 3673 Fit      -0.001209
 3674 Fit      -0.000470
 3675 Fit       0.000165
 3676 Fit       0.000714
 3677 Fit       0.001205
 3678 Fit       0.001679
 3679 Fit       0.002175
 3680 Fit       0.002717
 3681 Fit       0.002419
 3682 Fit       0.002742
 3683 Fit       0.002678
 3684 Fit       0.001921
 3685 Fit       0.000366
 3686 Fit      -0.001444
 3687 Fit      -0.002303
 3688 Fit      -0.001614
 3689 Fit      -0.000498
 3690 Fit       0.001274
 3691 Fit       0.000556
 3692 Fit      -0.001892
 3693 Fit      -0.005152
 3694 Fit      -0.007257
 3695 Fit      -0.007654
 3696 Fit      -0.007038
 3697 Fit      -0.006068
 3698 Fit      -0.005037
 3699 Fit      -0.004031
 3700 Fit      -0.003075
 3701 Fit      -0.002187
 3702 Fit      -0.001382
 3703 Fit      -0.000672
 3704 Fit      -0.000057
 3705 Fit       0.000481
 3706 Fit       0.000974
 3707 Fit       0.001457
 3708 Fit       0.001949
 3709 Fit       0.001554
 3710 Fit       0.001785
 3711 Fit       0.001679
 3712 Fit       0.001108
 3713 Fit       0.000228
 3714 Fit      -0.000427
 3715 Fit      -0.000424
 3716 Fit      -0.000041
 3717 Fit       0.000208
 3718 Fit       0.000297
 3719 Fit       0.000353
 3720 Fit       0.000340
 3721 Fit       0.000150
 3722 Fit      -0.000537
 3723 Fit      -0.001985
 3724 Fit      -0.003785
 3725 Fit      -0.005084
 3726 Fit      -0.005507
 3727 Fit      -0.005260
 3728 Fit      -0.004656
 3729 Fit      -0.003897
 3730 Fit      -0.003089
 3731 Fit      -0.002292
 3732 Fit      -0.001549
 3733 Fit      -0.000883
 3734 Fit      -0.000298
 3735 Fit       0.000222
 3736 Fit       0.000703
 3737 Fit       0.001158
 3738 Fit       0.000741
 3739 Fit       0.000931
 3740 Fit       0.000841
 3741 Fit       0.000490
 3742 Fit       0.000125
 3743 Fit       0.000007
 3744 Fit       0.000064
 3745 Fit       0.000076
 3746 Fit      -0.000018
 3747 Fit      -0.000232
 3748 Fit      -0.000662
 3749 Fit      -0.001460
 3750 Fit      -0.002591
 3751 Fit      -0.003645
 3752 Fit      -0.004204
 3753 Fit      -0.004205
 3754 Fit      -0.003812
 3755 Fit      -0.003202
 3756 Fit      -0.002506
 3757 Fit      -0.001810
 3758 Fit      -0.001164
 3759 Fit      -0.000588
 3760 Fit      -0.000076
 3761 Fit       0.000376
 3762 Fit       0.000016
 3763 Fit       0.000203
 3764 Fit       0.000153
 3765 Fit      -0.000016
 3766 Fit      -0.000141
 3767 Fit      -0.000256
 3768 Fit      -0.000476
 3769 Fit      -0.000874
 3770 Fit      -0.001523
 3771 Fit      -0.002376
 3772 Fit      -0.003115
 3773 Fit      -0.003413
 3774 Fit      -0.003235
 3775 Fit      -0.002741
 3776 Fit      -0.002107
 3777 Fit      -0.001462
 3778 Fit      -0.000872
 3779 Fit      -0.000367
 3780 Fit      -0.000608
 3781 Fit      -0.000410
 3782 Fit      -0.000444
 3783 Fit      -0.000608
 3784 Fit      -0.000922
 3785 Fit      -0.001460
 3786 Fit      -0.002157
 3787 Fit      -0.002666
 3788 Fit      -0.002674
 3789 Fit      -0.002247
 3790 Fit      -0.001637
 3791 Fit      -0.001049
 3792 Fit      -0.001129
 3793 Fit      -0.000984
 3794 Fit      -0.001294
 3795 Fit      -0.001890
 3796 Fit      -0.002117
 3797 Fit      -0.001670
 3798 Fit      -0.001552
 3799 Fit      -0.003989
 3800 Fit      -0.004299
 3801 Fit      -0.002723
 3802 Fit      -0.004014
 3803 Fit      -0.005509
 3804 Fit      -0.004693
 3805 Fit      -0.002041
 3806 Fit       0.000509
 3807 Fit      -0.003552
 3808 Fit      -0.005874
 3809 Fit      -0.005995
 3810 Fit      -0.003683
 3811 Fit       0.001561
 3812 Fit      -0.002942
 3813 Fit      -0.005796
 3814 Fit      -0.006609
 3815 Fit      -0.005003
 3816 Fit       0.002187
 3817 Fit      -0.002633
 3818 Fit      -0.005752
 3819 Fit      -0.006802
 3820 Fit      -0.005359
 3821 Fit       0.002188
 3822 Fit      -0.002632
 3823 Fit      -0.005751
 3824 Fit      -0.006802
 3825 Fit      -0.005359
 3826 Fit       0.001565
 3827 Fit      -0.002939
 3828 Fit      -0.005794
 3829 Fit      -0.006608
 3830 Fit      -0.005004
 3831 Fit       0.000515
 3832 Fit      -0.003548
 3833 Fit      -0.005872
 3834 Fit      -0.005995
 3835 Fit      -0.003686
 3836 Fit      -0.004011
 3837 Fit      -0.005507
 3838 Fit      -0.004695
 3839 Fit      -0.002045
 3840 Fit      -0.003985
 3841 Fit      -0.004299
 3842 Fit      -0.002724
 3843 Fit       0.018314
 3844 Fit       0.020913
 3845 Fit       0.018078
 3846 Fit       0.019747
 3847 Fit       0.021963
 3848 Fit       0.025030
 3849 Fit       0.020100
 3850 Fit       0.021158
 3851 Fit       0.023032
 3852 Fit       0.025925
 3853 Fit       0.030509
 3854 Fit       0.021065
 3855 Fit       0.021568
 3856 Fit       0.023146
 3857 Fit       0.025812
 3858 Fit       0.030264
 3859 Fit       0.021066
 3860 Fit       0.021568
 3861 Fit       0.023146
 3862 Fit       0.025813
 3863 Fit       0.030266
 3864 Fit       0.020102
 3865 Fit       0.021160
 3866 Fit       0.023034
 3867 Fit       0.025930
 3868 Fit       0.030518
 3869 Fit       0.018080
 3870 Fit       0.019750
 3871 Fit       0.021968
 3872 Fit       0.025039
 3873 Fit       0.018319
 3874 Fit       0.020921
 3875 Fit       0.004781
 3876 Fit       0.008342
 3877 Fit       0.002840
 3878 Fit       0.007300
 3879 Fit       0.010385
 3880 Fit       0.012784
 3881 Fit       0.015054
 3882 Fit       0.000649
 3883 Fit       0.006049
 3884 Fit       0.009608
 3885 Fit       0.012246
 3886 Fit       0.014568
 3887 Fit       0.017193
 3888 Fit      -0.000410
 3889 Fit       0.005743
 3890 Fit       0.009622
 3891 Fit       0.012425
 3892 Fit       0.014846
 3893 Fit       0.017572
 3894 Fit      -0.000411
 3895 Fit       0.005743
 3896 Fit       0.009622
 3897 Fit       0.012424
 3898 Fit       0.014846
 3899 Fit       0.017571
 3900 Fit       0.000645
 3901 Fit       0.006047
 3902 Fit       0.009607
 3903 Fit       0.012245
 3904 Fit       0.014566
 3905 Fit       0.017191
 3906 Fit       0.002836
 3907 Fit       0.007298
 3908 Fit       0.010384
 3909 Fit       0.012783
 3910 Fit       0.015052
 3911 Fit       0.004779
 3912 Fit       0.008340
 3913 Fit       0.024755
 3914 Fit       0.025743
 3915 Fit       0.027992
 3916 Fit       0.028565
 3917 Fit       0.030796
 3918 Fit       0.030830
 3919 Fit       0.030713
 3920 Fit       0.032978
 3921 Fit       0.031787
 3922 Fit       0.033446
 3923 Fit       0.031790
 3924 Fit       0.033452
 3925 Fit       0.030835
 3926 Fit       0.030724
 3927 Fit       0.032999
 3928 Fit       0.028002
 3929 Fit       0.028585
 3930 Fit       0.030833
 3931 Fit       0.024773
 3932 Fit       0.025776
 3933 Fit       0.006226
 3934 Fit       0.008876
 3935 Fit       0.006014
 3936 Fit       0.010065
 3937 Fit       0.010444
 3938 Fit       0.007314
 3939 Fit       0.009044
 3940 Fit       0.011818
 3941 Fit       0.011590
 3942 Fit       0.008211
 3943 Fit       0.005656
 3944 Fit       0.010956
 3945 Fit       0.012789
 3946 Fit       0.011590
 3947 Fit       0.006812
 3948 Fit       0.005660
 3949 Fit       0.010961
 3950 Fit       0.012795
 3951 Fit       0.011598
 3952 Fit       0.006822
 3953 Fit       0.009059
 3954 Fit       0.011836
 3955 Fit       0.011611
 3956 Fit       0.008238
 3957 Fit       0.006037
 3958 Fit       0.010094
 3959 Fit       0.010480
 3960 Fit       0.007360
 3961 Fit       0.006265
 3962 Fit       0.008923
 3963 Fit       0.021161
 3964 Fit       0.031738
 3965 Fit       0.027043
 3966 Fit       0.021043
 3967 Fit       0.012769
 3968 Fit       0.030315
 3969 Fit       0.024554
 3970 Fit       0.017413
 3971 Fit       0.033550
 3972 Fit       0.027548
 3973 Fit       0.020763
 3974 Fit       0.011543
 3975 Fit       0.033552
 3976 Fit       0.027550
 3977 Fit       0.020765
 3978 Fit       0.011545
 3979 Fit       0.030321
 3980 Fit       0.024562
 3981 Fit       0.017421
 3982 Fit       0.031747
 3983 Fit       0.027056
 3984 Fit       0.021058
 3985 Fit       0.012782
 3986 Fit       0.021184
 -----------------------------------------------------------------
 Leave Link  602 at Thu Jan 16 22:40:37 2014, MaxMem=   235929600 cpu:         1.7

 Test job not archived.
 1\1\GINC-G59\SP\RHF\Gen\C10H7Br1N2O2S1\KOLAR\16-Jan-2014\0\\# hf/gen p
 op=mk iop(6/33=2,6/41=5,6/42=2)\\na resp\\0,1\C,0,-1.044286,2.518659,-
 0.000344\C,0,-2.428694,2.525499,-0.000104\C,0,-3.140474,1.318052,0.000
 144\C,0,-2.404522,0.12002,0.000059\C,0,-1.020949,0.10041,-0.000218\C,0
 ,-0.30112,1.314861,-0.00038\C,0,1.145743,1.431045,-0.000412\C,0,2.1614
 48,0.526592,-0.000505\C,0,2.203591,-0.965493,-0.000952\O,0,1.308737,-1
 .794325,-0.001189\N,0,3.56499,-1.263406,-0.001093\C,0,4.380034,-0.1459
 11,0.000067\S,0,6.035967,-0.105956,0.001224\N,0,3.514806,0.908493,-0.0
 00293\Br,0,-3.383973,-1.52935,0.000333\O,0,-4.488862,1.368192,0.000432
 \H,0,-0.514615,3.467849,-0.000558\H,0,-2.990108,3.454029,-0.00012\H,0,
 -0.491228,-0.844281,-0.000368\H,0,1.485134,2.467744,-0.000273\H,0,3.93
 0651,-2.205804,0.000221\H,0,3.854892,1.859451,0.000885\H,0,-4.833343,0
 .454596,0.000602\\Version=AM64L-G09RevD.01\State=1-A\HF=-3608.4911504\
 RMSD=8.404e-09\Dipole=-1.0131978,1.1592945,0.0009944\Quadrupole=-16.15
 56439,13.6329321,2.5227118,3.3542162,0.00176,-0.0039059\PG=C01 [X(C10H
 7Br1N2O2S1)]\\@


 Standing in the middle of the road is very dangerous;
 you get knocked down by the traffic from both sides.
                                -- Margaret Thatcher
 Job cpu time:       0 days  0 hours  3 minutes 50.5 seconds.
 File lengths (MBytes):  RWF=     37 Int=      0 D2E=      0 Chk=      3 Scr=      1
 Normal termination of Gaussian 09 at Thu Jan 16 22:40:37 2014.
230.09user 0.41system 3:50.89elapsed 99%CPU (0avgtext+0avgdata 603376maxresident)k
8inputs+176064outputs (0major+172629minor)pagefaults 0swaps
