Linux g29 2.6.38.6-client #1 SMP Tue Jun 12 11:27:21 CEST 2012 x86_64 GNU/Linux
Fri Jan 17 11:54:32 CET 2014

 Entering Gaussian System, Link 0=/usr/local/programs/common/gaussian/gaussian09_d01/arch/amd64-pgi_10.4.0-acml/g09/g09
 Initial command:
 /usr/local/programs/common/gaussian/gaussian09_d01/arch/amd64-pgi_10.4.0-acml/g09/l1.exe "/scratch/kolar/g09_19947/Gau-20991.inp" -scrdir="/scratch/kolar/g09_19947/"
 Entering Link 1 = /usr/local/programs/common/gaussian/gaussian09_d01/arch/amd64-pgi_10.4.0-acml/g09/l1.exe PID=     20993.
  
 Copyright (c) 1988,1990,1992,1993,1995,1998,2003,2009,2013,
            Gaussian, Inc.  All Rights Reserved.
  
 This is part of the Gaussian(R) 09 program.  It is based on
 the Gaussian(R) 03 system (copyright 2003, Gaussian, Inc.),
 the Gaussian(R) 98 system (copyright 1998, Gaussian, Inc.),
 the Gaussian(R) 94 system (copyright 1995, Gaussian, Inc.),
 the Gaussian 92(TM) system (copyright 1992, Gaussian, Inc.),
 the Gaussian 90(TM) system (copyright 1990, Gaussian, Inc.),
 the Gaussian 88(TM) system (copyright 1988, Gaussian, Inc.),
 the Gaussian 86(TM) system (copyright 1986, Carnegie Mellon
 University), and the Gaussian 82(TM) system (copyright 1983,
 Carnegie Mellon University). Gaussian is a federally registered
 trademark of Gaussian, Inc.
  
 This software contains proprietary and confidential information,
 including trade secrets, belonging to Gaussian, Inc.
  
 This software is provided under written license and may be
 used, copied, transmitted, or stored only in accord with that
 written license.
  
 The following legend is applicable only to US Government
 contracts under FAR:
  
                    RESTRICTED RIGHTS LEGEND
  
 Use, reproduction and disclosure by the US Government is
 subject to restrictions as set forth in subparagraphs (a)
 and (c) of the Commercial Computer Software - Restricted
 Rights clause in FAR 52.227-19.
  
 Gaussian, Inc.
 340 Quinnipiac St., Bldg. 40, Wallingford CT 06492
  
  
 ---------------------------------------------------------------
 Warning -- This program may not be used in any manner that
 competes with the business of Gaussian, Inc. or will provide
 assistance to any competitor of Gaussian, Inc.  The licensee
 of this program is prohibited from giving any competitor of
 Gaussian, Inc. access to this program.  By using this program,
 the user acknowledges that Gaussian, Inc. is engaged in the
 business of creating and licensing software in the field of
 computational chemistry and represents and warrants to the
 licensee that it is not a competitor of Gaussian, Inc. and that
 it will not use this program in any manner prohibited above.
 ---------------------------------------------------------------
  

 Cite this work as:
 Gaussian 09, Revision D.01,
 M. J. Frisch, G. W. Trucks, H. B. Schlegel, G. E. Scuseria, 
 M. A. Robb, J. R. Cheeseman, G. Scalmani, V. Barone, B. Mennucci, 
 G. A. Petersson, H. Nakatsuji, M. Caricato, X. Li, H. P. Hratchian, 
 A. F. Izmaylov, J. Bloino, G. Zheng, J. L. Sonnenberg, M. Hada, 
 M. Ehara, K. Toyota, R. Fukuda, J. Hasegawa, M. Ishida, T. Nakajima, 
 Y. Honda, O. Kitao, H. Nakai, T. Vreven, J. A. Montgomery, Jr., 
 J. E. Peralta, F. Ogliaro, M. Bearpark, J. J. Heyd, E. Brothers, 
 K. N. Kudin, V. N. Staroverov, T. Keith, R. Kobayashi, J. Normand, 
 K. Raghavachari, A. Rendell, J. C. Burant, S. S. Iyengar, J. Tomasi, 
 M. Cossi, N. Rega, J. M. Millam, M. Klene, J. E. Knox, J. B. Cross, 
 V. Bakken, C. Adamo, J. Jaramillo, R. Gomperts, R. E. Stratmann, 
 O. Yazyev, A. J. Austin, R. Cammi, C. Pomelli, J. W. Ochterski, 
 R. L. Martin, K. Morokuma, V. G. Zakrzewski, G. A. Voth, 
 P. Salvador, J. J. Dannenberg, S. Dapprich, A. D. Daniels, 
 O. Farkas, J. B. Foresman, J. V. Ortiz, J. Cioslowski, 
 and D. J. Fox, Gaussian, Inc., Wallingford CT, 2013.
 
 ******************************************
 Gaussian 09:  AM64L-G09RevD.01 24-Apr-2013
                17-Jan-2014 
 ******************************************
 %mem=1800mb
 ------------------------------------------------------------------
 # hf/gen pseudo=read pop=(mk, readradii) iop(6/33=2,6/41=5,6/42=2)
 ------------------------------------------------------------------
 1/38=1/1;
 2/12=2,17=6,18=5,40=1/2;
 3/5=7,11=9,16=1,17=8,25=1,30=1/1,2,3;
 4//1;
 5/5=2,38=5/2;
 6/7=2,8=2,9=2,10=2,15=8,20=101,28=1,33=2,41=5,42=2/1,2;
 99/5=1,9=1/99;
 -------
 na resp
 -------
 Symbolic Z-matrix:
 Charge =  0 Multiplicity = 1
 6                    -0.68991  -1.09221   0.52398 
 6                     0.7047   -1.09543   0.51695 
 6                     1.39364  -0.00007  -0.00018 
 6                     0.7048    1.09523  -0.51756 
 6                    -0.68981   1.0919   -0.52498 
 6                    -1.39102  -0.00015  -0.00056 
 7                    -2.8166    0.00002  -0.00077 
 6                    -3.63251  -1.13281  -0.22389 
 8                    -3.25195  -2.2621   -0.44385 
 6                    -5.04969  -0.65418  -0.1304 
 6                    -5.04939   0.65471   0.13223 
 6                    -3.63199   1.13302   0.22386 
 8                    -3.25081   2.26216   0.44347 
 53                    3.53706  -0.00001   0.0002 
 1                    -1.22621  -1.94369   0.92302 
 1                     1.23901  -1.94822   0.92028 
 1                     1.23917   1.94803  -0.92078 
 1                    -1.22609   1.94328  -0.92426 
 1                    -5.88263  -1.33171  -0.26728 
 1                    -5.882     1.33243   0.27014 
 
                          Input orientation:                          
 ---------------------------------------------------------------------
 Center     Atomic      Atomic             Coordinates (Angstroms)
 Number     Number       Type             X           Y           Z
 ---------------------------------------------------------------------
      1          6           0       -0.689912   -1.092209    0.523976
      2          6           0        0.704700   -1.095428    0.516951
      3          6           0        1.393640   -0.000072   -0.000180
      4          6           0        0.704804    1.095225   -0.517558
      5          6           0       -0.689811    1.091895   -0.524982
      6          6           0       -1.391016   -0.000152   -0.000559
      7          7           0       -2.816599    0.000021   -0.000765
      8          6           0       -3.632509   -1.132807   -0.223892
      9          8           0       -3.251949   -2.262098   -0.443847
     10          6           0       -5.049692   -0.654180   -0.130396
     11          6           0       -5.049391    0.654707    0.132234
     12          6           0       -3.631989    1.133018    0.223862
     13          8           0       -3.250813    2.262159    0.443473
     14         53           0        3.537058   -0.000014    0.000198
     15          1           0       -1.226211   -1.943690    0.923016
     16          1           0        1.239010   -1.948221    0.920275
     17          1           0        1.239174    1.948026   -0.920782
     18          1           0       -1.226093    1.943278   -0.924262
     19          1           0       -5.882626   -1.331711   -0.267282
     20          1           0       -5.882000    1.332430    0.270141
 ---------------------------------------------------------------------
                    Distance matrix (angstroms):
                    1          2          3          4          5
     1  C    0.000000
     2  C    1.394633   0.000000
     3  C    2.410123   1.393509   0.000000
     4  C    2.795513   2.422637   1.393503   0.000000
     5  C    2.422937   2.795473   2.410099   1.394639   0.000000
     6  C    1.399740   2.420635   2.784656   2.420661   1.399741
     7  N    2.447676   3.723921   4.210239   3.723819   2.447492
     8  C    3.036418   4.400185   5.157064   4.884941   3.701274
     9  O    2.978146   4.235484   5.186049   5.189696   4.221422
    10  C    4.430322   5.807477   6.477757   6.026984   4.713071
    11  C    4.712774   6.026653   6.477570   5.807499   4.430463
    12  C    3.701016   4.884541   5.156650   4.399876   3.036259
    13  O    4.220957   5.188918   5.185119   4.234645   2.977609
    14  I    4.397102   3.080457   2.143418   3.080468   4.397101
    15  H    1.082529   2.147756   3.390215   3.878025   3.405760
    16  H    2.147219   1.084165   2.160193   3.408123   3.879616
    17  H    3.879656   3.408130   2.160198   1.084163   2.147231
    18  H    3.405740   3.877988   3.390212   2.147781   1.082532
    19  H    5.258111   6.638051   7.401936   7.024734   5.736341
    20  H    5.735947   7.024246   7.401593   6.637976   5.258223
                    6          7          8          9         10
     6  C    0.000000
     7  N    1.425583   0.000000
     8  C    2.521324   1.413787   0.000000
     9  O    2.962427   2.345855   1.211819   0.000000
    10  C    3.718941   2.330555   1.498744   2.432187   0.000000
    11  C    3.718895   2.330593   2.308590   3.474251   1.334976
    12  C    2.521190   1.413860   2.309642   3.480959   2.308562
    13  O    2.962104   2.345881   3.480928   4.610449   3.474237
    14  I    4.928074   6.353657   7.261964   7.169715   8.612622
    15  H    2.158122   2.675952   2.786252   2.464409   4.170314
    16  H    3.399992   4.592595   5.070080   4.704047   6.505861
    17  H    3.400016   4.592434   5.806073   6.174366   6.851717
    18  H    2.158089   2.675594   3.967827   4.692556   4.690087
    19  H    4.692414   3.353366   2.259308   2.795936   1.082389
    20  H    4.692333   3.353414   3.373673   4.510829   2.190841
                   11         12         13         14         15
    11  C    0.000000
    12  C    1.498735   0.000000
    13  O    2.432212   1.211810   0.000000
    14  I    8.612386   7.261475   7.168620   0.000000
    15  H    4.689745   3.967709   4.692349   5.226682   0.000000
    16  H    6.851294   5.805657   6.173585   3.150092   2.465227
    17  H    6.505964   5.069781   4.703175   3.150133   4.962174
    18  H    4.170636   2.786224   2.464118   5.226721   4.303598
    19  H    2.190833   3.373645   4.510822   9.517111   4.844949
    20  H    1.082388   2.259304   2.795994   9.516666   5.730234
                   16         17         18         19         20
    16  H    0.000000
    17  H    4.309319   0.000000
    18  H    4.962138   2.465274   0.000000
    19  H    7.246246   7.867895   5.730661   0.000000
    20  H    7.867282   7.246266   4.845328   2.717806   0.000000
 Stoichiometry    C10H6INO2
 Framework group  C1[X(C10H6INO2)]
 Deg. of freedom    54
 Full point group                 C1      NOp   1
 Largest Abelian subgroup         C1      NOp   1
 Largest concise Abelian subgroup C1      NOp   1
                         Standard orientation:                         
 ---------------------------------------------------------------------
 Center     Atomic      Atomic             Coordinates (Angstroms)
 Number     Number       Type             X           Y           Z
 ---------------------------------------------------------------------
      1          6           0        0.689912   -1.092209   -0.523976
      2          6           0       -0.704700   -1.095428   -0.516951
      3          6           0       -1.393640   -0.000072    0.000180
      4          6           0       -0.704804    1.095225    0.517558
      5          6           0        0.689811    1.091895    0.524982
      6          6           0        1.391016   -0.000152    0.000559
      7          7           0        2.816599    0.000021    0.000765
      8          6           0        3.632509   -1.132807    0.223892
      9          8           0        3.251949   -2.262098    0.443847
     10          6           0        5.049692   -0.654180    0.130396
     11          6           0        5.049391    0.654707   -0.132234
     12          6           0        3.631989    1.133018   -0.223862
     13          8           0        3.250813    2.262159   -0.443473
     14         53           0       -3.537058   -0.000014   -0.000198
     15          1           0        1.226211   -1.943690   -0.923016
     16          1           0       -1.239010   -1.948221   -0.920275
     17          1           0       -1.239174    1.948026    0.920782
     18          1           0        1.226093    1.943278    0.924262
     19          1           0        5.882626   -1.331711    0.267282
     20          1           0        5.882000    1.332430   -0.270141
 ---------------------------------------------------------------------
 Rotational constants (GHZ):      1.6540131      0.1624461      0.1500574
 General basis read from cards:  (5D, 7F)
 ======================================================================================================
                                       Pseudopotential Parameters
 ======================================================================================================
  Center     Atomic      Valence      Angular      Power
  Number     Number     Electrons     Momentum     of R      Exponent        Coefficient   SO-Coeffient
 ======================================================================================================
    1          6
                                   No pseudopotential on this center.
    2          6
                                   No pseudopotential on this center.
    3          6
                                   No pseudopotential on this center.
    4          6
                                   No pseudopotential on this center.
    5          6
                                   No pseudopotential on this center.
    6          6
                                   No pseudopotential on this center.
    7          7
                                   No pseudopotential on this center.
    8          6
                                   No pseudopotential on this center.
    9          8
                                   No pseudopotential on this center.
   10          6
                                   No pseudopotential on this center.
   11          6
                                   No pseudopotential on this center.
   12          6
                                   No pseudopotential on this center.
   13          8
                                   No pseudopotential on this center.
   14         53            7
                                      F and up 
                                                     0        1.0715702       -0.07476210    0.00000000
                                                     1       44.1936028      -30.08112240    0.00000000
                                                     2       12.9367609      -75.37227210    0.00000000
                                                     2        3.1956412      -22.05637580    0.00000000
                                                     2        0.8589806       -1.69795850    0.00000000
                                      S - F
                                                     0      127.9202670        2.93800360    0.00000000
                                                     1       78.6211465       41.24712670    0.00000000
                                                     2       36.5146237      287.86800950    0.00000000
                                                     2        9.9065681      114.37585060    0.00000000
                                                     2        1.9420086       37.65477140    0.00000000
                                      P - F
                                                     0       13.0035304        2.22226300    0.00000000
                                                     1       76.0331404       39.40908310    0.00000000
                                                     2       24.1961684      177.40750020    0.00000000
                                                     2        6.4053433       77.98894620    0.00000000
                                                     2        1.5851786       25.75476410    0.00000000
                                      D - F
                                                     0       40.4278108        7.05243600    0.00000000
                                                     1       28.9084375       33.30416350    0.00000000
                                                     2       15.6268936      186.94538750    0.00000000
                                                     2        4.1442856       71.96883610    0.00000000
                                                     2        0.9377235        9.36306570    0.00000000
   15          1
                                   No pseudopotential on this center.
   16          1
                                   No pseudopotential on this center.
   17          1
                                   No pseudopotential on this center.
   18          1
                                   No pseudopotential on this center.
   19          1
                                   No pseudopotential on this center.
   20          1
                                   No pseudopotential on this center.
 ======================================================================================================
 There are   215 symmetry adapted cartesian basis functions of A   symmetry.
 There are   202 symmetry adapted basis functions of A   symmetry.
   202 basis functions,   400 primitive gaussians,   215 cartesian basis functions
    48 alpha electrons       48 beta electrons
       nuclear repulsion energy       779.8898243994 Hartrees.
 NAtoms=   20 NActive=   20 NUniq=   20 SFac= 1.00D+00 NAtFMM=   60 NAOKFM=F Big=F
 Integral buffers will be    131072 words long.
 Raffenetti 1 integral format.
 Two-electron integral symmetry is turned on.
 One-electron integrals computed using PRISM.
   1 Symmetry operations used in ECPInt.
 ECPInt:  NShTT=    2346 NPrTT=   15305 LenC2=    2220 LenP2D=    9162.
 LDataN:  DoStor=T MaxTD1= 5 Len=  102
 NBasis=   202 RedAO= T EigKep=  4.80D-04  NBF=   202
 NBsUse=   202 1.00D-06 EigRej= -1.00D+00 NBFU=   202
 ExpMin= 1.05D-01 ExpMax= 5.48D+03 ExpMxC= 8.25D+02 IAcc=1 IRadAn=         1 AccDes= 0.00D+00
 Harris functional with IExCor=  205 and IRadAn=       1 diagonalized for initial guess.
 HarFok:  IExCor=  205 AccDes= 0.00D+00 IRadAn=         1 IDoV= 1 UseB2=F ITyADJ=14
 ICtDFT=  3500011 ScaDFX=  1.000000  1.000000  1.000000  1.000000
 Defaulting to unpruned grid for atomic number  53.
 FoFCou: FMM=F IPFlag=           0 FMFlag=      100000 FMFlg1=           0
         NFxFlg=           0 DoJE=T BraDBF=F KetDBF=T FulRan=T
         wScrn=  0.000000 ICntrl=     500 IOpCl=  0 I1Cent=   200000004 NGrid=           0
         NMat0=    1 NMatS0=      1 NMatT0=    0 NMatD0=    1 NMtDS0=    0 NMtDT0=    0
 Petite list used in FoFCou.
 Keep R1 ints in memory in canonical form, NReq=215395611.
 Requested convergence on RMS density matrix=1.00D-08 within 128 cycles.
 Requested convergence on MAX density matrix=1.00D-06.
 Requested convergence on             energy=1.00D-06.
 No special actions if energy rises.
 SCF Done:  E(RHF) =  -597.509578033     A.U. after   15 cycles
            NFock= 15  Conv=0.59D-08     -V/T= 2.0153

 **********************************************************************

            Population analysis using the SCF density.

 **********************************************************************

 Orbital symmetries:
 BldTbl:  Degeneracy threshold= 1.00D-02
       Occupied  (A) (A) (A) (A) (A) (A) (A) (A) (A) (A) (A) (A)
                 (A) (A) (A) (A) (A) (A) (A) (A) (A) (A) (A) (A)
                 (A) (A) (A) (A) (A) (A) (A) (A) (A) (A) (A) (A)
                 (A) (A) (A) (A) (A) (A) (A) (A) (A) (A) (A) (A)
       Virtual   (A) (A) (A) (A) (A) (A) (A) (A) (A) (A) (A) (A)
                 (A) (A) (A) (A) (A) (A) (A) (A) (A) (A) (A) (A)
                 (A) (A) (A) (A) (A) (A) (A) (A) (A) (A) (A) (A)
                 (A) (A) (A) (A) (A) (A) (A) (A) (A) (A) (A) (A)
                 (A) (A) (A) (A) (A) (A) (A) (A) (A) (A) (A) (A)
                 (A) (A) (A) (A) (A) (A) (A) (A) (A) (A) (A) (A)
                 (A) (A) (A) (A) (A) (A) (A) (A) (A) (A) (A) (A)
                 (A) (A) (A) (A) (A) (A) (A) (A) (A) (A) (A) (A)
                 (A) (A) (A) (A) (A) (A) (A) (A) (A) (A) (A) (A)
                 (A) (A) (A) (A) (A) (A) (A) (A) (A) (A) (A) (A)
                 (A) (A) (A) (A) (A) (A) (A) (A) (A) (A) (A) (A)
                 (A) (A) (A) (A) (A) (A) (A) (A) (A) (A) (A) (A)
                 (A) (A) (A) (A) (A) (A) (A) (A) (A) (A)
 The electronic state is 1-A.
 Alpha  occ. eigenvalues --  -20.58443 -20.58442 -15.64087 -11.40362 -11.40359
 Alpha  occ. eigenvalues --  -11.30474 -11.29836 -11.29833 -11.29670 -11.25758
 Alpha  occ. eigenvalues --  -11.25755 -11.25280 -11.25278  -1.44072  -1.42056
 Alpha  occ. eigenvalues --   -1.30345  -1.17881  -1.12911  -1.03590  -1.02959
 Alpha  occ. eigenvalues --   -0.94100  -0.90168  -0.86445  -0.83830  -0.81914
 Alpha  occ. eigenvalues --   -0.78420  -0.72423  -0.68684  -0.67684  -0.66771
 Alpha  occ. eigenvalues --   -0.65262  -0.64592  -0.63226  -0.62239  -0.60620
 Alpha  occ. eigenvalues --   -0.60194  -0.56012  -0.53376  -0.52350  -0.49007
 Alpha  occ. eigenvalues --   -0.46073  -0.45471  -0.44879  -0.43153  -0.38587
 Alpha  occ. eigenvalues --   -0.36865  -0.35135  -0.31825
 Alpha virt. eigenvalues --    0.03494   0.10933   0.11551   0.12636   0.23061
 Alpha virt. eigenvalues --    0.23620   0.24099   0.25933   0.27301   0.28685
 Alpha virt. eigenvalues --    0.31437   0.32905   0.34467   0.35087   0.38345
 Alpha virt. eigenvalues --    0.38636   0.41396   0.44069   0.47164   0.47510
 Alpha virt. eigenvalues --    0.49103   0.51291   0.51778   0.54833   0.55203
 Alpha virt. eigenvalues --    0.56835   0.59494   0.64964   0.68183   0.68660
 Alpha virt. eigenvalues --    0.70806   0.71988   0.73612   0.74252   0.75584
 Alpha virt. eigenvalues --    0.78390   0.79366   0.80077   0.80886   0.81208
 Alpha virt. eigenvalues --    0.81623   0.82740   0.83418   0.85284   0.86944
 Alpha virt. eigenvalues --    0.88909   0.89155   0.89810   0.91643   0.94177
 Alpha virt. eigenvalues --    0.97055   0.98722   0.99545   1.04702   1.06722
 Alpha virt. eigenvalues --    1.08230   1.09592   1.09736   1.10810   1.11116
 Alpha virt. eigenvalues --    1.11960   1.15458   1.16535   1.18554   1.20336
 Alpha virt. eigenvalues --    1.21612   1.22068   1.24892   1.25607   1.29532
 Alpha virt. eigenvalues --    1.30095   1.32926   1.34134   1.36399   1.38435
 Alpha virt. eigenvalues --    1.39168   1.40096   1.43117   1.45342   1.49566
 Alpha virt. eigenvalues --    1.53607   1.55142   1.57758   1.60340   1.64778
 Alpha virt. eigenvalues --    1.65159   1.67814   1.68004   1.70018   1.71208
 Alpha virt. eigenvalues --    1.72398   1.75627   1.76964   1.84142   1.89271
 Alpha virt. eigenvalues --    1.90650   1.95677   2.00071   2.01184   2.01706
 Alpha virt. eigenvalues --    2.04459   2.06711   2.08297   2.08323   2.10714
 Alpha virt. eigenvalues --    2.15963   2.18575   2.20804   2.21871   2.24377
 Alpha virt. eigenvalues --    2.25859   2.27009   2.29207   2.33071   2.36945
 Alpha virt. eigenvalues --    2.37407   2.41408   2.41742   2.44004   2.45413
 Alpha virt. eigenvalues --    2.46312   2.48291   2.53828   2.57036   2.59634
 Alpha virt. eigenvalues --    2.60649   2.61683   2.65108   2.68063   2.69503
 Alpha virt. eigenvalues --    2.77241   2.79243   2.83702   2.91135   2.92023
 Alpha virt. eigenvalues --    2.92133   2.95408   3.00055   3.00463   3.01840
 Alpha virt. eigenvalues --    3.06483   3.07967   3.09057   3.11687   3.17144
 Alpha virt. eigenvalues --    3.27401   3.28034   3.31835   3.35429   3.44224
 Alpha virt. eigenvalues --    3.53112   3.68439   3.76425  10.25724
          Condensed to atoms (all electrons):
               1          2          3          4          5          6
     1  C    4.955362   0.495301  -0.008114  -0.052548  -0.028829   0.544573
     2  C    0.495301   4.956408   0.459796  -0.010613  -0.052549  -0.007023
     3  C   -0.008114   0.459796   5.353502   0.459793  -0.008113  -0.064578
     4  C   -0.052548  -0.010613   0.459793   4.956395   0.495313  -0.007020
     5  C   -0.028829  -0.052549  -0.008113   0.495313   4.955320   0.544575
     6  C    0.544573  -0.007023  -0.064578  -0.007020   0.544575   4.564639
     7  N   -0.048013   0.004058  -0.000391   0.004054  -0.048031   0.152008
     8  C   -0.001580   0.000084   0.000005  -0.000039   0.001497  -0.019484
     9  O   -0.006219   0.000019   0.000002  -0.000005   0.000108   0.004385
    10  C    0.000192  -0.000002   0.000000   0.000001  -0.000206   0.003971
    11  C   -0.000206   0.000001   0.000000  -0.000002   0.000193   0.003969
    12  C    0.001494  -0.000039   0.000004   0.000085  -0.001591  -0.019477
    13  O    0.000108  -0.000005   0.000002   0.000019  -0.006223   0.004379
    14  I   -0.000740  -0.054542   0.253334  -0.054537  -0.000740   0.001427
    15  H    0.375747  -0.029769   0.003890  -0.000303   0.003057  -0.026094
    16  H   -0.025959   0.383484  -0.027746   0.002271   0.000104   0.001956
    17  H    0.000104   0.002271  -0.027747   0.383484  -0.025959   0.001956
    18  H    0.003058  -0.000303   0.003891  -0.029763   0.375758  -0.026108
    19  H    0.000000   0.000000   0.000000   0.000000   0.000001  -0.000028
    20  H    0.000001   0.000000   0.000000   0.000000   0.000000  -0.000028
               7          8          9         10         11         12
     1  C   -0.048013  -0.001580  -0.006219   0.000192  -0.000206   0.001494
     2  C    0.004058   0.000084   0.000019  -0.000002   0.000001  -0.000039
     3  C   -0.000391   0.000005   0.000002   0.000000   0.000000   0.000004
     4  C    0.004054  -0.000039  -0.000005   0.000001  -0.000002   0.000085
     5  C   -0.048031   0.001497   0.000108  -0.000206   0.000193  -0.001591
     6  C    0.152008  -0.019484   0.004385   0.003971   0.003969  -0.019477
     7  N    7.756270   0.245569  -0.079261  -0.109530  -0.109547   0.245600
     8  C    0.245569   4.044203   0.599322   0.427733  -0.063622  -0.032089
     9  O   -0.079261   0.599322   8.095591  -0.058397   0.003997   0.000129
    10  C   -0.109530   0.427733  -0.058397   5.180390   0.517333  -0.063608
    11  C   -0.109547  -0.063622   0.003997   0.517333   5.180355   0.427729
    12  C    0.245600  -0.032089   0.000129  -0.063608   0.427729   4.044289
    13  O   -0.079262   0.000130  -0.000013   0.003995  -0.058387   0.599318
    14  I    0.000011   0.000000   0.000000   0.000000   0.000000   0.000000
    15  H   -0.005243   0.002053   0.005182   0.000052  -0.000008  -0.000074
    16  H   -0.000079  -0.000003  -0.000004   0.000000   0.000000   0.000001
    17  H   -0.000079   0.000001   0.000000   0.000000   0.000000  -0.000003
    18  H   -0.005236  -0.000073   0.000002  -0.000008   0.000052   0.002048
    19  H    0.002420  -0.018529   0.000833   0.368953  -0.014498   0.001378
    20  H    0.002420   0.001378  -0.000027  -0.014496   0.368953  -0.018531
              13         14         15         16         17         18
     1  C    0.000108  -0.000740   0.375747  -0.025959   0.000104   0.003058
     2  C   -0.000005  -0.054542  -0.029769   0.383484   0.002271  -0.000303
     3  C    0.000002   0.253334   0.003890  -0.027746  -0.027747   0.003891
     4  C    0.000019  -0.054537  -0.000303   0.002271   0.383484  -0.029763
     5  C   -0.006223  -0.000740   0.003057   0.000104  -0.025959   0.375758
     6  C    0.004379   0.001427  -0.026094   0.001956   0.001956  -0.026108
     7  N   -0.079262   0.000011  -0.005243  -0.000079  -0.000079  -0.005236
     8  C    0.000130   0.000000   0.002053  -0.000003   0.000001  -0.000073
     9  O   -0.000013   0.000000   0.005182  -0.000004   0.000000   0.000002
    10  C    0.003995   0.000000   0.000052   0.000000   0.000000  -0.000008
    11  C   -0.058387   0.000000  -0.000008   0.000000   0.000000   0.000052
    12  C    0.599318   0.000000  -0.000074   0.000001  -0.000003   0.002048
    13  O    8.095573   0.000000   0.000002   0.000000  -0.000004   0.005177
    14  I    0.000000   6.663543  -0.000154   0.000021   0.000022  -0.000154
    15  H    0.000002  -0.000154   0.420872  -0.001631   0.000005  -0.000076
    16  H    0.000000   0.000021  -0.001631   0.435704  -0.000082   0.000005
    17  H   -0.000004   0.000022   0.000005  -0.000082   0.435701  -0.001631
    18  H    0.005177  -0.000154  -0.000076   0.000005  -0.001631   0.420874
    19  H   -0.000027   0.000000   0.000001   0.000000   0.000000   0.000000
    20  H    0.000833   0.000000   0.000000   0.000000   0.000000   0.000001
              19         20
     1  C    0.000000   0.000001
     2  C    0.000000   0.000000
     3  C    0.000000   0.000000
     4  C    0.000000   0.000000
     5  C    0.000001   0.000000
     6  C   -0.000028  -0.000028
     7  N    0.002420   0.002420
     8  C   -0.018529   0.001378
     9  O    0.000833  -0.000027
    10  C    0.368953  -0.014496
    11  C   -0.014498   0.368953
    12  C    0.001378  -0.018531
    13  O   -0.000027   0.000833
    14  I    0.000000   0.000000
    15  H    0.000001   0.000000
    16  H    0.000000   0.000000
    17  H    0.000000   0.000000
    18  H    0.000000   0.000001
    19  H    0.389993  -0.000300
    20  H   -0.000300   0.389995
 Mulliken charges:
               1
     1  C   -0.203732
     2  C   -0.146577
     3  C   -0.397531
     4  C   -0.146584
     5  C   -0.203684
     6  C    0.342004
     7  N   -0.927737
     8  C    0.813445
     9  O   -0.565646
    10  C   -0.256374
    11  C   -0.256313
    12  C    0.813336
    13  O   -0.565615
    14  I    0.192509
    15  H    0.252488
    16  H    0.231959
    17  H    0.231962
    18  H    0.252485
    19  H    0.269803
    20  H    0.269802
 Sum of Mulliken charges =   0.00000
 Mulliken charges with hydrogens summed into heavy atoms:
               1
     1  C    0.048756
     2  C    0.085383
     3  C   -0.397531
     4  C    0.085379
     5  C    0.048801
     6  C    0.342004
     7  N   -0.927737
     8  C    0.813445
     9  O   -0.565646
    10  C    0.013429
    11  C    0.013489
    12  C    0.813336
    13  O   -0.565615
    14  I    0.192509
 DipInt: DoE/N= T F RetVal/Mat= T F Init=T NMatP=  1 IDeriv=0 Min/MaxMlt=  0  4
 Entering OneElI...
 OneElI was handed   235808702 working-precision words.
 Multipole integrals L=0 to 4 MinM= 0 MaxM= 0.
 Requested accuracy = 0.1000D-12
 ShPair: Thresh= 1.00D-13 NBox=     0 BxSize= 0.00D+00 RnKept= 1.80D+01
         NSMCal=                 2346 NSMKep=                2082
 PrsmSu:  NPrtUS=   1 ThrOK=F IAlg=1 NPAlg=1 LenDen=           0.
 Prism:   IPart=     0 DynPar=F LinDyn=F Incr=          20.
 PRISM was handed   235609613 working-precision words and  2082 shell-pairs
 IPart=  0 NShTot=        2082 NBatch=          96 AvBLen=        21.7
 PrSmSu:  NxtVal=             21.
 Electronic moments (au):
        -96.00000000       -305.88682100         -0.00092008         -0.01805867
      -3218.03411005       -611.27925785       -121.14887838          0.01279371
          0.10655862          5.29008959     -19792.82029096         -0.01275831
         -0.10421143      -2645.24344813          0.44753485          1.71847277
       -201.97814189         -0.08531373         -0.11846033        500.72164076
    -210932.13604037      -9136.56477371       -546.62355155          4.66718069
         18.56412520          0.55794914        661.59031355          0.13586010
        -94.06313368     -20317.39279409      -3335.64965746       -893.18822479
       3153.00366098         -0.17447551          0.00710379
 Electronic spatial extent (au):  <R**2>=           3950.4622
 DipInt: DoE/N= F T RetVal/Mat= T F Init=T NMatP=  1 IDeriv=0 Min/MaxMlt=  0  4
 Nuclear    moments (au):
         96.00000000        307.46727347          0.00119838          0.01721836
       3166.67632812        535.01093223         50.04736101         -0.00801004
         -0.11519115          0.00003842      19727.35576121          0.01515933
          0.08761331       2487.19179012         -0.39507475         -1.81754242
         96.67268285          0.09504383          0.10487226       -491.11531451
     199822.47590939       6872.60687504         67.87842307         -4.29518975
        -19.28754210         -0.44472024       -564.48076574          0.04406394
         81.98446857      17337.82200660        763.04090980        483.29171663
      -3104.26406680          0.12243213          0.03177081
 Total      moments (au):
          0.00000000          1.58045247          0.00027829         -0.00084031
        -51.35778193        -76.26832562        -71.10151737          0.00478367
         -0.00863252          5.29012800        -65.46452975          0.00240103
         -0.01659812       -158.05165801          0.05246010         -0.09906965
       -105.30545904          0.00973009         -0.01358806          9.60632625
     -11109.66013097      -2263.95789867       -478.74512848          0.37199094
         -0.72341690          0.11322890         97.10954781          0.17992404
        -12.07866511      -2979.57078749      -2572.60874767       -409.89650816
         48.73959418         -0.05204338          0.03887461
 Traceless Quadrup. (au):
         14.88475971        -10.02578398         -4.85897573          0.00478367
         -0.00863252          5.29012800
 Charge=              0.0000 electrons
 Dipole moment (field-independent basis, Debye):
    X=              4.0171    Y=              0.0007    Z=             -0.0021  Tot=              4.0171
 Quadrupole moment (field-independent basis, Debye-Ang):
   XX=            -69.0780   YY=           -102.5835   ZZ=            -95.6340
   XY=              0.0064   XZ=             -0.0116   YZ=              7.1154
 Traceless Quadrupole moment (field-independent basis, Debye-Ang):
   XX=             20.0205   YY=            -13.4850   ZZ=             -6.5355
   XY=              0.0064   XZ=             -0.0116   YZ=              7.1154
 Octapole moment (field-independent basis, Debye-Ang**2):
  XXX=            -46.5951  YYY=              0.0017  ZZZ=             -0.0118  XYY=           -112.4951
  XXY=              0.0373  XXZ=             -0.0705  XZZ=            -74.9524  YZZ=              0.0069
  YYZ=             -0.0097  XYZ=              6.8374
 Hexadecapole moment (field-independent basis, Debye-Ang**3):
 XXXX=          -4184.4305 YYYY=           -852.7150 ZZZZ=           -180.3184 XXXY=              0.1401
 XXXZ=             -0.2725 YYYX=              0.0426 YYYZ=             36.5761 ZZZX=              0.0678
 ZZZY=             -4.5494 XXYY=          -1122.2492 XXZZ=           -968.9678 YYZZ=           -154.3867
 XXYZ=             18.3577 YYXZ=             -0.0196 ZZXY=              0.0146
 N-N= 7.798898243994D+02 E-N=-2.952563919487D+03  KE= 5.884990261710D+02
 Entering OneElI...
 OneElI was handed   235836641 working-precision words.
 Calculate electrostatic properties
    NBasis =   202  MinDer = 0  MaxDer = 0
    NGrid  =    20  NMatD  =   1
 Requested accuracy = 0.1000D-12
 ShPair: Thresh= 1.00D-13 NBox=     0 BxSize= 0.00D+00 RnKept= 1.80D+01
         NSMCal=                 2346 NSMKep=                1921
 PrsmSu:  NPrtUS=   1 ThrOK=F IAlg=1 NPAlg=1 LenDen=           0.
 Prism:   IPart=     0 DynPar=F LinDyn=F Incr=         384.
 PRISM was handed   235652152 working-precision words and  1921 shell-pairs
 IPart=  0 NShTot=       38420 NBatch=        1921 AvBLen=        20.0
 PrSmSu:  NxtVal=            385.
 --------------------------------------------------------
       Center         ----      EFG at Nuclei      ----
                      3XX-RR        3YY-RR        3ZZ-RR
 --------------------------------------------------------
     1   Atom        0.170406      0.077156     -0.247562
     2   Atom        0.175280      0.056368     -0.231647
     3   Atom       -0.274923      0.281514     -0.006591
     4   Atom        0.175291      0.056354     -0.231645
     5   Atom        0.170414      0.077145     -0.247559
     6   Atom       -0.179977      0.267505     -0.087528
     7   Atom       -0.499760     -0.381584      0.881343
     8   Atom        0.251329      0.226059     -0.477388
     9   Atom        1.629335     -0.596153     -1.033182
    10   Atom        0.096872      0.235875     -0.332747
    11   Atom        0.096805      0.235871     -0.332676
    12   Atom        0.251486      0.225967     -0.477453
    13   Atom        1.628440     -0.595798     -1.032643
    14   Atom       -0.088088      0.043322      0.044766
    15   Atom        0.031556     -0.131884      0.100328
    16   Atom        0.032568     -0.132510      0.099942
    17   Atom        0.032544     -0.132516      0.099971
    18   Atom        0.031563     -0.131812      0.100250
    19   Atom       -0.125501     -0.028267      0.153767
    20   Atom       -0.125289     -0.028370      0.153659
 --------------------------------------------------------
                        XY            XZ            YZ
 --------------------------------------------------------
     1   Atom       -0.013349     -0.021220      0.160909
     2   Atom        0.016397      0.005405      0.176815
     3   Atom       -0.000012     -0.000036      0.180238
     4   Atom       -0.016460     -0.005268      0.176832
     5   Atom        0.013287      0.021357      0.160964
     6   Atom       -0.000032     -0.000051      0.179818
     7   Atom        0.000056      0.000297      0.273337
     8   Atom        0.145470     -0.030533     -0.137077
     9   Atom       -0.710953      0.167483     -0.089508
    10   Atom       -0.027870      0.006933     -0.119721
    11   Atom        0.027699     -0.007441     -0.119752
    12   Atom       -0.145671      0.029653     -0.136932
    13   Atom        0.711373     -0.171439     -0.090872
    14   Atom        0.000004     -0.000024     -0.000978
    15   Atom        0.170804      0.085227     -0.144583
    16   Atom       -0.173870     -0.082141     -0.142113
    17   Atom        0.173898      0.082124     -0.142083
    18   Atom       -0.170768     -0.085274     -0.144648
    19   Atom        0.222284     -0.044882      0.038272
    20   Atom       -0.222258      0.045218      0.038555
 --------------------------------------------------------


 ---------------------------------------------------------------------------------
              Nuclear Quadrupole Coupling Constant in Principal Axis System
 ---------------------------------------------------------------------------------

       Atom             a.u.   MegaHertz   Gauss  10(-4) cm-1        Axes

              Baa    -0.4998     2.400     0.856     0.801  1.0000  0.0000 -0.0002
     7 N(14)  Bbb    -0.4382     2.105     0.751     0.702 -0.0001  0.9792 -0.2028
              Bcc     0.9380    -4.505    -1.607    -1.503  0.0002  0.2028  0.9792
 
              Baa    -0.0881   -14.695    -5.244    -4.902  1.0000  0.0000  0.0002
    14 I(127) Bbb     0.0428     7.145     2.549     2.383 -0.0001  0.8927  0.4507
              Bcc     0.0453     7.550     2.694     2.519 -0.0002 -0.4507  0.8927
 

 ---------------------------------------------------------------------------------

 No NMR shielding tensors so no spin-rotation constants.
 Leave Link  601 at Fri Jan 17 11:55:01 2014, MaxMem=   235929600 cpu:         0.3
 FitSet:  NAtFit=    20 NAtPot=    20 NAtFrz=     0 MDM=    24 TotChg=   0.00000
 Merz-Kollman atomic radii used.
 Read replacement radii for each type of atom:
 Rad(53) =   2.700000000000D+00
 Atom Element Radius
    1     6    1.50
    2     6    1.50
    3     6    1.50
    4     6    1.50
    5     6    1.50
    6     6    1.50
    7     7    1.50
    8     6    1.50
    9     8    1.40
   10     6    1.50
   11     6    1.50
   12     6    1.50
   13     8    1.40
   14    53    2.70
   15     1    1.20
   16     1    1.20
   17     1    1.20
   18     1    1.20
   19     1    1.20
   20     1    1.20
 Generate VDW surfaces: Layer= 5 Dens= 2 Start= 1.400 Inc= 0.179

 **********************************************************************

            Electrostatic Properties Using The SCF Density

 **********************************************************************

       Atomic Center    1 is at   0.689912 -1.092209 -0.523976
       Atomic Center    2 is at  -0.704700 -1.095428 -0.516951
       Atomic Center    3 is at  -1.393640 -0.000072  0.000180
       Atomic Center    4 is at  -0.704804  1.095225  0.517558
       Atomic Center    5 is at   0.689811  1.091895  0.524982
       Atomic Center    6 is at   1.391016 -0.000152  0.000559
       Atomic Center    7 is at   2.816599  0.000021  0.000765
       Atomic Center    8 is at   3.632509 -1.132807  0.223892
       Atomic Center    9 is at   3.251949 -2.262098  0.443847
       Atomic Center   10 is at   5.049692 -0.654180  0.130396
       Atomic Center   11 is at   5.049391  0.654707 -0.132234
       Atomic Center   12 is at   3.631989  1.133018 -0.223862
       Atomic Center   13 is at   3.250813  2.262159 -0.443473
       Atomic Center   14 is at  -3.537058 -0.000014 -0.000198
       Atomic Center   15 is at   1.226211 -1.943690 -0.923016
       Atomic Center   16 is at  -1.239010 -1.948221 -0.920275
       Atomic Center   17 is at  -1.239174  1.948026  0.920782
       Atomic Center   18 is at   1.226093  1.943278  0.924262
       Atomic Center   19 is at   5.882626 -1.331711  0.267282
       Atomic Center   20 is at   5.882000  1.332430 -0.270141
      ESP Fit Center   21 is at   0.330791 -1.714225  1.449378
      ESP Fit Center   22 is at   1.049033 -1.714225  1.449378
      ESP Fit Center   23 is at   0.497808 -2.428323  1.084717
      ESP Fit Center   24 is at   1.250661 -2.320079  1.084717
      ESP Fit Center   25 is at   0.499811 -2.900900  0.526024
      ESP Fit Center   26 is at   1.251907 -2.821851  0.526024
      ESP Fit Center   27 is at   0.123950 -3.081357 -0.159315
      ESP Fit Center   28 is at   2.039766 -1.092209 -2.132669
      ESP Fit Center   29 is at   1.825481 -0.362423 -2.132669
      ESP Fit Center   30 is at   1.250661  0.135661 -2.132669
      ESP Fit Center   31 is at   0.497808  0.243905 -2.132669
      ESP Fit Center   32 is at   1.408154 -1.092209 -2.497331
      ESP Fit Center   33 is at   1.049033 -0.470193 -2.497331
      ESP Fit Center   34 is at   0.330791 -0.470193 -2.497331
      ESP Fit Center   35 is at   0.330791 -1.714225 -2.497331
      ESP Fit Center   36 is at   0.689912 -1.092209 -2.623976
      ESP Fit Center   37 is at  -0.345579 -1.717444  1.456403
      ESP Fit Center   38 is at  -0.143951 -2.323298  1.091742
      ESP Fit Center   39 is at  -0.894801 -2.904118  0.533049
      ESP Fit Center   40 is at  -0.142705 -2.825070  0.533049
      ESP Fit Center   41 is at  -0.142705  0.634214 -1.566951
      ESP Fit Center   42 is at  -0.143951  0.132442 -2.125644
      ESP Fit Center   43 is at  -0.345579 -0.473412 -2.490306
      ESP Fit Center   44 is at  -0.345579 -1.717444 -2.490306
      ESP Fit Center   45 is at  -0.704700 -1.095428 -2.616951
      ESP Fit Center   46 is at  -0.704804  1.095225  2.617558
      ESP Fit Center   47 is at  -0.345683  1.717241  2.490912
      ESP Fit Center   48 is at  -0.345683  0.473209  2.490912
      ESP Fit Center   49 is at  -0.144054 -0.132645  2.126251
      ESP Fit Center   50 is at  -0.142809 -0.634417  1.567558
      ESP Fit Center   51 is at  -0.142809  2.824867 -0.532442
      ESP Fit Center   52 is at  -0.894905  2.903916 -0.532442
      ESP Fit Center   53 is at  -0.144054  2.323095 -1.091135
      ESP Fit Center   54 is at  -0.345683  1.717241 -1.455797
      ESP Fit Center   55 is at   0.689811  1.091895  2.624982
      ESP Fit Center   56 is at   1.408053  1.091895  2.498336
      ESP Fit Center   57 is at   0.330690  1.713911  2.498336
      ESP Fit Center   58 is at   0.330690  0.469879  2.498336
      ESP Fit Center   59 is at   1.048932  0.469879  2.498336
      ESP Fit Center   60 is at   2.039665  1.091895  2.133675
      ESP Fit Center   61 is at   0.497707 -0.244219  2.133675
      ESP Fit Center   62 is at   1.250561 -0.135975  2.133675
      ESP Fit Center   63 is at   1.825380  0.362109  2.133675
      ESP Fit Center   64 is at   0.123850  3.081043  0.160321
      ESP Fit Center   65 is at   1.251806  2.821537 -0.525018
      ESP Fit Center   66 is at   0.499710  2.900586 -0.525018
      ESP Fit Center   67 is at   1.250561  2.319765 -1.083711
      ESP Fit Center   68 is at   0.497707  2.428009 -1.083711
      ESP Fit Center   69 is at   1.048932  1.713911 -1.448373
      ESP Fit Center   70 is at   0.330690  1.713911 -1.448373
      ESP Fit Center   71 is at   1.031895 -0.622168  1.973913
      ESP Fit Center   72 is at   1.750137 -0.622168  1.973913
      ESP Fit Center   73 is at   0.507050 -1.020304  1.609252
      ESP Fit Center   74 is at   1.198912 -1.336266  1.609252
      ESP Fit Center   75 is at   1.951765 -1.228022  1.609252
      ESP Fit Center   76 is at   1.951765  1.227718 -1.608134
      ESP Fit Center   77 is at   1.198912  1.335962 -1.608134
      ESP Fit Center   78 is at   0.507050  1.020000 -1.608134
      ESP Fit Center   79 is at   1.750137  0.621864 -1.972796
      ESP Fit Center   80 is at   1.031895  0.621864 -1.972796
      ESP Fit Center   81 is at   2.816599  0.000021  2.100765
      ESP Fit Center   82 is at   3.175720  0.622037  1.974119
      ESP Fit Center   83 is at   2.457478  0.622037  1.974119
      ESP Fit Center   84 is at   2.457478 -0.621995  1.974119
      ESP Fit Center   85 is at   2.457478  0.622037 -1.972590
      ESP Fit Center   86 is at   2.457478 -0.621995 -1.972590
      ESP Fit Center   87 is at   3.175720 -0.621995 -1.972590
      ESP Fit Center   88 is at   2.816599  0.000021 -2.099235
      ESP Fit Center   89 is at   3.632509 -1.132807  2.323892
      ESP Fit Center   90 is at   4.350751 -1.132807  2.197246
      ESP Fit Center   91 is at   3.991630 -0.510791  2.197246
      ESP Fit Center   92 is at   3.273388 -0.510791  2.197246
      ESP Fit Center   93 is at   2.914267 -1.132807  2.197246
      ESP Fit Center   94 is at   3.991630 -1.754823  2.197246
      ESP Fit Center   95 is at   4.768078 -1.862593  1.832585
      ESP Fit Center   96 is at   4.193258 -2.360677 -1.384801
      ESP Fit Center   97 is at   3.991630 -0.510791 -1.749463
      ESP Fit Center   98 is at   3.273388 -1.754823 -1.749463
      ESP Fit Center   99 is at   3.991630 -1.754823 -1.749463
      ESP Fit Center  100 is at   3.632509 -1.132807 -1.876108
      ESP Fit Center  101 is at   3.251949 -2.262098  2.403847
      ESP Fit Center  102 is at   4.002008 -2.262098  2.254651
      ESP Fit Center  103 is at   2.876919 -1.612527  2.254651
      ESP Fit Center  104 is at   2.501889 -2.262098  2.254651
      ESP Fit Center  105 is at   2.876919 -2.911669  2.254651
      ESP Fit Center  106 is at   3.626979 -2.911669  2.254651
      ESP Fit Center  107 is at   4.637878 -2.262098  1.829776
      ESP Fit Center  108 is at   2.051699 -1.569133  1.829776
      ESP Fit Center  109 is at   1.866020 -2.262098  1.829776
      ESP Fit Center  110 is at   2.051699 -2.955063  1.829776
      ESP Fit Center  111 is at   2.558984 -3.462348  1.829776
      ESP Fit Center  112 is at   3.251949 -3.648027  1.829776
      ESP Fit Center  113 is at   3.944913 -3.462348  1.829776
      ESP Fit Center  114 is at   4.452199 -2.955063  1.829776
      ESP Fit Center  115 is at   1.480715 -2.638585  1.193906
      ESP Fit Center  116 is at   1.786978 -3.326462  1.193906
      ESP Fit Center  117 is at   2.346547 -3.830300  1.193906
      ESP Fit Center  118 is at   3.062668 -4.062982  1.193906
      ESP Fit Center  119 is at   3.811518 -3.984275  1.193906
      ESP Fit Center  120 is at   4.463613 -3.607788  1.193906
      ESP Fit Center  121 is at   4.906200 -2.998618  1.193906
      ESP Fit Center  122 is at   1.585523 -3.293905  0.443847
      ESP Fit Center  123 is at   2.070785 -3.826212  0.443847
      ESP Fit Center  124 is at   2.715569 -4.147276  0.443847
      ESP Fit Center  125 is at   3.432795 -4.213737  0.443847
      ESP Fit Center  126 is at   4.125596 -4.016618  0.443847
      ESP Fit Center  127 is at   4.700406 -3.582541  0.443847
      ESP Fit Center  128 is at   5.079594 -2.970132  0.443847
      ESP Fit Center  129 is at   2.346547 -3.830300 -0.306213
      ESP Fit Center  130 is at   3.062668 -4.062982 -0.306213
      ESP Fit Center  131 is at   3.811518 -3.984275 -0.306213
      ESP Fit Center  132 is at   4.463613 -3.607788 -0.306213
      ESP Fit Center  133 is at   4.906200 -2.998618 -0.306213
      ESP Fit Center  134 is at   2.558984 -3.462348 -0.942082
      ESP Fit Center  135 is at   3.251949 -3.648027 -0.942082
      ESP Fit Center  136 is at   3.944913 -3.462348 -0.942082
      ESP Fit Center  137 is at   4.452199 -2.955063 -0.942082
      ESP Fit Center  138 is at   2.876919 -2.911669 -1.366957
      ESP Fit Center  139 is at   3.626979 -2.911669 -1.366957
      ESP Fit Center  140 is at   3.251949 -2.262098 -1.516153
      ESP Fit Center  141 is at   5.049692 -0.654180  2.230396
      ESP Fit Center  142 is at   5.767934 -0.654180  2.103750
      ESP Fit Center  143 is at   5.408813 -0.032164  2.103750
      ESP Fit Center  144 is at   4.690571 -0.032164  2.103750
      ESP Fit Center  145 is at   4.690571 -1.276196  2.103750
      ESP Fit Center  146 is at   5.408813 -1.276196  2.103750
      ESP Fit Center  147 is at   6.399546 -0.654180  1.739089
      ESP Fit Center  148 is at   6.185261  0.075606  1.739089
      ESP Fit Center  149 is at   4.857588 -1.990294  1.739089
      ESP Fit Center  150 is at   6.711114  0.085533  1.180396
      ESP Fit Center  151 is at   6.978134  0.092902  0.495057
      ESP Fit Center  152 is at   6.868345 -0.654180 -0.919604
      ESP Fit Center  153 is at   4.859591 -2.462871 -0.919604
      ESP Fit Center  154 is at   6.399546 -0.654180 -1.478297
      ESP Fit Center  155 is at   4.857588 -1.990294 -1.478297
      ESP Fit Center  156 is at   5.610441 -1.882050 -1.478297
      ESP Fit Center  157 is at   6.185261 -1.383966 -1.478297
      ESP Fit Center  158 is at   5.767934 -0.654180 -1.842959
      ESP Fit Center  159 is at   4.331450 -0.654180 -1.842959
      ESP Fit Center  160 is at   4.690571 -1.276196 -1.842959
      ESP Fit Center  161 is at   5.408813 -1.276196 -1.842959
      ESP Fit Center  162 is at   5.049692 -0.654180 -1.969604
      ESP Fit Center  163 is at   5.049391  0.654707  1.967766
      ESP Fit Center  164 is at   5.767633  0.654707  1.841120
      ESP Fit Center  165 is at   5.408512  1.276723  1.841120
      ESP Fit Center  166 is at   4.690270  1.276723  1.841120
      ESP Fit Center  167 is at   4.331149  0.654707  1.841120
      ESP Fit Center  168 is at   6.399245  0.654707  1.476459
      ESP Fit Center  169 is at   6.184960  1.384493  1.476459
      ESP Fit Center  170 is at   5.610141  1.882577  1.476459
      ESP Fit Center  171 is at   4.857287  1.990821  1.476459
      ESP Fit Center  172 is at   6.868044  0.654707  0.917766
      ESP Fit Center  173 is at   4.859290  2.463397  0.917766
      ESP Fit Center  174 is at   6.977833 -0.092376 -0.496895
      ESP Fit Center  175 is at   6.710813 -0.085006 -1.182234
      ESP Fit Center  176 is at   6.399245  0.654707 -1.740927
      ESP Fit Center  177 is at   4.857287  1.990821 -1.740927
      ESP Fit Center  178 is at   6.184960 -0.075079 -1.740927
      ESP Fit Center  179 is at   5.767633  0.654707 -2.105589
      ESP Fit Center  180 is at   5.408512  1.276723 -2.105589
      ESP Fit Center  181 is at   4.690270  1.276723 -2.105589
      ESP Fit Center  182 is at   4.690270  0.032691 -2.105589
      ESP Fit Center  183 is at   5.408512  0.032691 -2.105589
      ESP Fit Center  184 is at   5.049391  0.654707 -2.232234
      ESP Fit Center  185 is at   3.631989  1.133018  1.876138
      ESP Fit Center  186 is at   3.991110  1.755034  1.749492
      ESP Fit Center  187 is at   3.272868  1.755034  1.749492
      ESP Fit Center  188 is at   3.991110  0.511002  1.749492
      ESP Fit Center  189 is at   4.192739  2.360888  1.384831
      ESP Fit Center  190 is at   4.767558  1.862804 -1.832555
      ESP Fit Center  191 is at   4.350231  1.133018 -2.197217
      ESP Fit Center  192 is at   3.991110  1.755034 -2.197217
      ESP Fit Center  193 is at   2.913747  1.133018 -2.197217
      ESP Fit Center  194 is at   3.272868  0.511002 -2.197217
      ESP Fit Center  195 is at   3.991110  0.511002 -2.197217
      ESP Fit Center  196 is at   3.631989  1.133018 -2.323862
      ESP Fit Center  197 is at   3.250813  2.262159  1.516527
      ESP Fit Center  198 is at   3.625843  2.911730  1.367331
      ESP Fit Center  199 is at   2.875783  2.911730  1.367331
      ESP Fit Center  200 is at   4.451063  2.955124  0.942456
      ESP Fit Center  201 is at   3.943778  3.462409  0.942456
      ESP Fit Center  202 is at   3.250813  3.648088  0.942456
      ESP Fit Center  203 is at   2.557848  3.462409  0.942456
      ESP Fit Center  204 is at   4.905065  2.998679  0.306586
      ESP Fit Center  205 is at   4.462477  3.607849  0.306586
      ESP Fit Center  206 is at   3.810382  3.984336  0.306586
      ESP Fit Center  207 is at   3.061532  4.063043  0.306586
      ESP Fit Center  208 is at   2.345411  3.830361  0.306586
      ESP Fit Center  209 is at   5.078459  2.970193 -0.443473
      ESP Fit Center  210 is at   4.699270  3.582602 -0.443473
      ESP Fit Center  211 is at   4.124460  4.016679 -0.443473
      ESP Fit Center  212 is at   3.431659  4.213798 -0.443473
      ESP Fit Center  213 is at   2.714433  4.147337 -0.443473
      ESP Fit Center  214 is at   2.069649  3.826273 -0.443473
      ESP Fit Center  215 is at   1.584387  3.293966 -0.443473
      ESP Fit Center  216 is at   4.905065  2.998679 -1.193533
      ESP Fit Center  217 is at   4.462477  3.607849 -1.193533
      ESP Fit Center  218 is at   3.810382  3.984336 -1.193533
      ESP Fit Center  219 is at   3.061532  4.063043 -1.193533
      ESP Fit Center  220 is at   2.345411  3.830361 -1.193533
      ESP Fit Center  221 is at   1.785842  3.326523 -1.193533
      ESP Fit Center  222 is at   1.479579  2.638646 -1.193533
      ESP Fit Center  223 is at   4.636742  2.262159 -1.829402
      ESP Fit Center  224 is at   4.451063  2.955124 -1.829402
      ESP Fit Center  225 is at   3.943778  3.462409 -1.829402
      ESP Fit Center  226 is at   3.250813  3.648088 -1.829402
      ESP Fit Center  227 is at   2.557848  3.462409 -1.829402
      ESP Fit Center  228 is at   2.050563  2.955124 -1.829402
      ESP Fit Center  229 is at   1.864884  2.262159 -1.829402
      ESP Fit Center  230 is at   2.050563  1.569194 -1.829402
      ESP Fit Center  231 is at   4.000872  2.262159 -2.254277
      ESP Fit Center  232 is at   3.625843  2.911730 -2.254277
      ESP Fit Center  233 is at   2.875783  2.911730 -2.254277
      ESP Fit Center  234 is at   2.500753  2.262159 -2.254277
      ESP Fit Center  235 is at   2.875783  1.612588 -2.254277
      ESP Fit Center  236 is at   3.250813  2.262159 -2.403473
      ESP Fit Center  237 is at  -3.537058 -0.000014  3.779802
      ESP Fit Center  238 is at  -2.799617 -0.000014  3.707170
      ESP Fit Center  239 is at  -3.168337  0.638629  3.707170
      ESP Fit Center  240 is at  -3.905779  0.638629  3.707170
      ESP Fit Center  241 is at  -4.274500 -0.000014  3.707170
      ESP Fit Center  242 is at  -3.905779 -0.638657  3.707170
      ESP Fit Center  243 is at  -3.168337 -0.638657  3.707170
      ESP Fit Center  244 is at  -2.090515 -0.000014  3.492067
      ESP Fit Center  245 is at  -2.284315  0.723258  3.492067
      ESP Fit Center  246 is at  -2.813786  1.252730  3.492067
      ESP Fit Center  247 is at  -3.537058  1.446530  3.492067
      ESP Fit Center  248 is at  -4.260330  1.252730  3.492067
      ESP Fit Center  249 is at  -4.789801  0.723258  3.492067
      ESP Fit Center  250 is at  -4.983601 -0.000014  3.492067
      ESP Fit Center  251 is at  -4.789801 -0.723285  3.492067
      ESP Fit Center  252 is at  -4.260330 -1.252757  3.492067
      ESP Fit Center  253 is at  -3.537058 -1.446557  3.492067
      ESP Fit Center  254 is at  -2.813786 -1.252757  3.492067
      ESP Fit Center  255 is at  -2.284315 -0.723285  3.492067
      ESP Fit Center  256 is at  -1.437003 -0.000014  3.142757
      ESP Fit Center  257 is at  -1.563651  0.718247  3.142757
      ESP Fit Center  258 is at  -1.928322  1.349876  3.142757
      ESP Fit Center  259 is at  -2.487030  1.818688  3.142757
      ESP Fit Center  260 is at  -3.172387  2.068137  3.142757
      ESP Fit Center  261 is at  -3.901729  2.068137  3.142757
      ESP Fit Center  262 is at  -4.587086  1.818688  3.142757
      ESP Fit Center  263 is at  -5.145794  1.349876  3.142757
      ESP Fit Center  264 is at  -5.510465  0.718247  3.142757
      ESP Fit Center  265 is at  -5.637114 -0.000014  3.142757
      ESP Fit Center  266 is at  -5.510465 -0.718275  3.142757
      ESP Fit Center  267 is at  -5.145794 -1.349903  3.142757
      ESP Fit Center  268 is at  -4.587086 -1.818715  3.142757
      ESP Fit Center  269 is at  -3.901729 -2.068165  3.142757
      ESP Fit Center  270 is at  -3.172387 -2.068165  3.142757
      ESP Fit Center  271 is at  -2.487030 -1.818715  3.142757
      ESP Fit Center  272 is at  -1.928322 -1.349903  3.142757
      ESP Fit Center  273 is at  -1.563651 -0.718275  3.142757
      ESP Fit Center  274 is at  -0.864194 -0.000014  2.672666
      ESP Fit Center  275 is at  -0.963312  0.721116  2.672666
      ESP Fit Center  276 is at  -1.253312  1.388763  2.672666
      ESP Fit Center  277 is at  -1.712687  1.953411  2.672666
      ESP Fit Center  278 is at  -2.307367  2.373182  2.672666
      ESP Fit Center  279 is at  -2.993248  2.616944  2.672666
      ESP Fit Center  280 is at  -3.719461  2.666619  2.672666
      ESP Fit Center  281 is at  -4.432146  2.518521  2.672666
      ESP Fit Center  282 is at  -5.078446  2.183635  2.672666
      ESP Fit Center  283 is at  -5.610429  1.686798  2.672666
      ESP Fit Center  284 is at  -5.988639  1.064858  2.672666
      ESP Fit Center  285 is at  -6.185027  0.363941  2.672666
      ESP Fit Center  286 is at  -6.185027 -0.363969  2.672666
      ESP Fit Center  287 is at  -5.988639 -1.064886  2.672666
      ESP Fit Center  288 is at  -5.610429 -1.686826  2.672666
      ESP Fit Center  289 is at  -5.078446 -2.183663  2.672666
      ESP Fit Center  290 is at  -4.432146 -2.518549  2.672666
      ESP Fit Center  291 is at  -3.719461 -2.666646  2.672666
      ESP Fit Center  292 is at  -2.993248 -2.616972  2.672666
      ESP Fit Center  293 is at  -2.307367 -2.373210  2.672666
      ESP Fit Center  294 is at  -1.712687 -1.953439  2.672666
      ESP Fit Center  295 is at  -1.253312 -1.388791  2.672666
      ESP Fit Center  296 is at  -0.963312 -0.721144  2.672666
      ESP Fit Center  297 is at  -2.292197  2.885898  2.099857
      ESP Fit Center  298 is at  -2.991290  3.095193  2.099857
      ESP Fit Center  299 is at  -3.719805  3.137624  2.099857
      ESP Fit Center  300 is at  -4.438468  3.010904  2.099857
      ESP Fit Center  301 is at  -5.108536  2.721865  2.099857
      ESP Fit Center  302 is at  -5.693885  2.286089  2.099857
      ESP Fit Center  303 is at  -6.162959  1.727068  2.099857
      ESP Fit Center  304 is at  -6.490470  1.074940  2.099857
      ESP Fit Center  305 is at  -6.658762  0.364861  2.099857
      ESP Fit Center  306 is at  -6.658762 -0.364889  2.099857
      ESP Fit Center  307 is at  -6.490470 -1.074968  2.099857
      ESP Fit Center  308 is at  -6.162959 -1.727096  2.099857
      ESP Fit Center  309 is at  -5.693885 -2.286117  2.099857
      ESP Fit Center  310 is at  -5.108536 -2.721893  2.099857
      ESP Fit Center  311 is at  -4.438468 -3.010932  2.099857
      ESP Fit Center  312 is at  -3.719805 -3.137652  2.099857
      ESP Fit Center  313 is at  -2.991290 -3.095220  2.099857
      ESP Fit Center  314 is at  -2.292197 -2.885926  2.099857
      ESP Fit Center  315 is at  -1.660215 -2.521051  2.099857
      ESP Fit Center  316 is at  -1.129415 -2.020266  2.099857
      ESP Fit Center  317 is at  -0.728411 -1.410569  2.099857
      ESP Fit Center  318 is at  -0.478822 -0.724829  2.099857
      ESP Fit Center  319 is at  -2.457889  3.321327  1.446345
      ESP Fit Center  320 is at  -3.172017  3.473120  1.446345
      ESP Fit Center  321 is at  -3.902099  3.473120  1.446345
      ESP Fit Center  322 is at  -4.616227  3.321327  1.446345
      ESP Fit Center  323 is at  -5.283190  3.024376  1.446345
      ESP Fit Center  324 is at  -5.873839  2.595245  1.446345
      ESP Fit Center  325 is at  -6.362360  2.052688  1.446345
      ESP Fit Center  326 is at  -6.727401  1.420418  1.446345
      ESP Fit Center  327 is at  -6.953008  0.726069  1.446345
      ESP Fit Center  328 is at  -7.029323 -0.000014  1.446345
      ESP Fit Center  329 is at  -6.953008 -0.726096  1.446345
      ESP Fit Center  330 is at  -6.727401 -1.420446  1.446345
      ESP Fit Center  331 is at  -6.362360 -2.052715  1.446345
      ESP Fit Center  332 is at  -5.873839 -2.595272  1.446345
      ESP Fit Center  333 is at  -5.283190 -3.024404  1.446345
      ESP Fit Center  334 is at  -4.616227 -3.321355  1.446345
      ESP Fit Center  335 is at  -3.902099 -3.473147  1.446345
      ESP Fit Center  336 is at  -3.172017 -3.473147  1.446345
      ESP Fit Center  337 is at  -2.457889 -3.321355  1.446345
      ESP Fit Center  338 is at  -1.790926 -3.024404  1.446345
      ESP Fit Center  339 is at  -1.200277 -2.595272  1.446345
      ESP Fit Center  340 is at  -0.711757 -2.052715  1.446345
      ESP Fit Center  341 is at  -2.118310  3.425148  0.737243
      ESP Fit Center  342 is at  -2.813786  3.636119  0.737243
      ESP Fit Center  343 is at  -3.537058  3.707355  0.737243
      ESP Fit Center  344 is at  -4.260330  3.636119  0.737243
      ESP Fit Center  345 is at  -4.955807  3.425148  0.737243
      ESP Fit Center  346 is at  -5.596762  3.082550  0.737243
      ESP Fit Center  347 is at  -6.158563  2.621492  0.737243
      ESP Fit Center  348 is at  -6.619622  2.059690  0.737243
      ESP Fit Center  349 is at  -6.962220  1.418735  0.737243
      ESP Fit Center  350 is at  -7.173190  0.723258  0.737243
      ESP Fit Center  351 is at  -7.244426 -0.000014  0.737243
      ESP Fit Center  352 is at  -7.173190 -0.723285  0.737243
      ESP Fit Center  353 is at  -6.962220 -1.418762  0.737243
      ESP Fit Center  354 is at  -6.619622 -2.059717  0.737243
      ESP Fit Center  355 is at  -6.158563 -2.621519  0.737243
      ESP Fit Center  356 is at  -5.596762 -3.082578  0.737243
      ESP Fit Center  357 is at  -4.955807 -3.425176  0.737243
      ESP Fit Center  358 is at  -4.260330 -3.636146  0.737243
      ESP Fit Center  359 is at  -3.537058 -3.707382  0.737243
      ESP Fit Center  360 is at  -2.813786 -3.636146  0.737243
      ESP Fit Center  361 is at  -2.118310 -3.425176  0.737243
      ESP Fit Center  362 is at  -1.477355 -3.082578  0.737243
      ESP Fit Center  363 is at  -1.966789  3.438395 -0.000198
      ESP Fit Center  364 is at  -2.645889  3.673434 -0.000198
      ESP Fit Center  365 is at  -3.357198  3.775705 -0.000198
      ESP Fit Center  366 is at  -4.075008  3.741511 -0.000198
      ESP Fit Center  367 is at  -4.773375  3.572089 -0.000198
      ESP Fit Center  368 is at  -5.427058  3.273562 -0.000198
      ESP Fit Center  369 is at  -6.012432  2.856720 -0.000198
      ESP Fit Center  370 is at  -6.508339  2.336627 -0.000198
      ESP Fit Center  371 is at  -6.896856  1.732082 -0.000198
      ESP Fit Center  372 is at  -7.163942  1.064935 -0.000198
      ESP Fit Center  373 is at  -7.299942  0.359298 -0.000198
      ESP Fit Center  374 is at  -7.299942 -0.359326 -0.000198
      ESP Fit Center  375 is at  -7.163942 -1.064963 -0.000198
      ESP Fit Center  376 is at  -6.896856 -1.732110 -0.000198
      ESP Fit Center  377 is at  -6.508339 -2.336655 -0.000198
      ESP Fit Center  378 is at  -6.012432 -2.856747 -0.000198
      ESP Fit Center  379 is at  -5.427058 -3.273590 -0.000198
      ESP Fit Center  380 is at  -4.773375 -3.572117 -0.000198
      ESP Fit Center  381 is at  -4.075008 -3.741539 -0.000198
      ESP Fit Center  382 is at  -3.357198 -3.775732 -0.000198
      ESP Fit Center  383 is at  -2.645889 -3.673462 -0.000198
      ESP Fit Center  384 is at  -1.966789 -3.438423 -0.000198
      ESP Fit Center  385 is at  -1.477355  3.082550 -0.737639
      ESP Fit Center  386 is at  -2.118310  3.425148 -0.737639
      ESP Fit Center  387 is at  -2.813786  3.636119 -0.737639
      ESP Fit Center  388 is at  -3.537058  3.707355 -0.737639
      ESP Fit Center  389 is at  -4.260330  3.636119 -0.737639
      ESP Fit Center  390 is at  -4.955807  3.425148 -0.737639
      ESP Fit Center  391 is at  -5.596762  3.082550 -0.737639
      ESP Fit Center  392 is at  -6.158563  2.621492 -0.737639
      ESP Fit Center  393 is at  -6.619622  2.059690 -0.737639
      ESP Fit Center  394 is at  -6.962220  1.418735 -0.737639
      ESP Fit Center  395 is at  -7.173190  0.723258 -0.737639
      ESP Fit Center  396 is at  -7.244426 -0.000014 -0.737639
      ESP Fit Center  397 is at  -7.173190 -0.723285 -0.737639
      ESP Fit Center  398 is at  -6.962220 -1.418762 -0.737639
      ESP Fit Center  399 is at  -6.619622 -2.059717 -0.737639
      ESP Fit Center  400 is at  -6.158563 -2.621519 -0.737639
      ESP Fit Center  401 is at  -5.596762 -3.082578 -0.737639
      ESP Fit Center  402 is at  -4.955807 -3.425176 -0.737639
      ESP Fit Center  403 is at  -4.260330 -3.636146 -0.737639
      ESP Fit Center  404 is at  -3.537058 -3.707382 -0.737639
      ESP Fit Center  405 is at  -2.813786 -3.636146 -0.737639
      ESP Fit Center  406 is at  -2.118310 -3.425176 -0.737639
      ESP Fit Center  407 is at  -0.711757  2.052688 -1.446741
      ESP Fit Center  408 is at  -1.200277  2.595245 -1.446741
      ESP Fit Center  409 is at  -1.790926  3.024376 -1.446741
      ESP Fit Center  410 is at  -2.457889  3.321327 -1.446741
      ESP Fit Center  411 is at  -3.172017  3.473120 -1.446741
      ESP Fit Center  412 is at  -3.902099  3.473120 -1.446741
      ESP Fit Center  413 is at  -4.616227  3.321327 -1.446741
      ESP Fit Center  414 is at  -5.283190  3.024376 -1.446741
      ESP Fit Center  415 is at  -5.873839  2.595245 -1.446741
      ESP Fit Center  416 is at  -6.362360  2.052688 -1.446741
      ESP Fit Center  417 is at  -6.727401  1.420418 -1.446741
      ESP Fit Center  418 is at  -6.953008  0.726069 -1.446741
      ESP Fit Center  419 is at  -7.029323 -0.000014 -1.446741
      ESP Fit Center  420 is at  -6.953008 -0.726096 -1.446741
      ESP Fit Center  421 is at  -6.727401 -1.420446 -1.446741
      ESP Fit Center  422 is at  -6.362360 -2.052715 -1.446741
      ESP Fit Center  423 is at  -5.873839 -2.595272 -1.446741
      ESP Fit Center  424 is at  -5.283190 -3.024404 -1.446741
      ESP Fit Center  425 is at  -4.616227 -3.321355 -1.446741
      ESP Fit Center  426 is at  -3.902099 -3.473147 -1.446741
      ESP Fit Center  427 is at  -3.172017 -3.473147 -1.446741
      ESP Fit Center  428 is at  -2.457889 -3.321355 -1.446741
      ESP Fit Center  429 is at  -0.478822  0.724802 -2.100254
      ESP Fit Center  430 is at  -0.728411  1.410542 -2.100254
      ESP Fit Center  431 is at  -1.129415  2.020239 -2.100254
      ESP Fit Center  432 is at  -1.660215  2.521023 -2.100254
      ESP Fit Center  433 is at  -2.292197  2.885898 -2.100254
      ESP Fit Center  434 is at  -2.991290  3.095193 -2.100254
      ESP Fit Center  435 is at  -3.719805  3.137624 -2.100254
      ESP Fit Center  436 is at  -4.438468  3.010904 -2.100254
      ESP Fit Center  437 is at  -5.108536  2.721865 -2.100254
      ESP Fit Center  438 is at  -5.693885  2.286089 -2.100254
      ESP Fit Center  439 is at  -6.162959  1.727068 -2.100254
      ESP Fit Center  440 is at  -6.490470  1.074940 -2.100254
      ESP Fit Center  441 is at  -6.658762  0.364861 -2.100254
      ESP Fit Center  442 is at  -6.658762 -0.364889 -2.100254
      ESP Fit Center  443 is at  -6.490470 -1.074968 -2.100254
      ESP Fit Center  444 is at  -6.162959 -1.727096 -2.100254
      ESP Fit Center  445 is at  -5.693885 -2.286117 -2.100254
      ESP Fit Center  446 is at  -5.108536 -2.721893 -2.100254
      ESP Fit Center  447 is at  -4.438468 -3.010932 -2.100254
      ESP Fit Center  448 is at  -3.719805 -3.137652 -2.100254
      ESP Fit Center  449 is at  -2.991290 -3.095220 -2.100254
      ESP Fit Center  450 is at  -2.292197 -2.885926 -2.100254
      ESP Fit Center  451 is at  -0.864194 -0.000014 -2.673062
      ESP Fit Center  452 is at  -0.963312  0.721116 -2.673062
      ESP Fit Center  453 is at  -1.253312  1.388763 -2.673062
      ESP Fit Center  454 is at  -1.712687  1.953411 -2.673062
      ESP Fit Center  455 is at  -2.307367  2.373182 -2.673062
      ESP Fit Center  456 is at  -2.993248  2.616944 -2.673062
      ESP Fit Center  457 is at  -3.719461  2.666619 -2.673062
      ESP Fit Center  458 is at  -4.432146  2.518521 -2.673062
      ESP Fit Center  459 is at  -5.078446  2.183635 -2.673062
      ESP Fit Center  460 is at  -5.610429  1.686798 -2.673062
      ESP Fit Center  461 is at  -5.988639  1.064858 -2.673062
      ESP Fit Center  462 is at  -6.185027  0.363941 -2.673062
      ESP Fit Center  463 is at  -6.185027 -0.363969 -2.673062
      ESP Fit Center  464 is at  -5.988639 -1.064886 -2.673062
      ESP Fit Center  465 is at  -5.610429 -1.686826 -2.673062
      ESP Fit Center  466 is at  -5.078446 -2.183663 -2.673062
      ESP Fit Center  467 is at  -4.432146 -2.518549 -2.673062
      ESP Fit Center  468 is at  -3.719461 -2.666646 -2.673062
      ESP Fit Center  469 is at  -2.993248 -2.616972 -2.673062
      ESP Fit Center  470 is at  -2.307367 -2.373210 -2.673062
      ESP Fit Center  471 is at  -1.712687 -1.953439 -2.673062
      ESP Fit Center  472 is at  -1.253312 -1.388791 -2.673062
      ESP Fit Center  473 is at  -0.963312 -0.721144 -2.673062
      ESP Fit Center  474 is at  -1.437003 -0.000014 -3.143153
      ESP Fit Center  475 is at  -1.563651  0.718247 -3.143153
      ESP Fit Center  476 is at  -1.928322  1.349876 -3.143153
      ESP Fit Center  477 is at  -2.487030  1.818688 -3.143153
      ESP Fit Center  478 is at  -3.172387  2.068137 -3.143153
      ESP Fit Center  479 is at  -3.901729  2.068137 -3.143153
      ESP Fit Center  480 is at  -4.587086  1.818688 -3.143153
      ESP Fit Center  481 is at  -5.145794  1.349876 -3.143153
      ESP Fit Center  482 is at  -5.510465  0.718247 -3.143153
      ESP Fit Center  483 is at  -5.637114 -0.000014 -3.143153
      ESP Fit Center  484 is at  -5.510465 -0.718275 -3.143153
      ESP Fit Center  485 is at  -5.145794 -1.349903 -3.143153
      ESP Fit Center  486 is at  -4.587086 -1.818715 -3.143153
      ESP Fit Center  487 is at  -3.901729 -2.068165 -3.143153
      ESP Fit Center  488 is at  -3.172387 -2.068165 -3.143153
      ESP Fit Center  489 is at  -2.487030 -1.818715 -3.143153
      ESP Fit Center  490 is at  -1.928322 -1.349903 -3.143153
      ESP Fit Center  491 is at  -1.563651 -0.718275 -3.143153
      ESP Fit Center  492 is at  -2.090515 -0.000014 -3.492463
      ESP Fit Center  493 is at  -2.284315  0.723258 -3.492463
      ESP Fit Center  494 is at  -2.813786  1.252730 -3.492463
      ESP Fit Center  495 is at  -3.537058  1.446530 -3.492463
      ESP Fit Center  496 is at  -4.260330  1.252730 -3.492463
      ESP Fit Center  497 is at  -4.789801  0.723258 -3.492463
      ESP Fit Center  498 is at  -4.983601 -0.000014 -3.492463
      ESP Fit Center  499 is at  -4.789801 -0.723285 -3.492463
      ESP Fit Center  500 is at  -4.260330 -1.252757 -3.492463
      ESP Fit Center  501 is at  -3.537058 -1.446557 -3.492463
      ESP Fit Center  502 is at  -2.813786 -1.252757 -3.492463
      ESP Fit Center  503 is at  -2.284315 -0.723285 -3.492463
      ESP Fit Center  504 is at  -2.799617 -0.000014 -3.707566
      ESP Fit Center  505 is at  -3.168337  0.638629 -3.707566
      ESP Fit Center  506 is at  -3.905779  0.638629 -3.707566
      ESP Fit Center  507 is at  -4.274500 -0.000014 -3.707566
      ESP Fit Center  508 is at  -3.905779 -0.638657 -3.707566
      ESP Fit Center  509 is at  -3.168337 -0.638657 -3.707566
      ESP Fit Center  510 is at  -3.537058 -0.000014 -3.780198
      ESP Fit Center  511 is at   0.820324 -3.192881  0.124447
      ESP Fit Center  512 is at   0.645411 -3.475133 -0.549181
      ESP Fit Center  513 is at   1.423635 -3.569627 -0.549181
      ESP Fit Center  514 is at   0.000241 -3.029805 -1.296851
      ESP Fit Center  515 is at   0.645411 -3.475133 -1.296851
      ESP Fit Center  516 is at   1.423635 -3.569627 -1.296851
      ESP Fit Center  517 is at   2.156632 -3.291638 -1.296851
      ESP Fit Center  518 is at   2.539688 -1.943690 -1.970479
      ESP Fit Center  519 is at   2.288836 -1.171648 -1.970479
      ESP Fit Center  520 is at   0.163586 -2.715732 -1.970479
      ESP Fit Center  521 is at   0.820324 -3.192881 -1.970479
      ESP Fit Center  522 is at   1.632097 -3.192881 -1.970479
      ESP Fit Center  523 is at   2.288836 -2.715732 -1.970479
      ESP Fit Center  524 is at   1.955135 -1.943690 -2.436644
      ESP Fit Center  525 is at   1.590673 -1.312423 -2.436644
      ESP Fit Center  526 is at   0.497286 -1.943690 -2.436644
      ESP Fit Center  527 is at   0.861748 -2.574957 -2.436644
      ESP Fit Center  528 is at   1.590673 -2.574957 -2.436644
      ESP Fit Center  529 is at   1.226211 -1.943690 -2.603016
      ESP Fit Center  530 is at  -0.833124 -3.197412  0.127188
      ESP Fit Center  531 is at  -1.819810 -3.479664 -0.546440
      ESP Fit Center  532 is at  -1.041586 -3.574158 -0.546440
      ESP Fit Center  533 is at  -0.308589 -3.296169 -0.546440
      ESP Fit Center  534 is at  -1.819810 -3.479664 -1.294110
      ESP Fit Center  535 is at  -1.041586 -3.574158 -1.294110
      ESP Fit Center  536 is at  -0.308589 -3.296169 -1.294110
      ESP Fit Center  537 is at  -1.644897 -3.197412 -1.967738
      ESP Fit Center  538 is at  -0.833124 -3.197412 -1.967738
      ESP Fit Center  539 is at  -0.176385 -2.720263 -1.967738
      ESP Fit Center  540 is at  -0.510086 -1.948221 -2.433903
      ESP Fit Center  541 is at  -1.603473 -2.579488 -2.433903
      ESP Fit Center  542 is at  -0.874548 -2.579488 -2.433903
      ESP Fit Center  543 is at  -1.239010 -1.948221 -2.600275
      ESP Fit Center  544 is at  -1.239174  1.948026  2.600782
      ESP Fit Center  545 is at  -0.510249  1.948026  2.434410
      ESP Fit Center  546 is at  -0.874712  2.579293  2.434410
      ESP Fit Center  547 is at  -1.603636  2.579293  2.434410
      ESP Fit Center  548 is at  -0.176549  2.720068  1.968245
      ESP Fit Center  549 is at  -0.833287  3.197217  1.968245
      ESP Fit Center  550 is at  -1.645061  3.197217  1.968245
      ESP Fit Center  551 is at  -0.308753  3.295974  1.294617
      ESP Fit Center  552 is at  -1.041750  3.573963  1.294617
      ESP Fit Center  553 is at  -1.819974  3.479470  1.294617
      ESP Fit Center  554 is at  -0.308753  3.295974  0.546947
      ESP Fit Center  555 is at  -1.041750  3.573963  0.546947
      ESP Fit Center  556 is at  -1.819974  3.479470  0.546947
      ESP Fit Center  557 is at  -0.833287  3.197217 -0.126681
      ESP Fit Center  558 is at   1.226093  1.943278  2.604262
      ESP Fit Center  559 is at   1.955018  1.943278  2.437890
      ESP Fit Center  560 is at   1.590555  2.574545  2.437890
      ESP Fit Center  561 is at   0.861631  2.574545  2.437890
      ESP Fit Center  562 is at   0.497168  1.943278  2.437890
      ESP Fit Center  563 is at   1.590555  1.312011  2.437890
      ESP Fit Center  564 is at   2.539570  1.943278  1.971725
      ESP Fit Center  565 is at   2.288718  2.715320  1.971725
      ESP Fit Center  566 is at   1.631980  3.192469  1.971725
      ESP Fit Center  567 is at   0.820206  3.192469  1.971725
      ESP Fit Center  568 is at   0.163468  2.715320  1.971725
      ESP Fit Center  569 is at   2.288718  1.171236  1.971725
      ESP Fit Center  570 is at   2.156514  3.291226  1.298097
      ESP Fit Center  571 is at   1.423517  3.569215  1.298097
      ESP Fit Center  572 is at   0.645293  3.474721  1.298097
      ESP Fit Center  573 is at   0.000123  3.029393  1.298097
      ESP Fit Center  574 is at   1.423517  3.569215  0.550427
      ESP Fit Center  575 is at   0.645293  3.474721  0.550427
      ESP Fit Center  576 is at   0.820206  3.192469 -0.123201
      ESP Fit Center  577 is at   5.882626 -1.331711  1.947282
      ESP Fit Center  578 is at   6.611551 -1.331711  1.780910
      ESP Fit Center  579 is at   5.518163 -1.962978  1.780910
      ESP Fit Center  580 is at   6.247088 -1.962978  1.780910
      ESP Fit Center  581 is at   7.196103 -1.331711  1.314745
      ESP Fit Center  582 is at   6.945251 -0.559669  1.314745
      ESP Fit Center  583 is at   5.476739 -2.580902  1.314745
      ESP Fit Center  584 is at   6.288513 -2.580902  1.314745
      ESP Fit Center  585 is at   6.945251 -2.103753  1.314745
      ESP Fit Center  586 is at   7.520505 -1.331711  0.641117
      ESP Fit Center  587 is at   7.332896 -0.570551  0.641117
      ESP Fit Center  588 is at   5.301826 -2.863154  0.641117
      ESP Fit Center  589 is at   6.080050 -2.957648  0.641117
      ESP Fit Center  590 is at   6.813047 -2.679659  0.641117
      ESP Fit Center  591 is at   7.332896 -2.092871  0.641117
      ESP Fit Center  592 is at   7.520505 -1.331711 -0.106553
      ESP Fit Center  593 is at   7.332896 -0.570551 -0.106553
      ESP Fit Center  594 is at   5.301826 -2.863154 -0.106553
      ESP Fit Center  595 is at   6.080050 -2.957648 -0.106553
      ESP Fit Center  596 is at   6.813047 -2.679659 -0.106553
      ESP Fit Center  597 is at   7.332896 -2.092871 -0.106553
      ESP Fit Center  598 is at   7.196103 -1.331711 -0.780181
      ESP Fit Center  599 is at   6.945251 -0.559669 -0.780181
      ESP Fit Center  600 is at   5.476739 -2.580902 -0.780181
      ESP Fit Center  601 is at   6.288513 -2.580902 -0.780181
      ESP Fit Center  602 is at   6.945251 -2.103753 -0.780181
      ESP Fit Center  603 is at   6.611551 -1.331711 -1.246346
      ESP Fit Center  604 is at   6.247088 -1.962978 -1.246346
      ESP Fit Center  605 is at   6.610925  1.332430  1.243487
      ESP Fit Center  606 is at   6.246462  1.963697  1.243487
      ESP Fit Center  607 is at   7.195477  1.332430  0.777322
      ESP Fit Center  608 is at   6.944625  2.104472  0.777322
      ESP Fit Center  609 is at   6.287887  2.581621  0.777322
      ESP Fit Center  610 is at   5.476113  2.581621  0.777322
      ESP Fit Center  611 is at   6.944625  0.560388  0.777322
      ESP Fit Center  612 is at   7.519879  1.332430  0.103694
      ESP Fit Center  613 is at   7.332270  2.093590  0.103694
      ESP Fit Center  614 is at   6.812421  2.680378  0.103694
      ESP Fit Center  615 is at   6.079424  2.958367  0.103694
      ESP Fit Center  616 is at   5.301200  2.863873  0.103694
      ESP Fit Center  617 is at   7.332270  0.571270  0.103694
      ESP Fit Center  618 is at   7.519879  1.332430 -0.643976
      ESP Fit Center  619 is at   7.332270  2.093590 -0.643976
      ESP Fit Center  620 is at   6.812421  2.680378 -0.643976
      ESP Fit Center  621 is at   6.079424  2.958367 -0.643976
      ESP Fit Center  622 is at   5.301200  2.863873 -0.643976
      ESP Fit Center  623 is at   7.332270  0.571270 -0.643976
      ESP Fit Center  624 is at   7.195477  1.332430 -1.317604
      ESP Fit Center  625 is at   6.944625  2.104472 -1.317604
      ESP Fit Center  626 is at   6.287887  2.581621 -1.317604
      ESP Fit Center  627 is at   5.476113  2.581621 -1.317604
      ESP Fit Center  628 is at   6.944625  0.560388 -1.317604
      ESP Fit Center  629 is at   6.610925  1.332430 -1.783769
[...]
 3449 Fit      -0.003316
 3450 Fit      -0.003540
 3451 Fit      -0.003677
 3452 Fit      -0.003780
 3453 Fit      -0.003893
 3454 Fit      -0.004046
 3455 Fit      -0.004252
 3456 Fit      -0.004503
 3457 Fit      -0.004779
 3458 Fit      -0.005057
 3459 Fit      -0.005322
 3460 Fit      -0.005571
 3461 Fit      -0.005822
 3462 Fit      -0.006094
 3463 Fit      -0.006386
 3464 Fit      -0.006623
 3465 Fit      -0.006638
 3466 Fit      -0.006234
 3467 Fit      -0.005333
 3468 Fit      -0.004098
 3469 Fit      -0.002240
 3470 Fit      -0.000434
 3471 Fit       0.000932
 3472 Fit       0.001550
 3473 Fit       0.001421
 3474 Fit       0.000761
 3475 Fit      -0.000154
 3476 Fit      -0.001092
 3477 Fit      -0.001908
 3478 Fit      -0.002542
 3479 Fit      -0.002983
 3480 Fit      -0.003258
 3481 Fit      -0.003406
 3482 Fit      -0.003477
 3483 Fit      -0.003519
 3484 Fit      -0.003573
 3485 Fit      -0.003668
 3486 Fit      -0.003820
 3487 Fit      -0.004030
 3488 Fit      -0.004285
 3489 Fit      -0.004564
 3490 Fit      -0.004846
 3491 Fit      -0.005112
 3492 Fit      -0.005360
 3493 Fit      -0.005603
 3494 Fit      -0.005876
 3495 Fit      -0.006222
 3496 Fit      -0.006669
 3497 Fit      -0.007182
 3498 Fit      -0.007602
 3499 Fit      -0.007642
 3500 Fit      -0.007034
 3501 Fit      -0.005772
 3502 Fit      -0.004123
 3503 Fit       0.002826
 3504 Fit       0.003730
 3505 Fit       0.003597
 3506 Fit       0.002785
 3507 Fit       0.001625
 3508 Fit       0.000391
 3509 Fit      -0.000732
 3510 Fit      -0.001653
 3511 Fit      -0.002344
 3512 Fit      -0.002816
 3513 Fit      -0.003102
 3514 Fit      -0.003244
 3515 Fit      -0.003288
 3516 Fit      -0.003282
 3517 Fit      -0.003269
 3518 Fit      -0.003283
 3519 Fit      -0.003350
 3520 Fit      -0.003481
 3521 Fit      -0.003676
 3522 Fit      -0.003923
 3523 Fit      -0.004202
 3524 Fit      -0.004490
 3525 Fit      -0.004766
 3526 Fit      -0.005017
 3527 Fit      -0.005243
 3528 Fit      -0.005468
 3529 Fit      -0.005737
 3530 Fit      -0.006119
 3531 Fit      -0.006685
 3532 Fit      -0.007475
 3533 Fit      -0.008411
 3534 Fit      -0.009199
 3535 Fit      -0.009312
 3536 Fit      -0.008321
 3537 Fit      -0.006401
 3538 Fit       0.006359
 3539 Fit       0.005092
 3540 Fit       0.003594
 3541 Fit       0.002052
 3542 Fit       0.000625
 3543 Fit      -0.000586
 3544 Fit      -0.001543
 3545 Fit      -0.002249
 3546 Fit      -0.002728
 3547 Fit      -0.003015
 3548 Fit      -0.003149
 3549 Fit      -0.003174
 3550 Fit      -0.003132
 3551 Fit      -0.003065
 3552 Fit      -0.003008
 3553 Fit      -0.002991
 3554 Fit      -0.003033
 3555 Fit      -0.003143
 3556 Fit      -0.003320
 3557 Fit      -0.003553
 3558 Fit      -0.003825
 3559 Fit      -0.004111
 3560 Fit      -0.004390
 3561 Fit      -0.004643
 3562 Fit      -0.004859
 3563 Fit      -0.005045
 3564 Fit      -0.005227
 3565 Fit      -0.005457
 3566 Fit      -0.005820
 3567 Fit      -0.006425
 3568 Fit      -0.007391
 3569 Fit      -0.008784
 3570 Fit      -0.010481
 3571 Fit      -0.011941
 3572 Fit      -0.012121
 3573 Fit      -0.010214
 3574 Fit       0.007170
 3575 Fit       0.005065
 3576 Fit       0.003234
 3577 Fit       0.001597
 3578 Fit       0.000197
 3579 Fit      -0.000937
 3580 Fit      -0.001805
 3581 Fit      -0.002428
 3582 Fit      -0.002834
 3583 Fit      -0.003059
 3584 Fit      -0.003139
 3585 Fit      -0.003116
 3586 Fit      -0.003028
 3587 Fit      -0.002914
 3588 Fit      -0.002807
 3589 Fit      -0.002737
 3590 Fit      -0.002723
 3591 Fit      -0.002780
 3592 Fit      -0.002908
 3593 Fit      -0.003102
 3594 Fit      -0.003348
 3595 Fit      -0.003625
 3596 Fit      -0.003909
 3597 Fit      -0.004177
 3598 Fit      -0.004409
 3599 Fit      -0.004593
 3600 Fit      -0.004732
 3601 Fit      -0.004848
 3602 Fit      -0.004987
 3603 Fit      -0.005235
 3604 Fit      -0.005720
 3605 Fit      -0.006619
 3606 Fit      -0.008148
 3607 Fit      -0.010498
 3608 Fit      -0.013615
 3609 Fit      -0.016630
 3610 Fit       0.005159
 3611 Fit       0.003317
 3612 Fit       0.001744
 3613 Fit       0.000373
 3614 Fit      -0.000770
 3615 Fit      -0.001673
 3616 Fit      -0.002342
 3617 Fit      -0.002797
 3618 Fit      -0.003064
 3619 Fit      -0.003175
 3620 Fit      -0.003164
 3621 Fit      -0.003068
 3622 Fit      -0.002923
 3623 Fit      -0.002764
 3624 Fit      -0.002623
 3625 Fit      -0.002526
 3626 Fit      -0.002492
 3627 Fit      -0.002531
 3628 Fit      -0.002645
 3629 Fit      -0.002828
 3630 Fit      -0.003065
 3631 Fit      -0.003335
 3632 Fit      -0.003615
 3633 Fit      -0.003878
 3634 Fit      -0.004101
 3635 Fit      -0.004267
 3636 Fit      -0.004369
 3637 Fit      -0.004415
 3638 Fit      -0.004437
 3639 Fit      -0.004499
 3640 Fit      -0.004714
 3641 Fit      -0.005257
 3642 Fit      -0.006397
 3643 Fit      -0.008518
 3644 Fit      -0.012124
 3645 Fit      -0.017646
 3646 Fit       0.003209
 3647 Fit       0.002070
 3648 Fit       0.001030
 3649 Fit      -0.000004
 3650 Fit      -0.000956
 3651 Fit      -0.001766
 3652 Fit      -0.002402
 3653 Fit      -0.002858
 3654 Fit      -0.003145
 3655 Fit      -0.003279
 3656 Fit      -0.003287
 3657 Fit      -0.003197
 3658 Fit      -0.003041
 3659 Fit      -0.002852
 3660 Fit      -0.002661
 3661 Fit      -0.002496
 3662 Fit      -0.002379
 3663 Fit      -0.002328
 3664 Fit      -0.002351
 3665 Fit      -0.002449
 3666 Fit      -0.002615
 3667 Fit      -0.002835
 3668 Fit      -0.003090
 3669 Fit      -0.003356
 3670 Fit      -0.003605
 3671 Fit      -0.003813
 3672 Fit      -0.003959
 3673 Fit      -0.004027
 3674 Fit      -0.004014
 3675 Fit      -0.003933
 3676 Fit      -0.003822
 3677 Fit      -0.003756
 3678 Fit      -0.003865
 3679 Fit      -0.004365
 3680 Fit      -0.005604
 3681 Fit      -0.008137
 3682 Fit      -0.012891
 3683 Fit      -0.000995
 3684 Fit      -0.000613
 3685 Fit      -0.000773
 3686 Fit      -0.001252
 3687 Fit      -0.001844
 3688 Fit      -0.002411
 3689 Fit      -0.002880
 3690 Fit      -0.003218
 3691 Fit      -0.003415
 3692 Fit      -0.003479
 3693 Fit      -0.003430
 3694 Fit      -0.003292
 3695 Fit      -0.003095
 3696 Fit      -0.002870
 3697 Fit      -0.002647
 3698 Fit      -0.002455
 3699 Fit      -0.002316
 3700 Fit      -0.002246
 3701 Fit      -0.002254
 3702 Fit      -0.002339
 3703 Fit      -0.002495
 3704 Fit      -0.002706
 3705 Fit      -0.002950
 3706 Fit      -0.003201
 3707 Fit      -0.003430
 3708 Fit      -0.003608
 3709 Fit      -0.003709
 3710 Fit      -0.003714
 3711 Fit      -0.003611
 3712 Fit      -0.003405
 3713 Fit      -0.003120
 3714 Fit      -0.002817
 3715 Fit      -0.002607
 3716 Fit      -0.002690
 3717 Fit      -0.003390
 3718 Fit      -0.005226
 3719 Fit      -0.005240
 3720 Fit      -0.003399
 3721 Fit      -0.002696
 3722 Fit      -0.002611
 3723 Fit      -0.002819
 3724 Fit      -0.003122
 3725 Fit      -0.003406
 3726 Fit      -0.003612
 3727 Fit      -0.003714
 3728 Fit      -0.003709
 3729 Fit      -0.003608
 3730 Fit      -0.003429
 3731 Fit      -0.003200
 3732 Fit      -0.002950
 3733 Fit      -0.002706
 3734 Fit      -0.002495
 3735 Fit      -0.002339
 3736 Fit      -0.002254
 3737 Fit      -0.002246
 3738 Fit      -0.002316
 3739 Fit      -0.002455
 3740 Fit      -0.002647
 3741 Fit      -0.002870
 3742 Fit      -0.003095
 3743 Fit      -0.003292
 3744 Fit      -0.003430
 3745 Fit      -0.003479
 3746 Fit      -0.003414
 3747 Fit      -0.003217
 3748 Fit      -0.002879
 3749 Fit      -0.002410
 3750 Fit      -0.001841
 3751 Fit      -0.001248
 3752 Fit      -0.000767
 3753 Fit      -0.000604
 3754 Fit      -0.000980
 3755 Fit      -0.012906
 3756 Fit      -0.008147
 3757 Fit      -0.005610
 3758 Fit      -0.004370
 3759 Fit      -0.003868
 3760 Fit      -0.003758
 3761 Fit      -0.003824
 3762 Fit      -0.003934
 3763 Fit      -0.004014
 3764 Fit      -0.004027
 3765 Fit      -0.003959
 3766 Fit      -0.003813
 3767 Fit      -0.003605
 3768 Fit      -0.003355
 3769 Fit      -0.003090
 3770 Fit      -0.002835
 3771 Fit      -0.002614
 3772 Fit      -0.002448
 3773 Fit      -0.002350
 3774 Fit      -0.002327
 3775 Fit      -0.002379
 3776 Fit      -0.002495
 3777 Fit      -0.002660
 3778 Fit      -0.002852
 3779 Fit      -0.003041
 3780 Fit      -0.003196
 3781 Fit      -0.003286
 3782 Fit      -0.003279
 3783 Fit      -0.003144
 3784 Fit      -0.002858
 3785 Fit      -0.002401
 3786 Fit      -0.001764
 3787 Fit      -0.000954
 3788 Fit       0.000000
 3789 Fit       0.001035
 3790 Fit       0.002078
 3791 Fit       0.003221
 3792 Fit      -0.017651
 3793 Fit      -0.012130
 3794 Fit      -0.008523
 3795 Fit      -0.006400
 3796 Fit      -0.005259
 3797 Fit      -0.004715
 3798 Fit      -0.004500
 3799 Fit      -0.004437
 3800 Fit      -0.004415
 3801 Fit      -0.004369
 3802 Fit      -0.004267
 3803 Fit      -0.004101
 3804 Fit      -0.003877
 3805 Fit      -0.003614
 3806 Fit      -0.003335
 3807 Fit      -0.003064
 3808 Fit      -0.002827
 3809 Fit      -0.002644
 3810 Fit      -0.002530
 3811 Fit      -0.002491
 3812 Fit      -0.002525
 3813 Fit      -0.002622
 3814 Fit      -0.002763
 3815 Fit      -0.002922
 3816 Fit      -0.003067
 3817 Fit      -0.003164
 3818 Fit      -0.003175
 3819 Fit      -0.003064
 3820 Fit      -0.002796
 3821 Fit      -0.002341
 3822 Fit      -0.001672
 3823 Fit      -0.000769
 3824 Fit       0.000376
 3825 Fit       0.001748
 3826 Fit       0.003322
 3827 Fit       0.005166
 3828 Fit      -0.016625
 3829 Fit      -0.013614
 3830 Fit      -0.010499
 3831 Fit      -0.008149
 3832 Fit      -0.006620
 3833 Fit      -0.005721
 3834 Fit      -0.005236
 3835 Fit      -0.004987
 3836 Fit      -0.004848
 3837 Fit      -0.004732
 3838 Fit      -0.004593
 3839 Fit      -0.004408
 3840 Fit      -0.004176
 3841 Fit      -0.003908
 3842 Fit      -0.003623
 3843 Fit      -0.003347
 3844 Fit      -0.003101
 3845 Fit      -0.002907
 3846 Fit      -0.002778
 3847 Fit      -0.002722
 3848 Fit      -0.002735
 3849 Fit      -0.002806
 3850 Fit      -0.002913
 3851 Fit      -0.003027
 3852 Fit      -0.003115
 3853 Fit      -0.003139
 3854 Fit      -0.003058
 3855 Fit      -0.002833
 3856 Fit      -0.002427
 3857 Fit      -0.001804
 3858 Fit      -0.000936
 3859 Fit       0.000198
 3860 Fit       0.001599
 3861 Fit       0.003236
 3862 Fit       0.005068
 3863 Fit       0.007173
 3864 Fit      -0.010198
 3865 Fit      -0.012109
 3866 Fit      -0.011934
 3867 Fit      -0.010477
 3868 Fit      -0.008782
 3869 Fit      -0.007390
 3870 Fit      -0.006425
 3871 Fit      -0.005820
 3872 Fit      -0.005457
 3873 Fit      -0.005226
 3874 Fit      -0.005044
 3875 Fit      -0.004858
 3876 Fit      -0.004642
 3877 Fit      -0.004389
 3878 Fit      -0.004110
 3879 Fit      -0.003823
 3880 Fit      -0.003552
 3881 Fit      -0.003318
 3882 Fit      -0.003141
 3883 Fit      -0.003031
 3884 Fit      -0.002990
 3885 Fit      -0.003007
 3886 Fit      -0.003064
 3887 Fit      -0.003131
 3888 Fit      -0.003173
 3889 Fit      -0.003148
 3890 Fit      -0.003014
 3891 Fit      -0.002727
 3892 Fit      -0.002248
 3893 Fit      -0.001542
 3894 Fit      -0.000585
 3895 Fit       0.000626
 3896 Fit       0.002052
 3897 Fit       0.003595
 3898 Fit       0.005092
 3899 Fit       0.006358
 3900 Fit      -0.004108
 3901 Fit      -0.006387
 3902 Fit      -0.008309
 3903 Fit      -0.009303
 3904 Fit      -0.009193
 3905 Fit      -0.008407
 3906 Fit      -0.007472
 3907 Fit      -0.006684
 3908 Fit      -0.006118
 3909 Fit      -0.005737
 3910 Fit      -0.005467
 3911 Fit      -0.005242
 3912 Fit      -0.005016
 3913 Fit      -0.004765
 3914 Fit      -0.004489
 3915 Fit      -0.004201
 3916 Fit      -0.003921
 3917 Fit      -0.003674
 3918 Fit      -0.003479
 3919 Fit      -0.003348
 3920 Fit      -0.003282
 3921 Fit      -0.003267
 3922 Fit      -0.003281
 3923 Fit      -0.003287
 3924 Fit      -0.003243
 3925 Fit      -0.003101
 3926 Fit      -0.002815
 3927 Fit      -0.002343
 3928 Fit      -0.001652
 3929 Fit      -0.000732
 3930 Fit       0.000391
 3931 Fit       0.001625
 3932 Fit       0.002785
 3933 Fit       0.003597
 3934 Fit       0.003730
 3935 Fit       0.002828
 3936 Fit      -0.004088
 3937 Fit      -0.005762
 3938 Fit      -0.007025
 3939 Fit      -0.007635
 3940 Fit      -0.007597
 3941 Fit      -0.007179
 3942 Fit      -0.006667
 3943 Fit      -0.006220
 3944 Fit      -0.005874
 3945 Fit      -0.005602
 3946 Fit      -0.005358
 3947 Fit      -0.005111
 3948 Fit      -0.004844
 3949 Fit      -0.004562
 3950 Fit      -0.004283
 3951 Fit      -0.004028
 3952 Fit      -0.003819
 3953 Fit      -0.003666
 3954 Fit      -0.003571
 3955 Fit      -0.003518
 3956 Fit      -0.003476
 3957 Fit      -0.003405
 3958 Fit      -0.003257
 3959 Fit      -0.002982
 3960 Fit      -0.002541
 3961 Fit      -0.001908
 3962 Fit      -0.001091
 3963 Fit      -0.000154
 3964 Fit       0.000762
 3965 Fit       0.001422
 3966 Fit       0.001551
 3967 Fit       0.000935
 3968 Fit      -0.000428
 3969 Fit      -0.002232
 3970 Fit      -0.004045
 3971 Fit      -0.005325
 3972 Fit      -0.006227
 3973 Fit      -0.006633
 3974 Fit      -0.006619
 3975 Fit      -0.006383
 3976 Fit      -0.006092
 3977 Fit      -0.005820
 3978 Fit      -0.005569
 3979 Fit      -0.005320
 3980 Fit      -0.005055
 3981 Fit      -0.004777
 3982 Fit      -0.004501
 3983 Fit      -0.004250
 3984 Fit      -0.004045
 3985 Fit      -0.003891
 3986 Fit      -0.003778
 3987 Fit      -0.003676
 3988 Fit      -0.003539
 3989 Fit      -0.003315
 3990 Fit      -0.002956
 3991 Fit      -0.002437
 3992 Fit      -0.001771
 3993 Fit      -0.001041
 3994 Fit      -0.000416
 3995 Fit      -0.000131
 3996 Fit      -0.000404
 3997 Fit      -0.001288
 3998 Fit      -0.002606
 3999 Fit      -0.004064
 4000 Fit      -0.005050
 4001 Fit      -0.005719
 4002 Fit      -0.006011
 4003 Fit      -0.006015
 4004 Fit      -0.005873
 4005 Fit      -0.005675
 4006 Fit      -0.005451
 4007 Fit      -0.005202
 4008 Fit      -0.004935
 4009 Fit      -0.004666
 4010 Fit      -0.004419
 4011 Fit      -0.004211
 4012 Fit      -0.004039
 4013 Fit      -0.003876
 4014 Fit      -0.003675
 4015 Fit      -0.003386
 4016 Fit      -0.002974
 4017 Fit      -0.002454
 4018 Fit      -0.001917
 4019 Fit      -0.001541
 4020 Fit      -0.001541
 4021 Fit      -0.002043
 4022 Fit      -0.002968
 4023 Fit      -0.004149
 4024 Fit      -0.004937
 4025 Fit      -0.005434
 4026 Fit      -0.005610
 4027 Fit      -0.005568
 4028 Fit      -0.005408
 4029 Fit      -0.005181
 4030 Fit      -0.004915
 4031 Fit      -0.004645
 4032 Fit      -0.004396
 4033 Fit      -0.004167
 4034 Fit      -0.003922
 4035 Fit      -0.003608
 4036 Fit      -0.003207
 4037 Fit      -0.002792
 4038 Fit      -0.002551
 4039 Fit      -0.002699
 4040 Fit      -0.003297
 4041 Fit      -0.004273
 4042 Fit      -0.004898
 4043 Fit      -0.005221
 4044 Fit      -0.005238
 4045 Fit      -0.005066
 4046 Fit      -0.004799
 4047 Fit      -0.004506
 4048 Fit      -0.004206
 4049 Fit      -0.003871
 4050 Fit      -0.003528
 4051 Fit      -0.003369
 4052 Fit      -0.003637
 4053 Fit      -0.004400
 4054 Fit      -0.004849
 4055 Fit      -0.004843
 4056 Fit      -0.004538
 4057 Fit      -0.004169
 4058 Fit      -0.004012
 4059 Fit      -0.004497
 4060 Fit      -0.002459
 4061 Fit      -0.007751
 4062 Fit       0.001855
 4063 Fit      -0.001882
 4064 Fit       0.005477
 4065 Fit       0.002943
 4066 Fit       0.000695
 4067 Fit       0.006961
 4068 Fit       0.005321
 4069 Fit       0.004308
 4070 Fit       0.004653
 4071 Fit       0.007625
 4072 Fit       0.009160
 4073 Fit       0.006891
 4074 Fit       0.006445
 4075 Fit       0.006231
 4076 Fit       0.007289
 4077 Fit       0.006580
 4078 Fit       0.005674
 4079 Fit       0.006332
 4080 Fit       0.006565
 4081 Fit       0.006323
 4082 Fit       0.005666
 4083 Fit       0.009141
 4084 Fit       0.007279
 4085 Fit       0.006224
 4086 Fit       0.006438
 4087 Fit       0.006883
 4088 Fit       0.007617
 4089 Fit       0.004649
 4090 Fit       0.004304
 4091 Fit       0.005316
 4092 Fit       0.006955
 4093 Fit       0.000692
 4094 Fit       0.002939
 4095 Fit       0.005472
 4096 Fit      -0.001886
 4097 Fit       0.001850
 4098 Fit      -0.007759
 4099 Fit      -0.002466
 4100 Fit       0.018879
 4101 Fit       0.013590
 4102 Fit       0.017032
 4103 Fit       0.020618
 4104 Fit       0.006945
 4105 Fit       0.013016
 4106 Fit       0.016796
 4107 Fit       0.019139
 4108 Fit       0.022017
 4109 Fit       0.023384
 4110 Fit       0.005022
 4111 Fit       0.011886
 4112 Fit       0.016089
 4113 Fit       0.018800
 4114 Fit       0.020630
 4115 Fit       0.022940
 4116 Fit       0.024757
 4117 Fit       0.006921
 4118 Fit       0.013232
 4119 Fit       0.017099
 4120 Fit       0.019632
 4121 Fit       0.021422
 4122 Fit       0.023293
 4123 Fit       0.025448
 4124 Fit       0.008137
 4125 Fit       0.013864
 4126 Fit       0.017467
 4127 Fit       0.019888
 4128 Fit       0.021667
 4129 Fit       0.023018
 4130 Fit       0.008941
 4131 Fit       0.013926
 4132 Fit       0.017267
 4133 Fit       0.019599
 4134 Fit       0.021362
 4135 Fit       0.022107
 4136 Fit       0.015730
 4137 Fit       0.018387
 4138 Fit       0.020365
 4139 Fit       0.022102
 4140 Fit       0.020361
 4141 Fit       0.018383
 4142 Fit       0.015727
 4143 Fit       0.023016
 4144 Fit       0.021361
 4145 Fit       0.019598
 4146 Fit       0.017267
 4147 Fit       0.013925
 4148 Fit       0.008937
 4149 Fit       0.023294
 4150 Fit       0.021669
 4151 Fit       0.019889
 4152 Fit       0.017469
 4153 Fit       0.013868
 4154 Fit       0.008142
 4155 Fit       0.025451
 4156 Fit       0.022944
 4157 Fit       0.021427
 4158 Fit       0.019637
 4159 Fit       0.017105
 4160 Fit       0.013242
 4161 Fit       0.006935
 4162 Fit       0.024763
 4163 Fit       0.022024
 4164 Fit       0.020637
 4165 Fit       0.018807
 4166 Fit       0.016099
 4167 Fit       0.011901
 4168 Fit       0.005047
 4169 Fit       0.023392
 4170 Fit       0.020626
 4171 Fit       0.019148
 4172 Fit       0.016807
 4173 Fit       0.013033
 4174 Fit       0.006973
 4175 Fit       0.018888
 4176 Fit       0.017043
 4177 Fit       0.013606
 -----------------------------------------------------------------
 Leave Link  602 at Fri Jan 17 11:55:02 2014, MaxMem=   235929600 cpu:         1.3

 Test job not archived.
 1\1\GINC-G29\SP\RHF\Gen\C10H6I1N1O2\KOLAR\17-Jan-2014\0\\# hf/gen pseu
 do=read pop=(mk, readradii) iop(6/33=2,6/41=5,6/42=2)\\na resp\\0,1\C,
 0,-0.689912,-1.092209,0.523976\C,0,0.7047,-1.095428,0.516951\C,0,1.393
 64,-0.000072,-0.00018\C,0,0.704804,1.095225,-0.517558\C,0,-0.689811,1.
 091895,-0.524982\C,0,-1.391016,-0.000152,-0.000559\N,0,-2.816599,0.000
 021,-0.000765\C,0,-3.632509,-1.132807,-0.223892\O,0,-3.251949,-2.26209
 8,-0.443847\C,0,-5.049692,-0.65418,-0.130396\C,0,-5.049391,0.654707,0.
 132234\C,0,-3.631989,1.133018,0.223862\O,0,-3.250813,2.262159,0.443473
 \I,0,3.537058,-0.000014,0.000198\H,0,-1.226211,-1.94369,0.923016\H,0,1
 .23901,-1.948221,0.920275\H,0,1.239174,1.948026,-0.920782\H,0,-1.22609
 3,1.943278,-0.924262\H,0,-5.882626,-1.331711,-0.267282\H,0,-5.882,1.33
 243,0.270141\\Version=AM64L-G09RevD.01\State=1-A\HF=-597.509578\RMSD=5
 .948e-09\Dipole=-1.5804525,0.0002783,0.0008403\Quadrupole=14.8847597,-
 10.025784,-4.8589757,-0.0047845,-0.0086327,-5.290128\PG=C01 [X(C10H6I1
 N1O2)]\\@


 THOSE WHO TRY TO PASS CHEMISTRY OFF AS A NEW SCIENCE
 SHOW HOW LITTLE KNOWLEDGE THEY HAVE OF THE CHARACTER
 AND LITERATURE OF THE ANCIENTS.
   -- NICOLAS LEFEVRE
 "COURS DE CHYMIE" J.-N.LELOUP, PARIS, 1751
 Job cpu time:       0 days  0 hours  0 minutes 30.7 seconds.
 File lengths (MBytes):  RWF=     17 Int=      0 D2E=      0 Chk=      3 Scr=      1
 Normal termination of Gaussian 09 at Fri Jan 17 11:55:02 2014.
29.89user 0.85system 0:30.89elapsed 99%CPU (0avgtext+0avgdata 6916416maxresident)k
8inputs+39024outputs (0major+587344minor)pagefaults 0swaps
