Linux g29 2.6.38.6-client #1 SMP Tue Jun 12 11:27:21 CEST 2012 x86_64 GNU/Linux
Fri Jan 17 11:54:31 CET 2014

 Entering Gaussian System, Link 0=/usr/local/programs/common/gaussian/gaussian09_d01/arch/amd64-pgi_10.4.0-acml/g09/g09
 Initial command:
 /usr/local/programs/common/gaussian/gaussian09_d01/arch/amd64-pgi_10.4.0-acml/g09/l1.exe "/scratch/kolar/g09_19905/Gau-20973.inp" -scrdir="/scratch/kolar/g09_19905/"
 Entering Link 1 = /usr/local/programs/common/gaussian/gaussian09_d01/arch/amd64-pgi_10.4.0-acml/g09/l1.exe PID=     20977.
  
 Copyright (c) 1988,1990,1992,1993,1995,1998,2003,2009,2013,
            Gaussian, Inc.  All Rights Reserved.
  
 This is part of the Gaussian(R) 09 program.  It is based on
 the Gaussian(R) 03 system (copyright 2003, Gaussian, Inc.),
 the Gaussian(R) 98 system (copyright 1998, Gaussian, Inc.),
 the Gaussian(R) 94 system (copyright 1995, Gaussian, Inc.),
 the Gaussian 92(TM) system (copyright 1992, Gaussian, Inc.),
 the Gaussian 90(TM) system (copyright 1990, Gaussian, Inc.),
 the Gaussian 88(TM) system (copyright 1988, Gaussian, Inc.),
 the Gaussian 86(TM) system (copyright 1986, Carnegie Mellon
 University), and the Gaussian 82(TM) system (copyright 1983,
 Carnegie Mellon University). Gaussian is a federally registered
 trademark of Gaussian, Inc.
  
 This software contains proprietary and confidential information,
 including trade secrets, belonging to Gaussian, Inc.
  
 This software is provided under written license and may be
 used, copied, transmitted, or stored only in accord with that
 written license.
  
 The following legend is applicable only to US Government
 contracts under FAR:
  
                    RESTRICTED RIGHTS LEGEND
  
 Use, reproduction and disclosure by the US Government is
 subject to restrictions as set forth in subparagraphs (a)
 and (c) of the Commercial Computer Software - Restricted
 Rights clause in FAR 52.227-19.
  
 Gaussian, Inc.
 340 Quinnipiac St., Bldg. 40, Wallingford CT 06492
  
  
 ---------------------------------------------------------------
 Warning -- This program may not be used in any manner that
 competes with the business of Gaussian, Inc. or will provide
 assistance to any competitor of Gaussian, Inc.  The licensee
 of this program is prohibited from giving any competitor of
 Gaussian, Inc. access to this program.  By using this program,
 the user acknowledges that Gaussian, Inc. is engaged in the
 business of creating and licensing software in the field of
 computational chemistry and represents and warrants to the
 licensee that it is not a competitor of Gaussian, Inc. and that
 it will not use this program in any manner prohibited above.
 ---------------------------------------------------------------
  

 Cite this work as:
 Gaussian 09, Revision D.01,
 M. J. Frisch, G. W. Trucks, H. B. Schlegel, G. E. Scuseria, 
 M. A. Robb, J. R. Cheeseman, G. Scalmani, V. Barone, B. Mennucci, 
 G. A. Petersson, H. Nakatsuji, M. Caricato, X. Li, H. P. Hratchian, 
 A. F. Izmaylov, J. Bloino, G. Zheng, J. L. Sonnenberg, M. Hada, 
 M. Ehara, K. Toyota, R. Fukuda, J. Hasegawa, M. Ishida, T. Nakajima, 
 Y. Honda, O. Kitao, H. Nakai, T. Vreven, J. A. Montgomery, Jr., 
 J. E. Peralta, F. Ogliaro, M. Bearpark, J. J. Heyd, E. Brothers, 
 K. N. Kudin, V. N. Staroverov, T. Keith, R. Kobayashi, J. Normand, 
 K. Raghavachari, A. Rendell, J. C. Burant, S. S. Iyengar, J. Tomasi, 
 M. Cossi, N. Rega, J. M. Millam, M. Klene, J. E. Knox, J. B. Cross, 
 V. Bakken, C. Adamo, J. Jaramillo, R. Gomperts, R. E. Stratmann, 
 O. Yazyev, A. J. Austin, R. Cammi, C. Pomelli, J. W. Ochterski, 
 R. L. Martin, K. Morokuma, V. G. Zakrzewski, G. A. Voth, 
 P. Salvador, J. J. Dannenberg, S. Dapprich, A. D. Daniels, 
 O. Farkas, J. B. Foresman, J. V. Ortiz, J. Cioslowski, 
 and D. J. Fox, Gaussian, Inc., Wallingford CT, 2013.
 
 ******************************************
 Gaussian 09:  AM64L-G09RevD.01 24-Apr-2013
                17-Jan-2014 
 ******************************************
 %mem=1800mb
 ------------------------------------------------------------------
 # hf/gen pseudo=read pop=(mk, readradii) iop(6/33=2,6/41=5,6/42=2)
 ------------------------------------------------------------------
 1/38=1/1;
 2/12=2,17=6,18=5,40=1/2;
 3/5=7,11=9,16=1,17=8,25=1,30=1/1,2,3;
 4//1;
 5/5=2,38=5/2;
 6/7=2,8=2,9=2,10=2,15=8,20=101,28=1,33=2,41=5,42=2/1,2;
 99/5=1,9=1/99;
 -------
 na resp
 -------
 Symbolic Z-matrix:
 Charge =  0 Multiplicity = 1
 6                    -2.27645   1.20798   0.00002 
 6                    -0.88375   1.20829   0.00002 
 6                    -0.18821  0.         0.00002 
 6                    -0.88375  -1.20829   0.00003 
 6                    -2.27645  -1.20798   0.00001 
 6                    -2.99965  0.        -0.00001 
 7                    -4.37648   0.       -0.00004 
 53                    1.95856   0.       -0.00001 
 1                    -2.81125   2.1551    0.00007 
 1                    -0.35139   2.15356   0.00003 
 1                    -0.3514   -2.15356   0.00007 
 1                    -2.81125  -2.15511   0.00002 
 1                    -4.89663   0.86133  -0.00009 
 1                    -4.89663  -0.86133   0.00003 
 
                          Input orientation:                          
 ---------------------------------------------------------------------
 Center     Atomic      Atomic             Coordinates (Angstroms)
 Number     Number       Type             X           Y           Z
 ---------------------------------------------------------------------
      1          6           0       -2.276445    1.207979    0.000023
      2          6           0       -0.883746    1.208289    0.000022
      3          6           0       -0.188213   -0.000001    0.000023
      4          6           0       -0.883746   -1.208290    0.000027
      5          6           0       -2.276446   -1.207980    0.000010
      6          6           0       -2.999650   -0.000001   -0.000010
      7          7           0       -4.376482    0.000001   -0.000043
      8         53           0        1.958555    0.000000   -0.000007
      9          1           0       -2.811250    2.155105    0.000071
     10          1           0       -0.351394    2.153558    0.000032
     11          1           0       -0.351396   -2.153559    0.000065
     12          1           0       -2.811249   -2.155106    0.000018
     13          1           0       -4.896626    0.861333   -0.000094
     14          1           0       -4.896628   -0.861330    0.000029
 ---------------------------------------------------------------------
                    Distance matrix (angstroms):
                    1          2          3          4          5
     1  C    0.000000
     2  C    1.392699   0.000000
     3  C    2.412453   1.394177   0.000000
     4  C    2.788901   2.416579   1.394177   0.000000
     5  C    2.415959   2.788901   2.412453   1.392700   0.000000
     6  C    1.407921   2.436599   2.811437   2.436598   1.407919
     7  N    2.422677   3.695831   4.188269   3.695832   2.422678
     8  I    4.403912   3.088468   2.146768   3.088469   4.403913
     9  H    1.087687   2.147494   3.394820   3.876557   3.405342
    10  H    2.144747   1.084865   2.159732   3.403736   3.873727
    11  H    3.873726   3.403736   2.159732   1.084864   2.144746
    12  H    3.405342   3.876557   3.394819   2.147494   1.087686
    13  H    2.643012   4.027851   4.786549   4.515146   3.338772
    14  H    3.338772   4.515146   4.786550   4.027853   2.643013
                    6          7          8          9         10
     6  C    0.000000
     7  N    1.376832   0.000000
     8  I    4.958205   6.335037   0.000000
     9  H    2.163325   2.663536   5.234073   0.000000
    10  H    3.413367   4.564991   3.158113   2.459856   0.000000
    11  H    3.413365   4.564990   3.158115   4.961398   4.307117
    12  H    2.163324   2.663539   5.234072   4.310211   4.961398
    13  H    2.083366   1.006202   6.909081   2.454107   4.725355
    14  H    2.083366   1.006202   6.909083   3.667108   5.454237
                   11         12         13         14
    11  H    0.000000
    12  H    2.459853   0.000000
    13  H    5.454236   3.667111   0.000000
    14  H    4.725356   2.454111   1.722663   0.000000
 Stoichiometry    C6H6IN
 Framework group  C1[X(C6H6IN)]
 Deg. of freedom    36
 Full point group                 C1      NOp   1
 Largest Abelian subgroup         C1      NOp   1
 Largest concise Abelian subgroup C1      NOp   1
                         Standard orientation:                         
 ---------------------------------------------------------------------
 Center     Atomic      Atomic             Coordinates (Angstroms)
 Number     Number       Type             X           Y           Z
 ---------------------------------------------------------------------
      1          6           0        2.276445   -1.207979    0.000023
      2          6           0        0.883746   -1.208289    0.000022
      3          6           0        0.188213    0.000001    0.000023
      4          6           0        0.883746    1.208290    0.000027
      5          6           0        2.276446    1.207980    0.000010
      6          6           0        2.999650    0.000001   -0.000010
      7          7           0        4.376482   -0.000001   -0.000043
      8         53           0       -1.958555    0.000000   -0.000007
      9          1           0        2.811250   -2.155105    0.000071
     10          1           0        0.351394   -2.153558    0.000032
     11          1           0        0.351396    2.153559    0.000065
     12          1           0        2.811249    2.155106    0.000018
     13          1           0        4.896626   -0.861333   -0.000094
     14          1           0        4.896628    0.861330    0.000029
 ---------------------------------------------------------------------
 Rotational constants (GHZ):      5.5988044      0.4784779      0.4408063
 General basis read from cards:  (5D, 7F)
 ======================================================================================================
                                       Pseudopotential Parameters
 ======================================================================================================
  Center     Atomic      Valence      Angular      Power
  Number     Number     Electrons     Momentum     of R      Exponent        Coefficient   SO-Coeffient
 ======================================================================================================
    1          6
                                   No pseudopotential on this center.
    2          6
                                   No pseudopotential on this center.
    3          6
                                   No pseudopotential on this center.
    4          6
                                   No pseudopotential on this center.
    5          6
                                   No pseudopotential on this center.
    6          6
                                   No pseudopotential on this center.
    7          7
                                   No pseudopotential on this center.
    8         53            7
                                      F and up 
                                                     0        1.0715702       -0.07476210    0.00000000
                                                     1       44.1936028      -30.08112240    0.00000000
                                                     2       12.9367609      -75.37227210    0.00000000
                                                     2        3.1956412      -22.05637580    0.00000000
                                                     2        0.8589806       -1.69795850    0.00000000
                                      S - F
                                                     0      127.9202670        2.93800360    0.00000000
                                                     1       78.6211465       41.24712670    0.00000000
                                                     2       36.5146237      287.86800950    0.00000000
                                                     2        9.9065681      114.37585060    0.00000000
                                                     2        1.9420086       37.65477140    0.00000000
                                      P - F
                                                     0       13.0035304        2.22226300    0.00000000
                                                     1       76.0331404       39.40908310    0.00000000
                                                     2       24.1961684      177.40750020    0.00000000
                                                     2        6.4053433       77.98894620    0.00000000
                                                     2        1.5851786       25.75476410    0.00000000
                                      D - F
                                                     0       40.4278108        7.05243600    0.00000000
                                                     1       28.9084375       33.30416350    0.00000000
                                                     2       15.6268936      186.94538750    0.00000000
                                                     2        4.1442856       71.96883610    0.00000000
                                                     2        0.9377235        9.36306570    0.00000000
    9          1
                                   No pseudopotential on this center.
   10          1
                                   No pseudopotential on this center.
   11          1
                                   No pseudopotential on this center.
   12          1
                                   No pseudopotential on this center.
   13          1
                                   No pseudopotential on this center.
   14          1
                                   No pseudopotential on this center.
 ======================================================================================================
 There are   125 symmetry adapted cartesian basis functions of A   symmetry.
 There are   118 symmetry adapted basis functions of A   symmetry.
   118 basis functions,   232 primitive gaussians,   125 cartesian basis functions
    28 alpha electrons       28 beta electrons
       nuclear repulsion energy       309.4435464261 Hartrees.
 NAtoms=   14 NActive=   14 NUniq=   14 SFac= 1.00D+00 NAtFMM=   60 NAOKFM=F Big=F
 Integral buffers will be    131072 words long.
 Raffenetti 1 integral format.
 Two-electron integral symmetry is turned on.
 One-electron integrals computed using PRISM.
   1 Symmetry operations used in ECPInt.
 ECPInt:  NShTT=     990 NPrTT=    5924 LenC2=     987 LenP2D=    4422.
 LDataN:  DoStor=T MaxTD1= 5 Len=  102
 NBasis=   118 RedAO= T EigKep=  4.88D-04  NBF=   118
 NBsUse=   118 1.00D-06 EigRej= -1.00D+00 NBFU=   118
 ExpMin= 1.05D-01 ExpMax= 4.17D+03 ExpMxC= 6.27D+02 IAcc=1 IRadAn=         1 AccDes= 0.00D+00
 Harris functional with IExCor=  205 and IRadAn=       1 diagonalized for initial guess.
 HarFok:  IExCor=  205 AccDes= 0.00D+00 IRadAn=         1 IDoV= 1 UseB2=F ITyADJ=14
 ICtDFT=  3500011 ScaDFX=  1.000000  1.000000  1.000000  1.000000
 Defaulting to unpruned grid for atomic number  53.
 FoFCou: FMM=F IPFlag=           0 FMFlag=      100000 FMFlg1=           0
         NFxFlg=           0 DoJE=T BraDBF=F KetDBF=T FulRan=T
         wScrn=  0.000000 ICntrl=     500 IOpCl=  0 I1Cent=   200000004 NGrid=           0
         NMat0=    1 NMatS0=      1 NMatT0=    0 NMatD0=    1 NMtDS0=    0 NMtDT0=    0
 Petite list used in FoFCou.
 Keep R1 ints in memory in canonical form, NReq=25717971.
 Requested convergence on RMS density matrix=1.00D-08 within 128 cycles.
 Requested convergence on MAX density matrix=1.00D-06.
 Requested convergence on             energy=1.00D-06.
 No special actions if energy rises.
 SCF Done:  E(RHF) =  -296.294880455     A.U. after   14 cycles
            NFock= 14  Conv=0.42D-08     -V/T= 2.0291

 **********************************************************************

            Population analysis using the SCF density.

 **********************************************************************

 Orbital symmetries:
 BldTbl:  Degeneracy threshold= 1.00D-02
       Occupied  (A) (A) (A) (A) (A) (A) (A) (A) (A) (A) (A) (A)
                 (A) (A) (A) (A) (A) (A) (A) (A) (A) (A) (A) (A)
                 (A) (A) (A) (A)
       Virtual   (A) (A) (A) (A) (A) (A) (A) (A) (A) (A) (A) (A)
                 (A) (A) (A) (A) (A) (A) (A) (A) (A) (A) (A) (A)
                 (A) (A) (A) (A) (A) (A) (A) (A) (A) (A) (A) (A)
                 (A) (A) (A) (A) (A) (A) (A) (A) (A) (A) (A) (A)
                 (A) (A) (A) (A) (A) (A) (A) (A) (A) (A) (A) (A)
                 (A) (A) (A) (A) (A) (A) (A) (A) (A) (A) (A) (A)
                 (A) (A) (A) (A) (A) (A) (A) (A) (A) (A) (A) (A)
                 (A) (A) (A) (A) (A) (A)
 The electronic state is 1-A.
 Alpha  occ. eigenvalues --  -15.57341 -11.29500 -11.27533 -11.25130 -11.25126
 Alpha  occ. eigenvalues --  -11.23272 -11.23271  -1.23290  -1.13828  -1.02210
 Alpha  occ. eigenvalues --   -1.00100  -0.87150  -0.84434  -0.79774  -0.71440
 Alpha  occ. eigenvalues --   -0.70625  -0.63244  -0.61029  -0.59220  -0.59129
 Alpha  occ. eigenvalues --   -0.54238  -0.50245  -0.46499  -0.44500  -0.36599
 Alpha  occ. eigenvalues --   -0.35857  -0.34510  -0.28318
 Alpha virt. eigenvalues --    0.12039   0.13510   0.15461   0.21788   0.25789
 Alpha virt. eigenvalues --    0.26073   0.30924   0.32057   0.34272   0.36145
 Alpha virt. eigenvalues --    0.42522   0.45503   0.48089   0.50679   0.53982
 Alpha virt. eigenvalues --    0.55046   0.56109   0.57613   0.66946   0.72880
 Alpha virt. eigenvalues --    0.75072   0.76829   0.80164   0.81469   0.82232
 Alpha virt. eigenvalues --    0.83189   0.83908   0.84507   0.86401   0.90172
 Alpha virt. eigenvalues --    0.91423   0.91692   0.92659   0.99879   1.01639
 Alpha virt. eigenvalues --    1.10374   1.11670   1.11722   1.16154   1.17377
 Alpha virt. eigenvalues --    1.17798   1.22536   1.23615   1.25374   1.26895
 Alpha virt. eigenvalues --    1.30942   1.35037   1.41892   1.42514   1.49324
 Alpha virt. eigenvalues --    1.50309   1.58920   1.68333   1.69976   1.73093
 Alpha virt. eigenvalues --    1.76656   1.77941   1.78297   1.84507   1.94902
 Alpha virt. eigenvalues --    1.97038   2.06915   2.07505   2.14158   2.25334
 Alpha virt. eigenvalues --    2.25681   2.29625   2.34257   2.36729   2.40980
 Alpha virt. eigenvalues --    2.45170   2.48271   2.54830   2.57380   2.61546
 Alpha virt. eigenvalues --    2.63053   2.71661   2.78777   2.78810   2.92394
 Alpha virt. eigenvalues --    2.93303   2.98413   3.01866   3.08493   3.10202
 Alpha virt. eigenvalues --    3.20864   3.21441   3.49718   3.74358  10.25438
          Condensed to atoms (all electrons):
               1          2          3          4          5          6
     1  C    5.020428   0.512929  -0.016130  -0.052473  -0.023654   0.534908
     2  C    0.512929   4.894702   0.467166  -0.009730  -0.052473  -0.004775
     3  C   -0.016130   0.467166   5.391066   0.467167  -0.016130  -0.061627
     4  C   -0.052473  -0.009730   0.467167   4.894701   0.512928  -0.004775
     5  C   -0.023654  -0.052473  -0.016130   0.512928   5.020428   0.534909
     6  C    0.534908  -0.004775  -0.061627  -0.004775   0.534909   4.457877
     7  N   -0.064373   0.003565  -0.000138   0.003565  -0.064373   0.260831
     8  I   -0.000706  -0.052694   0.247639  -0.052694  -0.000706   0.001465
     9  H    0.382010  -0.030201   0.004172  -0.000231   0.003104  -0.037664
    10  H   -0.027312   0.382814  -0.027780   0.002382   0.000151   0.001884
    11  H    0.000151   0.002382  -0.027780   0.382814  -0.027312   0.001884
    12  H    0.003104  -0.000231   0.004173  -0.030201   0.382010  -0.037664
    13  H   -0.000492   0.000028   0.000008  -0.000084   0.002583  -0.028144
    14  H    0.002583  -0.000084   0.000008   0.000028  -0.000492  -0.028144
               7          8          9         10         11         12
     1  C   -0.064373  -0.000706   0.382010  -0.027312   0.000151   0.003104
     2  C    0.003565  -0.052694  -0.030201   0.382814   0.002382  -0.000231
     3  C   -0.000138   0.247639   0.004172  -0.027780  -0.027780   0.004173
     4  C    0.003565  -0.052694  -0.000231   0.002382   0.382814  -0.030201
     5  C   -0.064373  -0.000706   0.003104   0.000151  -0.027312   0.382010
     6  C    0.260831   0.001465  -0.037664   0.001884   0.001884  -0.037664
     7  N    7.201639   0.000009  -0.002767  -0.000068  -0.000068  -0.002767
     8  I    0.000009   6.696168  -0.000179   0.000378   0.000378  -0.000179
     9  H   -0.002767  -0.000179   0.480323  -0.002123   0.000007  -0.000103
    10  H   -0.000068   0.000378  -0.002123   0.446165  -0.000088   0.000007
    11  H   -0.000068   0.000378   0.000007  -0.000088   0.446165  -0.002123
    12  H   -0.002767  -0.000179  -0.000103   0.000007  -0.002123   0.480323
    13  H    0.335148   0.000000   0.003165  -0.000005   0.000002  -0.000061
    14  H    0.335148   0.000000  -0.000061   0.000002  -0.000005   0.003165
              13         14
     1  C   -0.000492   0.002583
     2  C    0.000028  -0.000084
     3  C    0.000008   0.000008
     4  C   -0.000084   0.000028
     5  C    0.002583  -0.000492
     6  C   -0.028144  -0.028144
     7  N    0.335148   0.335148
     8  I    0.000000   0.000000
     9  H    0.003165  -0.000061
    10  H   -0.000005   0.000002
    11  H    0.000002  -0.000005
    12  H   -0.000061   0.003165
    13  H    0.311910  -0.017795
    14  H   -0.017795   0.311910
 Mulliken charges:
               1
     1  C   -0.270973
     2  C   -0.113398
     3  C   -0.431814
     4  C   -0.113398
     5  C   -0.270973
     6  C    0.409033
     7  N   -1.005352
     8  I    0.161123
     9  H    0.200548
    10  H    0.223593
    11  H    0.223593
    12  H    0.200548
    13  H    0.393735
    14  H    0.393735
 Sum of Mulliken charges =   0.00000
 Mulliken charges with hydrogens summed into heavy atoms:
               1
     1  C   -0.070425
     2  C    0.110195
     3  C   -0.431814
     4  C    0.110195
     5  C   -0.070425
     6  C    0.409033
     7  N   -0.217882
     8  I    0.161123
 DipInt: DoE/N= T F RetVal/Mat= T F Init=T NMatP=  1 IDeriv=0 Min/MaxMlt=  0  4
 Entering OneElI...
 OneElI was handed   235887347 working-precision words.
 Multipole integrals L=0 to 4 MinM= 0 MaxM= 0.
 Requested accuracy = 0.1000D-12
 ShPair: Thresh= 1.00D-13 NBox=     0 BxSize= 0.00D+00 RnKept= 1.31D+01
         NSMCal=                  990 NSMKep=                 967
 PrsmSu:  NPrtUS=   1 ThrOK=F IAlg=1 NPAlg=1 LenDen=           0.
 Prism:   IPart=     0 DynPar=F LinDyn=F Incr=           9.
 PRISM was handed   235794909 working-precision words and   967 shell-pairs
 IPart=  0 NShTot=         967 NBatch=          64 AvBLen=        15.1
 PrSmSu:  NxtVal=             10.
 Electronic moments (au):
        -56.00000000       -168.67529511         -0.00001176         -0.00058723
      -1284.89032180       -237.17522122        -50.07115494          0.00003780
          0.00277486          0.00016004      -7641.89567775         -0.00028854
         -0.00087025       -655.03040597          0.00084498          0.04201799
        -74.14860254         -0.00000213         -0.00976128          0.00113210
     -64502.70540372      -2572.60762128       -232.85040210          0.00898535
          0.39167289         -0.00085249          0.00307279          0.00365475
          0.00051604      -3611.68524734      -1059.71985034       -205.63951084
         -0.00106963         -0.02442684          0.00002121
 Electronic spatial extent (au):  <R**2>=           1572.1367
 DipInt: DoE/N= F T RetVal/Mat= T F Init=T NMatP=  1 IDeriv=0 Min/MaxMlt=  0  4
 Nuclear    moments (au):
         56.00000000        170.25207930          0.00001109          0.00062468
       1252.34516510        196.68892296          0.00000017         -0.00004106
         -0.00255537          0.00001720       7594.25127290          0.00029474
          0.00000000        620.73374612         -0.00091971         -0.04144123
          0.00000093         -0.00000008          0.01027702          0.00027116
      60716.26141034       1764.83737707          0.00000000         -0.00931875
         -0.38005688          0.00083365         -0.00263806          0.00000000
          0.00000000       2736.17812892          0.00000711          0.00000092
          0.01512862          0.02683026         -0.00000083
 Total      moments (au):
          0.00000000          1.57678419         -0.00000066          0.00003746
        -32.54515669        -40.48629826        -50.07115477         -0.00000326
          0.00021949          0.00017725        -47.64440485          0.00000620
         -0.00087025        -34.29665986         -0.00007473          0.00057676
        -74.14860161         -0.00000221          0.00051574          0.00140327
      -3786.44399338       -807.77024420       -232.85040210         -0.00033340
          0.01161601         -0.00001883          0.00043473          0.00365475
          0.00051604       -875.50711842      -1059.71984323       -205.63950992
          0.01405899          0.00240342          0.00002038
 Traceless Quadrup. (au):
          8.48904655          0.54790498         -9.03695153         -0.00000326
          0.00021949          0.00017725
 Charge=              0.0000 electrons
 Dipole moment (field-independent basis, Debye):
    X=              4.0078    Y=              0.0000    Z=              0.0001  Tot=              4.0078
 Quadrupole moment (field-independent basis, Debye-Ang):
   XX=            -43.7743   YY=            -54.4555   ZZ=            -67.3474
   XY=              0.0000   XZ=              0.0003   YZ=              0.0002
 Traceless Quadrupole moment (field-independent basis, Debye-Ang):
   XX=             11.4181   YY=              0.7370   ZZ=            -12.1550
   XY=              0.0000   XZ=              0.0003   YZ=              0.0002
 Octapole moment (field-independent basis, Debye-Ang**2):
  XXX=            -33.9114  YYY=              0.0000  ZZZ=             -0.0006  XYY=            -24.4110
  XXY=             -0.0001  XXZ=              0.0004  XZZ=            -52.7761  YZZ=              0.0000
  YYZ=              0.0004  XYZ=              0.0010
 Hexadecapole moment (field-independent basis, Debye-Ang**3):
 XXXX=          -1426.1563 YYYY=           -304.2450 ZZZZ=            -87.7026 XXXY=             -0.0001
 XXXZ=              0.0044 YYYX=              0.0000 YYYZ=              0.0002 ZZZX=              0.0014
 ZZZY=              0.0002 XXYY=           -329.7579 XXZZ=           -399.1413 YYZZ=            -77.4537
 XXYZ=              0.0053 YYXZ=              0.0009 ZZXY=              0.0000
 N-N= 3.094435464261D+02 E-N=-1.305050092264D+03  KE= 2.879214495902D+02
 Entering OneElI...
 OneElI was handed   235896455 working-precision words.
 Calculate electrostatic properties
    NBasis =   118  MinDer = 0  MaxDer = 0
    NGrid  =    14  NMatD  =   1
 Requested accuracy = 0.1000D-12
 ShPair: Thresh= 1.00D-13 NBox=     0 BxSize= 0.00D+00 RnKept= 1.31D+01
         NSMCal=                  990 NSMKep=                 935
 PrsmSu:  NPrtUS=   1 ThrOK=F IAlg=1 NPAlg=1 LenDen=           0.
 Prism:   IPart=     0 DynPar=F LinDyn=F Incr=         130.
 PRISM was handed   235808525 working-precision words and   935 shell-pairs
 IPart=  0 NShTot=       13090 NBatch=         935 AvBLen=        14.0
 PrSmSu:  NxtVal=            131.
 --------------------------------------------------------
       Center         ----      EFG at Nuclei      ----
                      3XX-RR        3YY-RR        3ZZ-RR
 --------------------------------------------------------
     1   Atom        0.110183      0.048619     -0.158802
     2   Atom        0.205279      0.160922     -0.366201
     3   Atom       -0.343222      0.308997      0.034225
     4   Atom        0.205279      0.160923     -0.366202
     5   Atom        0.110181      0.048620     -0.158801
     6   Atom        0.028778      0.357820     -0.386598
     7   Atom       -0.644613     -0.568358      1.212971
     8   Atom       -0.085311      0.040655      0.044656
     9   Atom        0.026750     -0.200362      0.173612
    10   Atom        0.035286     -0.200301      0.165015
    11   Atom        0.035286     -0.200302      0.165016
    12   Atom        0.026751     -0.200364      0.173613
    13   Atom        0.007561     -0.262723      0.255162
    14   Atom        0.007559     -0.262721      0.255162
 --------------------------------------------------------
                        XY            XZ            YZ
 --------------------------------------------------------
     1   Atom        0.008894      0.000004      0.000000
     2   Atom        0.007257      0.000002     -0.000006
     3   Atom        0.000000     -0.000003      0.000001
     4   Atom       -0.007257     -0.000006      0.000010
     5   Atom       -0.008894     -0.000009      0.000007
     6   Atom        0.000000     -0.000010     -0.000002
     7   Atom        0.000000      0.000019     -0.000129
     8   Atom        0.000000     -0.000002      0.000000
     9   Atom        0.191734     -0.000009      0.000018
    10   Atom       -0.191888      0.000002      0.000004
    11   Atom        0.191889      0.000008     -0.000013
    12   Atom       -0.191735     -0.000001     -0.000003
    13   Atom        0.256956      0.000016     -0.000030
    14   Atom       -0.256957     -0.000021     -0.000043
 --------------------------------------------------------


 ---------------------------------------------------------------------------------
              Nuclear Quadrupole Coupling Constant in Principal Axis System
 ---------------------------------------------------------------------------------

       Atom             a.u.   MegaHertz   Gauss  10(-4) cm-1        Axes

              Baa    -0.6446     3.096     1.105     1.033  1.0000  0.0000  0.0000
     7 N(14)  Bbb    -0.5684     2.730     0.974     0.911  0.0000  1.0000  0.0001
              Bcc     1.2130    -5.826    -2.079    -1.943  0.0000 -0.0001  1.0000
 
              Baa    -0.0853   -14.232    -5.078    -4.747  1.0000  0.0000  0.0000
     8 I(127) Bbb     0.0407     6.782     2.420     2.262  0.0000  1.0000  0.0000
              Bcc     0.0447     7.450     2.658     2.485  0.0000  0.0000  1.0000
 

 ---------------------------------------------------------------------------------

 No NMR shielding tensors so no spin-rotation constants.
 Leave Link  601 at Fri Jan 17 11:54:37 2014, MaxMem=   235929600 cpu:         0.2
 FitSet:  NAtFit=    14 NAtPot=    14 NAtFrz=     0 MDM=    18 TotChg=   0.00000
 Merz-Kollman atomic radii used.
 Read replacement radii for each type of atom:
 Rad(53) =   2.700000000000D+00
 Atom Element Radius
    1     6    1.50
    2     6    1.50
    3     6    1.50
    4     6    1.50
    5     6    1.50
    6     6    1.50
    7     7    1.50
    8    53    2.70
    9     1    1.20
   10     1    1.20
   11     1    1.20
   12     1    1.20
   13     1    1.20
   14     1    1.20
 Generate VDW surfaces: Layer= 5 Dens= 2 Start= 1.400 Inc= 0.179

 **********************************************************************

            Electrostatic Properties Using The SCF Density

 **********************************************************************

       Atomic Center    1 is at   2.276445 -1.207979  0.000023
       Atomic Center    2 is at   0.883746 -1.208289  0.000022
       Atomic Center    3 is at   0.188213  0.000001  0.000023
       Atomic Center    4 is at   0.883746  1.208290  0.000027
       Atomic Center    5 is at   2.276446  1.207980  0.000010
       Atomic Center    6 is at   2.999650  0.000001 -0.000010
       Atomic Center    7 is at   4.376482 -0.000001 -0.000043
       Atomic Center    8 is at  -1.958555  0.000000 -0.000007
       Atomic Center    9 is at   2.811250 -2.155105  0.000071
       Atomic Center   10 is at   0.351394 -2.153558  0.000032
       Atomic Center   11 is at   0.351396  2.153559  0.000065
       Atomic Center   12 is at   2.811249  2.155106  0.000018
       Atomic Center   13 is at   4.896626 -0.861333 -0.000094
       Atomic Center   14 is at   4.896628  0.861330  0.000029
      ESP Fit Center   15 is at   2.276445 -1.207979  2.100023
      ESP Fit Center   16 is at   2.994687 -1.207979  1.973377
      ESP Fit Center   17 is at   1.917324 -0.585963  1.973377
      ESP Fit Center   18 is at   1.917324 -1.829995  1.973377
      ESP Fit Center   19 is at   2.635566 -1.829995  1.973377
      ESP Fit Center   20 is at   3.626299 -1.207979  1.608716
      ESP Fit Center   21 is at   2.084341 -2.544094  1.608716
      ESP Fit Center   22 is at   3.412015 -1.937765  1.608716
      ESP Fit Center   23 is at   3.626299 -1.207979 -1.608671
      ESP Fit Center   24 is at   2.084341 -2.544094 -1.608671
      ESP Fit Center   25 is at   3.412015 -1.937765 -1.608671
      ESP Fit Center   26 is at   2.994687 -1.207979 -1.973332
      ESP Fit Center   27 is at   1.917324 -0.585963 -1.973332
      ESP Fit Center   28 is at   1.917324 -1.829995 -1.973332
      ESP Fit Center   29 is at   2.635566 -1.829995 -1.973332
      ESP Fit Center   30 is at   2.276445 -1.207979 -2.099977
      ESP Fit Center   31 is at   1.242867 -0.586273  1.973376
      ESP Fit Center   32 is at   1.242867 -1.830305  1.973376
      ESP Fit Center   33 is at   0.691642 -2.544404  1.608715
      ESP Fit Center   34 is at   1.444496 -2.436160  1.608715
      ESP Fit Center   35 is at   1.445741 -2.937931  1.050022
      ESP Fit Center   36 is at   1.445741 -2.937931 -1.049978
      ESP Fit Center   37 is at   0.691642 -2.544404 -1.608672
      ESP Fit Center   38 is at   1.444496 -2.436160 -1.608672
      ESP Fit Center   39 is at   1.242867 -0.586273 -1.973333
      ESP Fit Center   40 is at   1.242867 -1.830305 -1.973333
      ESP Fit Center   41 is at   1.538067  0.000001  1.608716
      ESP Fit Center   42 is at   1.538067  0.000001 -1.608671
      ESP Fit Center   43 is at   1.242867  1.830306  1.973381
      ESP Fit Center   44 is at   1.242867  0.586274  1.973381
      ESP Fit Center   45 is at   1.444496  2.436160  1.608720
      ESP Fit Center   46 is at   0.691642  2.544404  1.608720
      ESP Fit Center   47 is at   1.445741  2.937932  1.050027
      ESP Fit Center   48 is at   1.445741  2.937932 -1.049973
      ESP Fit Center   49 is at   1.444496  2.436160 -1.608667
      ESP Fit Center   50 is at   0.691642  2.544404 -1.608667
      ESP Fit Center   51 is at   1.242867  1.830306 -1.973328
      ESP Fit Center   52 is at   1.242867  0.586274 -1.973328
      ESP Fit Center   53 is at   2.276446  1.207980  2.100010
      ESP Fit Center   54 is at   2.994689  1.207980  1.973364
      ESP Fit Center   55 is at   2.635567  1.829996  1.973364
      ESP Fit Center   56 is at   1.917325  1.829996  1.973364
      ESP Fit Center   57 is at   1.917325  0.585964  1.973364
      ESP Fit Center   58 is at   3.626300  1.207980  1.608703
      ESP Fit Center   59 is at   3.412016  1.937766  1.608703
      ESP Fit Center   60 is at   2.084342  2.544094  1.608703
      ESP Fit Center   61 is at   3.626300  1.207980 -1.608684
      ESP Fit Center   62 is at   3.412016  1.937766 -1.608684
      ESP Fit Center   63 is at   2.084342  2.544094 -1.608684
      ESP Fit Center   64 is at   2.994689  1.207980 -1.973345
      ESP Fit Center   65 is at   2.635567  1.829996 -1.973345
      ESP Fit Center   66 is at   1.917325  1.829996 -1.973345
      ESP Fit Center   67 is at   1.917325  0.585964 -1.973345
      ESP Fit Center   68 is at   2.276446  1.207980 -2.099990
      ESP Fit Center   69 is at   2.999650  0.000001  2.099990
      ESP Fit Center   70 is at   3.358771  0.622017  1.973344
      ESP Fit Center   71 is at   2.281408  0.000001  1.973344
      ESP Fit Center   72 is at   3.358771 -0.622015  1.973344
      ESP Fit Center   73 is at   3.358771  0.622017 -1.973365
      ESP Fit Center   74 is at   2.281408  0.000001 -1.973365
      ESP Fit Center   75 is at   3.358771 -0.622015 -1.973365
      ESP Fit Center   76 is at   2.999650  0.000001 -2.100010
      ESP Fit Center   77 is at   4.376482 -0.000001  2.099957
      ESP Fit Center   78 is at   5.094725 -0.000001  1.973311
      ESP Fit Center   79 is at   4.735603  0.622015  1.973311
      ESP Fit Center   80 is at   4.017361  0.622015  1.973311
      ESP Fit Center   81 is at   4.017361 -0.622017  1.973311
      ESP Fit Center   82 is at   4.735603 -0.622017  1.973311
      ESP Fit Center   83 is at   5.726336 -0.000001  1.608650
      ESP Fit Center   84 is at   5.512052  0.729785  1.608650
      ESP Fit Center   85 is at   4.184378  1.336113  1.608650
      ESP Fit Center   86 is at   4.184378 -1.336116  1.608650
      ESP Fit Center   87 is at   5.512052 -0.729787  1.608650
      ESP Fit Center   88 is at   6.195136 -0.000001  1.049957
      ESP Fit Center   89 is at   6.444578 -0.000001  0.364618
      ESP Fit Center   90 is at   6.444578 -0.000001 -0.364704
      ESP Fit Center   91 is at   6.195136 -0.000001 -1.050043
      ESP Fit Center   92 is at   5.726336 -0.000001 -1.608737
      ESP Fit Center   93 is at   5.512052  0.729785 -1.608737
      ESP Fit Center   94 is at   4.184378  1.336113 -1.608737
      ESP Fit Center   95 is at   4.184378 -1.336116 -1.608737
      ESP Fit Center   96 is at   5.512052 -0.729787 -1.608737
      ESP Fit Center   97 is at   5.094725 -0.000001 -1.973398
      ESP Fit Center   98 is at   4.735603  0.622015 -1.973398
      ESP Fit Center   99 is at   4.017361  0.622015 -1.973398
      ESP Fit Center  100 is at   4.017361 -0.622017 -1.973398
      ESP Fit Center  101 is at   4.735603 -0.622017 -1.973398
      ESP Fit Center  102 is at   4.376482 -0.000001 -2.100043
      ESP Fit Center  103 is at  -1.958555  0.000000  3.779993
      ESP Fit Center  104 is at  -1.221113  0.000000  3.707361
      ESP Fit Center  105 is at  -1.589834  0.638643  3.707361
      ESP Fit Center  106 is at  -2.327275  0.638643  3.707361
      ESP Fit Center  107 is at  -2.695996  0.000000  3.707361
      ESP Fit Center  108 is at  -2.327275 -0.638643  3.707361
      ESP Fit Center  109 is at  -1.589834 -0.638643  3.707361
      ESP Fit Center  110 is at  -0.512011  0.000000  3.492257
      ESP Fit Center  111 is at  -0.705811  0.723272  3.492257
      ESP Fit Center  112 is at  -1.235283  1.252743  3.492257
      ESP Fit Center  113 is at  -1.958555  1.446543  3.492257
      ESP Fit Center  114 is at  -2.681826  1.252743  3.492257
      ESP Fit Center  115 is at  -3.211298  0.723272  3.492257
      ESP Fit Center  116 is at  -3.405098  0.000000  3.492257
      ESP Fit Center  117 is at  -3.211298 -0.723272  3.492257
      ESP Fit Center  118 is at  -2.681826 -1.252743  3.492257
      ESP Fit Center  119 is at  -1.958555 -1.446544  3.492257
      ESP Fit Center  120 is at  -1.235283 -1.252743  3.492257
      ESP Fit Center  121 is at  -0.705811 -0.723272  3.492257
      ESP Fit Center  122 is at   0.141501  0.000000  3.142948
      ESP Fit Center  123 is at   0.014852  0.718261  3.142948
      ESP Fit Center  124 is at  -0.349819  1.349890  3.142948
      ESP Fit Center  125 is at  -0.908527  1.818701  3.142948
      ESP Fit Center  126 is at  -1.593884  2.068151  3.142948
      ESP Fit Center  127 is at  -2.323226  2.068151  3.142948
      ESP Fit Center  128 is at  -3.008583  1.818701  3.142948
      ESP Fit Center  129 is at  -3.567291  1.349890  3.142948
      ESP Fit Center  130 is at  -3.931961  0.718261  3.142948
      ESP Fit Center  131 is at  -4.058610  0.000000  3.142948
      ESP Fit Center  132 is at  -3.931961 -0.718261  3.142948
      ESP Fit Center  133 is at  -3.567291 -1.349890  3.142948
      ESP Fit Center  134 is at  -3.008583 -1.818702  3.142948
      ESP Fit Center  135 is at  -2.323226 -2.068151  3.142948
      ESP Fit Center  136 is at  -1.593884 -2.068151  3.142948
      ESP Fit Center  137 is at  -0.908527 -1.818702  3.142948
      ESP Fit Center  138 is at  -0.349819 -1.349890  3.142948
      ESP Fit Center  139 is at   0.014852 -0.718261  3.142948
      ESP Fit Center  140 is at   0.714309  0.000000  2.672856
      ESP Fit Center  141 is at   0.615192  0.721130  2.672856
      ESP Fit Center  142 is at   0.325192  1.388777  2.672856
      ESP Fit Center  143 is at  -0.134183  1.953425  2.672856
      ESP Fit Center  144 is at  -0.728864  2.373196  2.672856
      ESP Fit Center  145 is at  -1.414745  2.616958  2.672856
      ESP Fit Center  146 is at  -2.140957  2.666632  2.672856
      ESP Fit Center  147 is at  -2.853642  2.518535  2.672856
      ESP Fit Center  148 is at  -3.499943  2.183649  2.672856
      ESP Fit Center  149 is at  -4.031925  1.686812  2.672856
      ESP Fit Center  150 is at  -4.410136  1.064872  2.672856
      ESP Fit Center  151 is at  -4.606523  0.363955  2.672856
      ESP Fit Center  152 is at  -4.606523 -0.363955  2.672856
      ESP Fit Center  153 is at  -4.410136 -1.064872  2.672856
      ESP Fit Center  154 is at  -4.031925 -1.686812  2.672856
      ESP Fit Center  155 is at  -3.499943 -2.183649  2.672856
      ESP Fit Center  156 is at  -2.853642 -2.518535  2.672856
      ESP Fit Center  157 is at  -2.140957 -2.666633  2.672856
      ESP Fit Center  158 is at  -1.414745 -2.616958  2.672856
      ESP Fit Center  159 is at  -0.728864 -2.373196  2.672856
      ESP Fit Center  160 is at  -0.134183 -1.953425  2.672856
      ESP Fit Center  161 is at   0.325192 -1.388777  2.672856
      ESP Fit Center  162 is at   0.615192 -0.721130  2.672856
      ESP Fit Center  163 is at   1.184400  0.000000  2.100048
      ESP Fit Center  164 is at   1.099682  0.724815  2.100048
      ESP Fit Center  165 is at   0.850093  1.410556  2.100048
      ESP Fit Center  166 is at   0.449089  2.020252  2.100048
      ESP Fit Center  167 is at  -0.081712  2.521037  2.100048
      ESP Fit Center  168 is at  -0.713694  2.885912  2.100048
      ESP Fit Center  169 is at  -1.412786  3.095206  2.100048
      ESP Fit Center  170 is at  -2.141301  3.137638  2.100048
      ESP Fit Center  171 is at  -2.859964  3.010918  2.100048
      ESP Fit Center  172 is at  -3.530032  2.721879  2.100048
      ESP Fit Center  173 is at  -4.115381  2.286103  2.100048
      ESP Fit Center  174 is at  -4.584455  1.727082  2.100048
      ESP Fit Center  175 is at  -4.911967  1.074954  2.100048
      ESP Fit Center  176 is at  -5.080258  0.364875  2.100048
      ESP Fit Center  177 is at  -5.080258 -0.364875  2.100048
      ESP Fit Center  178 is at  -4.911967 -1.074954  2.100048
      ESP Fit Center  179 is at  -4.584455 -1.727082  2.100048
      ESP Fit Center  180 is at  -4.115381 -2.286103  2.100048
      ESP Fit Center  181 is at  -3.530032 -2.721879  2.100048
      ESP Fit Center  182 is at  -2.859964 -3.010918  2.100048
      ESP Fit Center  183 is at  -2.141301 -3.137638  2.100048
      ESP Fit Center  184 is at  -1.412786 -3.095207  2.100048
      ESP Fit Center  185 is at  -0.713694 -2.885912  2.100048
      ESP Fit Center  186 is at  -0.081712 -2.521037  2.100048
      ESP Fit Center  187 is at   0.449089 -2.020253  2.100048
      ESP Fit Center  188 is at   0.850093 -1.410556  2.100048
      ESP Fit Center  189 is at   1.099682 -0.724815  2.100048
      ESP Fit Center  190 is at  -0.212422  3.024390  1.446536
      ESP Fit Center  191 is at  -0.879386  3.321341  1.446536
      ESP Fit Center  192 is at  -1.593514  3.473134  1.446536
      ESP Fit Center  193 is at  -2.323596  3.473134  1.446536
      ESP Fit Center  194 is at  -3.037724  3.321341  1.446536
      ESP Fit Center  195 is at  -3.704687  3.024390  1.446536
      ESP Fit Center  196 is at  -4.295336  2.595258  1.446536
      ESP Fit Center  197 is at  -4.783856  2.052702  1.446536
      ESP Fit Center  198 is at  -5.148897  1.420432  1.446536
      ESP Fit Center  199 is at  -5.374505  0.726083  1.446536
      ESP Fit Center  200 is at  -5.450819  0.000000  1.446536
      ESP Fit Center  201 is at  -5.374505 -0.726083  1.446536
      ESP Fit Center  202 is at  -5.148897 -1.420432  1.446536
      ESP Fit Center  203 is at  -4.783856 -2.052702  1.446536
      ESP Fit Center  204 is at  -4.295336 -2.595259  1.446536
      ESP Fit Center  205 is at  -3.704687 -3.024390  1.446536
      ESP Fit Center  206 is at  -3.037724 -3.321341  1.446536
      ESP Fit Center  207 is at  -2.323596 -3.473134  1.446536
      ESP Fit Center  208 is at  -1.593514 -3.473134  1.446536
      ESP Fit Center  209 is at  -0.879386 -3.321341  1.446536
      ESP Fit Center  210 is at  -0.212422 -3.024390  1.446536
      ESP Fit Center  211 is at  -0.539806  3.425162  0.737434
      ESP Fit Center  212 is at  -1.235283  3.636132  0.737434
      ESP Fit Center  213 is at  -1.958555  3.707368  0.737434
      ESP Fit Center  214 is at  -2.681826  3.636132  0.737434
      ESP Fit Center  215 is at  -3.377303  3.425162  0.737434
      ESP Fit Center  216 is at  -4.018258  3.082564  0.737434
      ESP Fit Center  217 is at  -4.580060  2.621505  0.737434
      ESP Fit Center  218 is at  -5.041119  2.059703  0.737434
      ESP Fit Center  219 is at  -5.383717  1.418748  0.737434
      ESP Fit Center  220 is at  -5.594687  0.723272  0.737434
      ESP Fit Center  221 is at  -5.665923  0.000000  0.737434
      ESP Fit Center  222 is at  -5.594687 -0.723272  0.737434
      ESP Fit Center  223 is at  -5.383717 -1.418749  0.737434
      ESP Fit Center  224 is at  -5.041119 -2.059704  0.737434
      ESP Fit Center  225 is at  -4.580060 -2.621505  0.737434
      ESP Fit Center  226 is at  -4.018258 -3.082564  0.737434
      ESP Fit Center  227 is at  -3.377303 -3.425162  0.737434
      ESP Fit Center  228 is at  -2.681826 -3.636132  0.737434
      ESP Fit Center  229 is at  -1.958555 -3.707368  0.737434
      ESP Fit Center  230 is at  -1.235283 -3.636132  0.737434
      ESP Fit Center  231 is at  -0.539806 -3.425162  0.737434
      ESP Fit Center  232 is at  -1.067386  3.673448 -0.000007
      ESP Fit Center  233 is at  -1.778695  3.775718 -0.000007
      ESP Fit Center  234 is at  -2.496505  3.741525 -0.000007
      ESP Fit Center  235 is at  -3.194872  3.572103 -0.000007
      ESP Fit Center  236 is at  -3.848555  3.273576 -0.000007
      ESP Fit Center  237 is at  -4.433928  2.856733 -0.000007
      ESP Fit Center  238 is at  -4.929835  2.336641 -0.000007
      ESP Fit Center  239 is at  -5.318353  1.732096 -0.000007
      ESP Fit Center  240 is at  -5.585438  1.064949 -0.000007
      ESP Fit Center  241 is at  -5.721439  0.359312 -0.000007
      ESP Fit Center  242 is at  -5.721439 -0.359312 -0.000007
      ESP Fit Center  243 is at  -5.585438 -1.064949 -0.000007
      ESP Fit Center  244 is at  -5.318353 -1.732096 -0.000007
      ESP Fit Center  245 is at  -4.929835 -2.336641 -0.000007
      ESP Fit Center  246 is at  -4.433928 -2.856734 -0.000007
      ESP Fit Center  247 is at  -3.848555 -3.273576 -0.000007
      ESP Fit Center  248 is at  -3.194872 -3.572103 -0.000007
      ESP Fit Center  249 is at  -2.496505 -3.741525 -0.000007
      ESP Fit Center  250 is at  -1.778695 -3.775719 -0.000007
      ESP Fit Center  251 is at  -1.067386 -3.673448 -0.000007
      ESP Fit Center  252 is at  -0.539806  3.425162 -0.737449
      ESP Fit Center  253 is at  -1.235283  3.636132 -0.737449
      ESP Fit Center  254 is at  -1.958555  3.707368 -0.737449
      ESP Fit Center  255 is at  -2.681826  3.636132 -0.737449
      ESP Fit Center  256 is at  -3.377303  3.425162 -0.737449
      ESP Fit Center  257 is at  -4.018258  3.082564 -0.737449
      ESP Fit Center  258 is at  -4.580060  2.621505 -0.737449
      ESP Fit Center  259 is at  -5.041119  2.059703 -0.737449
      ESP Fit Center  260 is at  -5.383717  1.418748 -0.737449
      ESP Fit Center  261 is at  -5.594687  0.723272 -0.737449
      ESP Fit Center  262 is at  -5.665923  0.000000 -0.737449
      ESP Fit Center  263 is at  -5.594687 -0.723272 -0.737449
      ESP Fit Center  264 is at  -5.383717 -1.418749 -0.737449
      ESP Fit Center  265 is at  -5.041119 -2.059704 -0.737449
      ESP Fit Center  266 is at  -4.580060 -2.621505 -0.737449
      ESP Fit Center  267 is at  -4.018258 -3.082564 -0.737449
      ESP Fit Center  268 is at  -3.377303 -3.425162 -0.737449
      ESP Fit Center  269 is at  -2.681826 -3.636132 -0.737449
      ESP Fit Center  270 is at  -1.958555 -3.707368 -0.737449
      ESP Fit Center  271 is at  -1.235283 -3.636132 -0.737449
      ESP Fit Center  272 is at  -0.539806 -3.425162 -0.737449
      ESP Fit Center  273 is at  -0.212422  3.024390 -1.446551
      ESP Fit Center  274 is at  -0.879386  3.321341 -1.446551
      ESP Fit Center  275 is at  -1.593514  3.473134 -1.446551
      ESP Fit Center  276 is at  -2.323596  3.473134 -1.446551
      ESP Fit Center  277 is at  -3.037724  3.321341 -1.446551
      ESP Fit Center  278 is at  -3.704687  3.024390 -1.446551
      ESP Fit Center  279 is at  -4.295336  2.595258 -1.446551
      ESP Fit Center  280 is at  -4.783856  2.052702 -1.446551
      ESP Fit Center  281 is at  -5.148897  1.420432 -1.446551
      ESP Fit Center  282 is at  -5.374505  0.726083 -1.446551
      ESP Fit Center  283 is at  -5.450819  0.000000 -1.446551
      ESP Fit Center  284 is at  -5.374505 -0.726083 -1.446551
      ESP Fit Center  285 is at  -5.148897 -1.420432 -1.446551
      ESP Fit Center  286 is at  -4.783856 -2.052702 -1.446551
      ESP Fit Center  287 is at  -4.295336 -2.595259 -1.446551
      ESP Fit Center  288 is at  -3.704687 -3.024390 -1.446551
      ESP Fit Center  289 is at  -3.037724 -3.321341 -1.446551
      ESP Fit Center  290 is at  -2.323596 -3.473134 -1.446551
      ESP Fit Center  291 is at  -1.593514 -3.473134 -1.446551
      ESP Fit Center  292 is at  -0.879386 -3.321341 -1.446551
      ESP Fit Center  293 is at  -0.212422 -3.024390 -1.446551
      ESP Fit Center  294 is at   1.184400  0.000000 -2.100063
      ESP Fit Center  295 is at   1.099682  0.724815 -2.100063
      ESP Fit Center  296 is at   0.850093  1.410556 -2.100063
      ESP Fit Center  297 is at   0.449089  2.020252 -2.100063
      ESP Fit Center  298 is at  -0.081712  2.521037 -2.100063
      ESP Fit Center  299 is at  -0.713694  2.885912 -2.100063
      ESP Fit Center  300 is at  -1.412786  3.095206 -2.100063
      ESP Fit Center  301 is at  -2.141301  3.137638 -2.100063
      ESP Fit Center  302 is at  -2.859964  3.010918 -2.100063
      ESP Fit Center  303 is at  -3.530032  2.721879 -2.100063
      ESP Fit Center  304 is at  -4.115381  2.286103 -2.100063
      ESP Fit Center  305 is at  -4.584455  1.727082 -2.100063
      ESP Fit Center  306 is at  -4.911967  1.074954 -2.100063
      ESP Fit Center  307 is at  -5.080258  0.364875 -2.100063
      ESP Fit Center  308 is at  -5.080258 -0.364875 -2.100063
      ESP Fit Center  309 is at  -4.911967 -1.074954 -2.100063
      ESP Fit Center  310 is at  -4.584455 -1.727082 -2.100063
      ESP Fit Center  311 is at  -4.115381 -2.286103 -2.100063
      ESP Fit Center  312 is at  -3.530032 -2.721879 -2.100063
      ESP Fit Center  313 is at  -2.859964 -3.010918 -2.100063
      ESP Fit Center  314 is at  -2.141301 -3.137638 -2.100063
      ESP Fit Center  315 is at  -1.412786 -3.095207 -2.100063
      ESP Fit Center  316 is at  -0.713694 -2.885912 -2.100063
      ESP Fit Center  317 is at  -0.081712 -2.521037 -2.100063
      ESP Fit Center  318 is at   0.449089 -2.020253 -2.100063
      ESP Fit Center  319 is at   0.850093 -1.410556 -2.100063
      ESP Fit Center  320 is at   1.099682 -0.724815 -2.100063
      ESP Fit Center  321 is at   0.714309  0.000000 -2.672871
      ESP Fit Center  322 is at   0.615192  0.721130 -2.672871
      ESP Fit Center  323 is at   0.325192  1.388777 -2.672871
      ESP Fit Center  324 is at  -0.134183  1.953425 -2.672871
      ESP Fit Center  325 is at  -0.728864  2.373196 -2.672871
      ESP Fit Center  326 is at  -1.414745  2.616958 -2.672871
      ESP Fit Center  327 is at  -2.140957  2.666632 -2.672871
      ESP Fit Center  328 is at  -2.853642  2.518535 -2.672871
      ESP Fit Center  329 is at  -3.499943  2.183649 -2.672871
      ESP Fit Center  330 is at  -4.031925  1.686812 -2.672871
      ESP Fit Center  331 is at  -4.410136  1.064872 -2.672871
      ESP Fit Center  332 is at  -4.606523  0.363955 -2.672871
      ESP Fit Center  333 is at  -4.606523 -0.363955 -2.672871
      ESP Fit Center  334 is at  -4.410136 -1.064872 -2.672871
      ESP Fit Center  335 is at  -4.031925 -1.686812 -2.672871
      ESP Fit Center  336 is at  -3.499943 -2.183649 -2.672871
      ESP Fit Center  337 is at  -2.853642 -2.518535 -2.672871
      ESP Fit Center  338 is at  -2.140957 -2.666633 -2.672871
      ESP Fit Center  339 is at  -1.414745 -2.616958 -2.672871
      ESP Fit Center  340 is at  -0.728864 -2.373196 -2.672871
      ESP Fit Center  341 is at  -0.134183 -1.953425 -2.672871
      ESP Fit Center  342 is at   0.325192 -1.388777 -2.672871
      ESP Fit Center  343 is at   0.615192 -0.721130 -2.672871
      ESP Fit Center  344 is at   0.141501  0.000000 -3.142962
      ESP Fit Center  345 is at   0.014852  0.718261 -3.142962
      ESP Fit Center  346 is at  -0.349819  1.349890 -3.142962
      ESP Fit Center  347 is at  -0.908527  1.818701 -3.142962
      ESP Fit Center  348 is at  -1.593884  2.068151 -3.142962
      ESP Fit Center  349 is at  -2.323226  2.068151 -3.142962
      ESP Fit Center  350 is at  -3.008583  1.818701 -3.142962
      ESP Fit Center  351 is at  -3.567291  1.349890 -3.142962
      ESP Fit Center  352 is at  -3.931961  0.718261 -3.142962
      ESP Fit Center  353 is at  -4.058610  0.000000 -3.142962
      ESP Fit Center  354 is at  -3.931961 -0.718261 -3.142962
      ESP Fit Center  355 is at  -3.567291 -1.349890 -3.142962
      ESP Fit Center  356 is at  -3.008583 -1.818702 -3.142962
      ESP Fit Center  357 is at  -2.323226 -2.068151 -3.142962
      ESP Fit Center  358 is at  -1.593884 -2.068151 -3.142962
      ESP Fit Center  359 is at  -0.908527 -1.818702 -3.142962
      ESP Fit Center  360 is at  -0.349819 -1.349890 -3.142962
      ESP Fit Center  361 is at   0.014852 -0.718261 -3.142962
      ESP Fit Center  362 is at  -0.512011  0.000000 -3.492272
      ESP Fit Center  363 is at  -0.705811  0.723272 -3.492272
      ESP Fit Center  364 is at  -1.235283  1.252743 -3.492272
      ESP Fit Center  365 is at  -1.958555  1.446543 -3.492272
      ESP Fit Center  366 is at  -2.681826  1.252743 -3.492272
      ESP Fit Center  367 is at  -3.211298  0.723272 -3.492272
      ESP Fit Center  368 is at  -3.405098  0.000000 -3.492272
      ESP Fit Center  369 is at  -3.211298 -0.723272 -3.492272
      ESP Fit Center  370 is at  -2.681826 -1.252743 -3.492272
      ESP Fit Center  371 is at  -1.958555 -1.446544 -3.492272
      ESP Fit Center  372 is at  -1.235283 -1.252743 -3.492272
      ESP Fit Center  373 is at  -0.705811 -0.723272 -3.492272
      ESP Fit Center  374 is at  -1.221113  0.000000 -3.707376
      ESP Fit Center  375 is at  -1.589834  0.638643 -3.707376
      ESP Fit Center  376 is at  -2.327275  0.638643 -3.707376
      ESP Fit Center  377 is at  -2.695996  0.000000 -3.707376
      ESP Fit Center  378 is at  -2.327275 -0.638643 -3.707376
      ESP Fit Center  379 is at  -1.589834 -0.638643 -3.707376
      ESP Fit Center  380 is at  -1.958555  0.000000 -3.780007
      ESP Fit Center  381 is at   3.540175 -2.155105  1.513699
      ESP Fit Center  382 is at   2.446788 -2.786372  1.513699
      ESP Fit Center  383 is at   3.175713 -2.786372  1.513699
      ESP Fit Center  384 is at   4.124727 -2.155105  1.047534
      ESP Fit Center  385 is at   2.405364 -3.404296  1.047534
      ESP Fit Center  386 is at   3.217137 -3.404296  1.047534
      ESP Fit Center  387 is at   3.873875 -2.927148  1.047534
      ESP Fit Center  388 is at   1.585280 -3.241220  0.373906
      ESP Fit Center  389 is at   2.230450 -3.686549  0.373906
      ESP Fit Center  390 is at   3.008675 -3.781042  0.373906
      ESP Fit Center  391 is at   3.741671 -3.503053  0.373906
      ESP Fit Center  392 is at   4.261520 -2.916265  0.373906
      ESP Fit Center  393 is at   1.585280 -3.241220 -0.373764
      ESP Fit Center  394 is at   2.230450 -3.686549 -0.373764
      ESP Fit Center  395 is at   3.008675 -3.781042 -0.373764
      ESP Fit Center  396 is at   3.741671 -3.503053 -0.373764
      ESP Fit Center  397 is at   4.261520 -2.916265 -0.373764
      ESP Fit Center  398 is at   4.124727 -2.155105 -1.047392
      ESP Fit Center  399 is at   2.405364 -3.404296 -1.047392
      ESP Fit Center  400 is at   3.217137 -3.404296 -1.047392
      ESP Fit Center  401 is at   3.873875 -2.927148 -1.047392
      ESP Fit Center  402 is at   3.540175 -2.155105 -1.513557
      ESP Fit Center  403 is at   2.446788 -2.786372 -1.513557
      ESP Fit Center  404 is at   3.175713 -2.786372 -1.513557
      ESP Fit Center  405 is at   0.715857 -2.784825  1.513660
      ESP Fit Center  406 is at  -0.054492 -3.402749  1.047495
      ESP Fit Center  407 is at   0.757281 -3.402749  1.047495
      ESP Fit Center  408 is at  -0.229406 -3.685002  0.373867
      ESP Fit Center  409 is at   0.548819 -3.779495  0.373867
      ESP Fit Center  410 is at   1.281815 -3.501506  0.373867
      ESP Fit Center  411 is at  -0.229406 -3.685002 -0.373803
      ESP Fit Center  412 is at   0.548819 -3.779495 -0.373803
      ESP Fit Center  413 is at   1.281815 -3.501506 -0.373803
      ESP Fit Center  414 is at  -0.054492 -3.402749 -1.047431
      ESP Fit Center  415 is at   0.757281 -3.402749 -1.047431
      ESP Fit Center  416 is at   0.715857 -2.784825 -1.513596
      ESP Fit Center  417 is at   0.715859  2.784826  1.513693
      ESP Fit Center  418 is at   0.757283  3.402750  1.047528
      ESP Fit Center  419 is at  -0.054490  3.402750  1.047528
      ESP Fit Center  420 is at   1.281818  3.501507  0.373900
      ESP Fit Center  421 is at   0.548821  3.779496  0.373900
      ESP Fit Center  422 is at  -0.229404  3.685002  0.373900
      ESP Fit Center  423 is at   1.281818  3.501507 -0.373770
      ESP Fit Center  424 is at   0.548821  3.779496 -0.373770
      ESP Fit Center  425 is at  -0.229404  3.685002 -0.373770
      ESP Fit Center  426 is at   0.757283  3.402750 -1.047398
      ESP Fit Center  427 is at  -0.054490  3.402750 -1.047398
      ESP Fit Center  428 is at   0.715859  2.784826 -1.513563
      ESP Fit Center  429 is at   3.540174  2.155106  1.513646
      ESP Fit Center  430 is at   3.175712  2.786373  1.513646
      ESP Fit Center  431 is at   2.446787  2.786373  1.513646
      ESP Fit Center  432 is at   4.124726  2.155106  1.047481
      ESP Fit Center  433 is at   3.873874  2.927148  1.047481
      ESP Fit Center  434 is at   3.217136  3.404297  1.047481
      ESP Fit Center  435 is at   2.405363  3.404297  1.047481
      ESP Fit Center  436 is at   4.261519  2.916266  0.373853
      ESP Fit Center  437 is at   3.741671  3.503054  0.373853
      ESP Fit Center  438 is at   3.008674  3.781043  0.373853
      ESP Fit Center  439 is at   2.230449  3.686549  0.373853
      ESP Fit Center  440 is at   1.585279  3.241220  0.373853
      ESP Fit Center  441 is at   4.261519  2.916266 -0.373817
      ESP Fit Center  442 is at   3.741671  3.503054 -0.373817
      ESP Fit Center  443 is at   3.008674  3.781043 -0.373817
      ESP Fit Center  444 is at   2.230449  3.686549 -0.373817
      ESP Fit Center  445 is at   1.585279  3.241220 -0.373817
      ESP Fit Center  446 is at   4.124726  2.155106 -1.047445
      ESP Fit Center  447 is at   3.873874  2.927148 -1.047445
      ESP Fit Center  448 is at   3.217136  3.404297 -1.047445
      ESP Fit Center  449 is at   2.405363  3.404297 -1.047445
      ESP Fit Center  450 is at   3.540174  2.155106 -1.513610
      ESP Fit Center  451 is at   3.175712  2.786373 -1.513610
      ESP Fit Center  452 is at   2.446787  2.786373 -1.513610
      ESP Fit Center  453 is at   5.625551 -0.861333  1.513534
      ESP Fit Center  454 is at   4.532164 -1.492601  1.513534
      ESP Fit Center  455 is at   5.261089 -1.492601  1.513534
      ESP Fit Center  456 is at   6.210103 -0.861333  1.047369
      ESP Fit Center  457 is at   4.490740 -2.110524  1.047369
      ESP Fit Center  458 is at   5.302513 -2.110524  1.047369
      ESP Fit Center  459 is at   5.959251 -1.633376  1.047369
      ESP Fit Center  460 is at   6.534505 -0.861333  0.373741
      ESP Fit Center  461 is at   5.094051 -2.487270  0.373741
      ESP Fit Center  462 is at   5.827047 -2.209281  0.373741
      ESP Fit Center  463 is at   6.346896 -1.622494  0.373741
      ESP Fit Center  464 is at   6.534505 -0.861333 -0.373929
      ESP Fit Center  465 is at   5.094051 -2.487270 -0.373929
      ESP Fit Center  466 is at   5.827047 -2.209281 -0.373929
      ESP Fit Center  467 is at   6.346896 -1.622494 -0.373929
      ESP Fit Center  468 is at   6.210103 -0.861333 -1.047557
      ESP Fit Center  469 is at   4.490740 -2.110524 -1.047557
      ESP Fit Center  470 is at   5.302513 -2.110524 -1.047557
      ESP Fit Center  471 is at   5.959251 -1.633376 -1.047557
      ESP Fit Center  472 is at   5.625551 -0.861333 -1.513722
      ESP Fit Center  473 is at   4.532164 -1.492601 -1.513722
      ESP Fit Center  474 is at   5.261089 -1.492601 -1.513722
      ESP Fit Center  475 is at   5.625553  0.861330  1.513657
      ESP Fit Center  476 is at   5.261091  1.492597  1.513657
      ESP Fit Center  477 is at   4.532166  1.492597  1.513657
      ESP Fit Center  478 is at   6.210105  0.861330  1.047492
      ESP Fit Center  479 is at   5.959253  1.633372  1.047492
      ESP Fit Center  480 is at   5.302515  2.110521  1.047492
      ESP Fit Center  481 is at   4.490742  2.110521  1.047492
      ESP Fit Center  482 is at   6.534507  0.861330  0.373864
      ESP Fit Center  483 is at   6.346898  1.622490  0.373864
      ESP Fit Center  484 is at   5.827049  2.209278  0.373864
      ESP Fit Center  485 is at   5.094053  2.487267  0.373864
      ESP Fit Center  486 is at   6.534507  0.861330 -0.373806
      ESP Fit Center  487 is at   6.346898  1.622490 -0.373806
      ESP Fit Center  488 is at   5.827049  2.209278 -0.373806
      ESP Fit Center  489 is at   5.094053  2.487267 -0.373806
      ESP Fit Center  490 is at   6.210105  0.861330 -1.047434
      ESP Fit Center  491 is at   5.959253  1.633372 -1.047434
      ESP Fit Center  492 is at   5.302515  2.110521 -1.047434
      ESP Fit Center  493 is at   4.490742  2.110521 -1.047434
      ESP Fit Center  494 is at   5.625553  0.861330 -1.513599
      ESP Fit Center  495 is at   5.261091  1.492597 -1.513599
      ESP Fit Center  496 is at   4.532166  1.492597 -1.513599
      ESP Fit Center  497 is at   2.276445 -1.207979  2.368351
      ESP Fit Center  498 is at   3.008299 -1.207979  2.252437
      ESP Fit Center  499 is at   1.910518 -0.574175  2.252437
      ESP Fit Center  500 is at   1.910518 -1.841783  2.252437
      ESP Fit Center  501 is at   2.642372 -1.841783  2.252437
      ESP Fit Center  502 is at   2.078333 -2.585878  1.916041
      ESP Fit Center  503 is at   2.854731 -2.474249  1.916041
      ESP Fit Center  504 is at   3.447528 -1.960588  1.916041
      ESP Fit Center  505 is at   2.078333 -2.585878 -1.915995
      ESP Fit Center  506 is at   2.854731 -2.474249 -1.915995
      ESP Fit Center  507 is at   3.447528 -1.960588 -1.915995
      ESP Fit Center  508 is at   3.008299 -1.207979 -2.252391
      ESP Fit Center  509 is at   1.910518 -0.574175 -2.252391
      ESP Fit Center  510 is at   1.910518 -1.841783 -2.252391
      ESP Fit Center  511 is at   2.642372 -1.841783 -2.252391
      ESP Fit Center  512 is at   2.276445 -1.207979 -2.368305
      ESP Fit Center  513 is at   1.249673 -1.842093  2.252436
      ESP Fit Center  514 is at   1.462032 -2.474559  1.916040
      ESP Fit Center  515 is at   1.462032 -2.474559 -1.915996
      ESP Fit Center  516 is at   1.249673 -1.842093 -2.252392
      ESP Fit Center  517 is at   1.249673  1.842094  2.252441
      ESP Fit Center  518 is at   1.462032  2.474560  1.916045
      ESP Fit Center  519 is at   1.462032  2.474560 -1.915991
      ESP Fit Center  520 is at   1.249673  1.842094 -2.252387
      ESP Fit Center  521 is at   2.276446  1.207980  2.368338
      ESP Fit Center  522 is at   3.008300  1.207980  2.252424
      ESP Fit Center  523 is at   2.642373  1.841784  2.252424
      ESP Fit Center  524 is at   1.910519  1.841784  2.252424
      ESP Fit Center  525 is at   1.910519  0.574176  2.252424
      ESP Fit Center  526 is at   3.447529  1.960589  1.916028
      ESP Fit Center  527 is at   2.854732  2.474250  1.916028
      ESP Fit Center  528 is at   2.078334  2.585879  1.916028
      ESP Fit Center  529 is at   3.447529  1.960589 -1.916008
      ESP Fit Center  530 is at   2.854732  2.474250 -1.916008
      ESP Fit Center  531 is at   2.078334  2.585879 -1.916008
      ESP Fit Center  532 is at   3.008300  1.207980 -2.252404
      ESP Fit Center  533 is at   2.642373  1.841784 -2.252404
      ESP Fit Center  534 is at   1.910519  1.841784 -2.252404
      ESP Fit Center  535 is at   1.910519  0.574176 -2.252404
      ESP Fit Center  536 is at   2.276446  1.207980 -2.368318
      ESP Fit Center  537 is at   2.999650  0.000001  2.368318
      ESP Fit Center  538 is at   3.365577  0.633805  2.252404
      ESP Fit Center  539 is at   2.267797  0.000001  2.252404
      ESP Fit Center  540 is at   3.365577 -0.633803  2.252404
      ESP Fit Center  541 is at   3.365577  0.633805 -2.252424
      ESP Fit Center  542 is at   2.267797  0.000001 -2.252424
      ESP Fit Center  543 is at   3.365577 -0.633803 -2.252424
      ESP Fit Center  544 is at   2.999650  0.000001 -2.368338
      ESP Fit Center  545 is at   4.376482 -0.000001  2.368285
      ESP Fit Center  546 is at   5.108336 -0.000001  2.252371
      ESP Fit Center  547 is at   4.742409  0.633803  2.252371
      ESP Fit Center  548 is at   4.010555  0.633803  2.252371
      ESP Fit Center  549 is at   4.010555 -0.633805  2.252371
      ESP Fit Center  550 is at   4.742409 -0.633805  2.252371
      ESP Fit Center  551 is at   5.768551 -0.000001  1.915975
      ESP Fit Center  552 is at   5.547565  0.752608  1.915975
      ESP Fit Center  553 is at   4.954768  1.266269  1.915975
      ESP Fit Center  554 is at   4.178370  1.377898  1.915975
      ESP Fit Center  555 is at   4.178370 -1.377900  1.915975
      ESP Fit Center  556 is at   4.954768 -1.266271  1.915975
      ESP Fit Center  557 is at   5.547565 -0.752610  1.915975
      ESP Fit Center  558 is at   6.292500 -0.000001  1.392025
      ESP Fit Center  559 is at   6.628896 -0.000001  0.731810
      ESP Fit Center  560 is at   6.744810 -0.000001 -0.000043
      ESP Fit Center  561 is at   6.628896 -0.000001 -0.731897
      ESP Fit Center  562 is at   6.292500 -0.000001 -1.392112
      ESP Fit Center  563 is at   5.768551 -0.000001 -1.916061
      ESP Fit Center  564 is at   5.547565  0.752608 -1.916061
      ESP Fit Center  565 is at   4.954768  1.266269 -1.916061
      ESP Fit Center  566 is at   4.178370  1.377898 -1.916061
      ESP Fit Center  567 is at   4.178370 -1.377900 -1.916061
      ESP Fit Center  568 is at   4.954768 -1.266271 -1.916061
      ESP Fit Center  569 is at   5.547565 -0.752610 -1.916061
      ESP Fit Center  570 is at   5.108336 -0.000001 -2.252457
      ESP Fit Center  571 is at   4.742409  0.633803 -2.252457
      ESP Fit Center  572 is at   4.010555  0.633803 -2.252457
      ESP Fit Center  573 is at   4.010555 -0.633805 -2.252457
      ESP Fit Center  574 is at   4.742409 -0.633805 -2.252457
      ESP Fit Center  575 is at   4.376482 -0.000001 -2.368371
      ESP Fit Center  576 is at  -1.958555  0.000000  4.262983
      ESP Fit Center  577 is at  -1.218294  0.000000  4.198219
      ESP Fit Center  578 is at  -1.588425  0.641084  4.198219
      ESP Fit Center  579 is at  -2.328685  0.641084  4.198219
      ESP Fit Center  580 is at  -2.698815  0.000000  4.198219
      ESP Fit Center  581 is at  -2.328685 -0.641085  4.198219
      ESP Fit Center  582 is at  -1.588425 -0.641085  4.198219
      ESP Fit Center  583 is at  -0.500526  0.000000  4.005894
      ESP Fit Center  584 is at  -0.695865  0.729014  4.005894
      ESP Fit Center  585 is at  -1.229540  1.262690  4.005894
      ESP Fit Center  586 is at  -1.958555  1.458029  4.005894
      ESP Fit Center  587 is at  -2.687569  1.262690  4.005894
      ESP Fit Center  588 is at  -3.221245  0.729014  4.005894
      ESP Fit Center  589 is at  -3.416583  0.000000  4.005894
      ESP Fit Center  590 is at  -3.221245 -0.729014  4.005894
      ESP Fit Center  591 is at  -2.687569 -1.262690  4.005894
      ESP Fit Center  592 is at  -1.958555 -1.458029  4.005894
      ESP Fit Center  593 is at  -1.229540 -1.262690  4.005894
      ESP Fit Center  594 is at  -0.695865 -0.729014  4.005894
      ESP Fit Center  595 is at   0.172941  0.000000  3.691851
      ESP Fit Center  596 is at   0.044396  0.729014  3.691851
      ESP Fit Center  597 is at  -0.325735  1.370099  3.691851
      ESP Fit Center  598 is at  -0.892807  1.845929  3.691851
      ESP Fit Center  599 is at  -1.588425  2.099113  3.691851
      ESP Fit Center  600 is at  -2.328685  2.099113  3.691851
      ESP Fit Center  601 is at  -3.024302  1.845929  3.691851
      ESP Fit Center  602 is at  -3.591375  1.370099  3.691851
      ESP Fit Center  603 is at  -3.961505  0.729014  3.691851
      ESP Fit Center  604 is at  -4.090050  0.000000  3.691851
      ESP Fit Center  605 is at  -3.961505 -0.729014  3.691851
      ESP Fit Center  606 is at  -3.591375 -1.370099  3.691851
      ESP Fit Center  607 is at  -3.024302 -1.845929  3.691851
      ESP Fit Center  608 is at  -2.328685 -2.099113  3.691851
      ESP Fit Center  609 is at  -1.588425 -2.099113  3.691851
      ESP Fit Center  610 is at  -0.892807 -1.845929  3.691851
      ESP Fit Center  611 is at  -0.325735 -1.370099  3.691851
      ESP Fit Center  612 is at   0.044396 -0.729014  3.691851
      ESP Fit Center  613 is at   0.781643  0.000000  3.265633
      ESP Fit Center  614 is at   0.680029  0.739296  3.265633
      ESP Fit Center  615 is at   0.382723  1.423763  3.265633
      ESP Fit Center  616 is at  -0.088224  2.002635  3.265633
      ESP Fit Center  617 is at  -0.697886  2.432981  3.265633
      ESP Fit Center  618 is at  -1.401045  2.682884  3.265633
      ESP Fit Center  619 is at  -2.145552  2.733809  3.265633
      ESP Fit Center  620 is at  -2.876191  2.581981  3.265633
      ESP Fit Center  621 is at  -3.538773  2.238659  3.265633
      ESP Fit Center  622 is at  -4.084157  1.729306  3.265633
      ESP Fit Center  623 is at  -4.471895  1.091698  3.265633
      ESP Fit Center  624 is at  -4.673230  0.373123  3.265633
      ESP Fit Center  625 is at  -4.673230 -0.373124  3.265633
      ESP Fit Center  626 is at  -4.471895 -1.091698  3.265633
      ESP Fit Center  627 is at  -4.084157 -1.729306  3.265633
      ESP Fit Center  628 is at  -3.538773 -2.238659  3.265633
      ESP Fit Center  629 is at  -2.876191 -2.581981  3.265633
      ESP Fit Center  630 is at  -2.145552 -2.733810  3.265633
      ESP Fit Center  631 is at  -1.401045 -2.682884  3.265633
      ESP Fit Center  632 is at  -0.697886 -2.432981  3.265633
      ESP Fit Center  633 is at  -0.088224 -2.002635  3.265633
      ESP Fit Center  634 is at   0.382723 -1.423763  3.265633
      ESP Fit Center  635 is at   0.680029 -0.739297  3.265633
      ESP Fit Center  636 is at   1.307086  0.000000  2.740190
      ESP Fit Center  637 is at   1.225209  0.726673  2.740190
      ESP Fit Center  638 is at   0.983685  1.416908  2.740190
      ESP Fit Center  639 is at   0.594626  2.036093  2.740190
      ESP Fit Center  640 is at   0.077539  2.553180  2.740190
      ESP Fit Center  641 is at  -0.541647  2.942240  2.740190
      ESP Fit Center  642 is at  -1.231881  3.183764  2.740190
      ESP Fit Center  643 is at  -1.958555  3.265640  2.740190
      ESP Fit Center  644 is at  -2.685228  3.183764  2.740190
      ESP Fit Center  645 is at  -3.375463  2.942240  2.740190
      ESP Fit Center  646 is at  -3.994648  2.553180  2.740190
      ESP Fit Center  647 is at  -4.511735  2.036093  2.740190
      ESP Fit Center  648 is at  -4.900795  1.416908  2.740190
      ESP Fit Center  649 is at  -5.142319  0.726673  2.740190
      ESP Fit Center  650 is at  -5.224195  0.000000  2.740190
      ESP Fit Center  651 is at  -5.142319 -0.726673  2.740190
      ESP Fit Center  652 is at  -4.900795 -1.416908  2.740190
      ESP Fit Center  653 is at  -4.511735 -2.036094  2.740190
      ESP Fit Center  654 is at  -3.994648 -2.553181  2.740190
      ESP Fit Center  655 is at  -3.375463 -2.942240  2.740190
      ESP Fit Center  656 is at  -2.685228 -3.183764  2.740190
      ESP Fit Center  657 is at  -1.958555 -3.265640  2.740190
      ESP Fit Center  658 is at  -1.231881 -3.183764  2.740190
      ESP Fit Center  659 is at  -0.541647 -2.942240  2.740190
      ESP Fit Center  660 is at   0.077539 -2.553181  2.740190
      ESP Fit Center  661 is at   0.594626 -2.036094  2.740190
      ESP Fit Center  662 is at   0.983685 -1.416908  2.740190
      ESP Fit Center  663 is at   1.225209 -0.726673  2.740190
      ESP Fit Center  664 is at   1.733303  0.000000  2.131488
      ESP Fit Center  665 is at   0.651983  2.610538  2.131488
      ESP Fit Center  666 is at   0.092532  3.069668  2.131488
      ESP Fit Center  667 is at  -0.545742  3.410832  2.131488
      ESP Fit Center  668 is at  -1.238309  3.620920  2.131488
      ESP Fit Center  669 is at  -1.958555  3.691858  2.131488
      ESP Fit Center  670 is at  -2.678801  3.620920  2.131488
      ESP Fit Center  671 is at  -3.371368  3.410832  2.131488
      ESP Fit Center  672 is at  -4.009641  3.069668  2.131488
      ESP Fit Center  673 is at  -4.569093  2.610538  2.131488
      ESP Fit Center  674 is at  -5.028223  2.051086  2.131488
      ESP Fit Center  675 is at  -5.369387  1.412813  2.131488
      ESP Fit Center  676 is at  -5.579475  0.720246  2.131488
      ESP Fit Center  677 is at  -5.650413  0.000000  2.131488
      ESP Fit Center  678 is at  -5.579475 -0.720246  2.131488
      ESP Fit Center  679 is at  -5.369387 -1.412813  2.131488
      ESP Fit Center  680 is at  -5.028223 -2.051087  2.131488
      ESP Fit Center  681 is at  -4.569093 -2.610538  2.131488
      ESP Fit Center  682 is at  -4.009641 -3.069668  2.131488
      ESP Fit Center  683 is at  -3.371368 -3.410832  2.131488
      ESP Fit Center  684 is at  -2.678801 -3.620920  2.131488
      ESP Fit Center  685 is at  -1.958555 -3.691858  2.131488
      ESP Fit Center  686 is at  -1.238309 -3.620920  2.131488
      ESP Fit Center  687 is at  -0.545742 -3.410832  2.131488
      ESP Fit Center  688 is at   0.092532 -3.069668  2.131488
      ESP Fit Center  689 is at   0.651983 -2.610538  2.131488
      ESP Fit Center  690 is at  -0.172971  3.585935  1.458021
      ESP Fit Center  691 is at  -0.862288  3.852978  1.458021
      ESP Fit Center  692 is at  -1.588937  3.988812  1.458021
      ESP Fit Center  693 is at  -2.328173  3.988812  1.458021
      ESP Fit Center  694 is at  -3.054822  3.852978  1.458021
      ESP Fit Center  695 is at  -3.744138  3.585935  1.458021
      ESP Fit Center  696 is at  -4.372649  3.196778  1.458021
      ESP Fit Center  697 is at  -4.918951  2.698758  1.458021
      ESP Fit Center  698 is at  -5.364440  2.108835  1.458021
      ESP Fit Center  699 is at  -5.693946  1.447098  1.458021
      ESP Fit Center  700 is at  -5.896248  0.736082  1.458021
      ESP Fit Center  701 is at  -5.964456  0.000000  1.458021
      ESP Fit Center  702 is at  -5.896248 -0.736082  1.458021
      ESP Fit Center  703 is at  -5.693946 -1.447098  1.458021
      ESP Fit Center  704 is at  -5.364440 -2.108835  1.458021
      ESP Fit Center  705 is at  -4.918951 -2.698758  1.458021
      ESP Fit Center  706 is at  -4.372649 -3.196778  1.458021
      ESP Fit Center  707 is at  -3.744138 -3.585936  1.458021
      ESP Fit Center  708 is at  -3.054822 -3.852978  1.458021
      ESP Fit Center  709 is at  -2.328173 -3.988813  1.458021
      ESP Fit Center  710 is at  -1.588937 -3.988813  1.458021
      ESP Fit Center  711 is at  -0.862288 -3.852978  1.458021
      ESP Fit Center  712 is at  -0.172971 -3.585936  1.458021
      ESP Fit Center  713 is at  -0.522677  3.945042  0.740253
      ESP Fit Center  714 is at  -1.229540  4.134446  0.740253
      ESP Fit Center  715 is at  -1.958555  4.198226  0.740253
      ESP Fit Center  716 is at  -2.687569  4.134446  0.740253
      ESP Fit Center  717 is at  -3.394433  3.945042  0.740253
      ESP Fit Center  718 is at  -4.057668  3.635770  0.740253
      ESP Fit Center  719 is at  -4.657123  3.216028  0.740253
      ESP Fit Center  720 is at  -5.174583  2.698568  0.740253
      ESP Fit Center  721 is at  -5.594325  2.099113  0.740253
      ESP Fit Center  722 is at  -5.903597  1.435878  0.740253
      ESP Fit Center  723 is at  -6.093001  0.729014  0.740253
      ESP Fit Center  724 is at  -6.156781  0.000000  0.740253
      ESP Fit Center  725 is at  -6.093001 -0.729014  0.740253
      ESP Fit Center  726 is at  -5.903597 -1.435878  0.740253
      ESP Fit Center  727 is at  -5.594325 -2.099113  0.740253
      ESP Fit Center  728 is at  -5.174583 -2.698568  0.740253
      ESP Fit Center  729 is at  -4.657123 -3.216028  0.740253
      ESP Fit Center  730 is at  -4.057668 -3.635771  0.740253
      ESP Fit Center  731 is at  -3.394433 -3.945042  0.740253
      ESP Fit Center  732 is at  -2.687569 -4.134446  0.740253
      ESP Fit Center  733 is at  -1.958555 -4.198226  0.740253
      ESP Fit Center  734 is at  -1.229540 -4.134446  0.740253
      ESP Fit Center  735 is at  -0.522677 -3.945042  0.740253
      ESP Fit Center  736 is at  -0.369071  3.955582 -0.000007
      ESP Fit Center  737 is at  -1.060431  4.167309 -0.000007
      ESP Fit Center  738 is at  -1.777628  4.259149 -0.000007
      ESP Fit Center  739 is at  -2.500031  4.228462 -0.000007
      ESP Fit Center  740 is at  -3.206856  4.076130 -0.000007
      ESP Fit Center  741 is at  -3.877769  3.806534 -0.000007
      ESP Fit Center  742 is at  -4.493470  3.427432 -0.000007
      ESP Fit Center  743 is at  -5.036247  2.949729 -0.000007
      ESP Fit Center  744 is at  -5.490484  2.387167 -0.000007
      ESP Fit Center  745 is at  -5.843113  1.755931 -0.000007
      ESP Fit Center  746 is at  -6.083991  1.074180 -0.000007
      ESP Fit Center  747 is at  -6.206188  0.361527 -0.000007
      ESP Fit Center  748 is at  -6.206188 -0.361527 -0.000007
      ESP Fit Center  749 is at  -6.083991 -1.074180 -0.000007
      ESP Fit Center  750 is at  -5.843113 -1.755931 -0.000007
      ESP Fit Center  751 is at  -5.490484 -2.387167 -0.000007
      ESP Fit Center  752 is at  -5.036247 -2.949729 -0.000007
      ESP Fit Center  753 is at  -4.493470 -3.427432 -0.000007
      ESP Fit Center  754 is at  -3.877769 -3.806535 -0.000007
      ESP Fit Center  755 is at  -3.206856 -4.076130 -0.000007
      ESP Fit Center  756 is at  -2.500031 -4.228462 -0.000007
      ESP Fit Center  757 is at  -1.777628 -4.259150 -0.000007
      ESP Fit Center  758 is at  -1.060431 -4.167309 -0.000007
      ESP Fit Center  759 is at  -0.369071 -3.955582 -0.000007
      ESP Fit Center  760 is at  -0.522677  3.945042 -0.740268
      ESP Fit Center  761 is at  -1.229540  4.134446 -0.740268
      ESP Fit Center  762 is at  -1.958555  4.198226 -0.740268
      ESP Fit Center  763 is at  -2.687569  4.134446 -0.740268
      ESP Fit Center  764 is at  -3.394433  3.945042 -0.740268
      ESP Fit Center  765 is at  -4.057668  3.635770 -0.740268
      ESP Fit Center  766 is at  -4.657123  3.216028 -0.740268
      ESP Fit Center  767 is at  -5.174583  2.698568 -0.740268
      ESP Fit Center  768 is at  -5.594325  2.099113 -0.740268
[...]
 2686 Fit      -0.006007
 2687 Fit      -0.005887
 2688 Fit      -0.005692
 2689 Fit      -0.005463
 2690 Fit      -0.005284
 2691 Fit      -0.005275
 2692 Fit      -0.005538
 2693 Fit      -0.006089
 2694 Fit      -0.006789
 2695 Fit      -0.007378
 2696 Fit      -0.008302
 2697 Fit      -0.007990
 2698 Fit      -0.007154
 2699 Fit      -0.006082
 2700 Fit      -0.005130
 2701 Fit      -0.004538
 2702 Fit      -0.004356
 2703 Fit      -0.004490
 2704 Fit      -0.004798
 2705 Fit      -0.005148
 2706 Fit      -0.005453
 2707 Fit      -0.005665
 2708 Fit      -0.005776
 2709 Fit      -0.005801
 2710 Fit      -0.005770
 2711 Fit      -0.005715
 2712 Fit      -0.005669
 2713 Fit      -0.005651
 2714 Fit      -0.005669
 2715 Fit      -0.005715
 2716 Fit      -0.005770
 2717 Fit      -0.005801
 2718 Fit      -0.005776
 2719 Fit      -0.005665
 2720 Fit      -0.005453
 2721 Fit      -0.005148
 2722 Fit      -0.004798
 2723 Fit      -0.004490
 2724 Fit      -0.004356
 2725 Fit      -0.004538
 2726 Fit      -0.005130
 2727 Fit      -0.006083
 2728 Fit      -0.007154
 2729 Fit      -0.007990
 2730 Fit      -0.009462
 2731 Fit      -0.009014
 2732 Fit      -0.007788
 2733 Fit      -0.006149
 2734 Fit      -0.004617
 2735 Fit      -0.003586
 2736 Fit      -0.003159
 2737 Fit      -0.003229
 2738 Fit      -0.003608
 2739 Fit      -0.004116
 2740 Fit      -0.004619
 2741 Fit      -0.005035
 2742 Fit      -0.005330
 2743 Fit      -0.005497
 2744 Fit      -0.005555
 2745 Fit      -0.005533
 2746 Fit      -0.005467
 2747 Fit      -0.005390
 2748 Fit      -0.005332
 2749 Fit      -0.005310
 2750 Fit      -0.005332
 2751 Fit      -0.005390
 2752 Fit      -0.005467
 2753 Fit      -0.005533
 2754 Fit      -0.005555
 2755 Fit      -0.005497
 2756 Fit      -0.005330
 2757 Fit      -0.005035
 2758 Fit      -0.004619
 2759 Fit      -0.004116
 2760 Fit      -0.003608
 2761 Fit      -0.003229
 2762 Fit      -0.003159
 2763 Fit      -0.003586
 2764 Fit      -0.004617
 2765 Fit      -0.006149
 2766 Fit      -0.007788
 2767 Fit      -0.009014
 2768 Fit      -0.006362
 2769 Fit      -0.003965
 2770 Fit      -0.002311
 2771 Fit      -0.001560
 2772 Fit      -0.001540
 2773 Fit      -0.001991
 2774 Fit      -0.002674
 2775 Fit      -0.003406
 2776 Fit      -0.004070
 2777 Fit      -0.004604
 2778 Fit      -0.004984
 2779 Fit      -0.005215
 2780 Fit      -0.005316
 2781 Fit      -0.005317
 2782 Fit      -0.005254
 2783 Fit      -0.005160
 2784 Fit      -0.005067
 2785 Fit      -0.005001
 2786 Fit      -0.004977
 2787 Fit      -0.005001
 2788 Fit      -0.005067
 2789 Fit      -0.005160
 2790 Fit      -0.005254
 2791 Fit      -0.005318
 2792 Fit      -0.005316
 2793 Fit      -0.005215
 2794 Fit      -0.004984
 2795 Fit      -0.004604
 2796 Fit      -0.004070
 2797 Fit      -0.003406
 2798 Fit      -0.002674
 2799 Fit      -0.001991
 2800 Fit      -0.001540
 2801 Fit      -0.001560
 2802 Fit      -0.002311
 2803 Fit      -0.003965
 2804 Fit      -0.006362
 2805 Fit      -0.000133
 2806 Fit       0.000773
 2807 Fit       0.000683
 2808 Fit       0.000004
 2809 Fit      -0.000960
 2810 Fit      -0.001988
 2811 Fit      -0.002936
 2812 Fit      -0.003728
 2813 Fit      -0.004335
 2814 Fit      -0.004755
 2815 Fit      -0.005006
 2816 Fit      -0.005116
 2817 Fit      -0.005117
 2818 Fit      -0.005045
 2819 Fit      -0.004937
 2820 Fit      -0.004824
 2821 Fit      -0.004732
 2822 Fit      -0.004682
 2823 Fit      -0.004682
 2824 Fit      -0.004732
 2825 Fit      -0.004824
 2826 Fit      -0.004937
 2827 Fit      -0.005045
 2828 Fit      -0.005117
 2829 Fit      -0.005116
 2830 Fit      -0.005006
 2831 Fit      -0.004755
 2832 Fit      -0.004335
 2833 Fit      -0.003728
 2834 Fit      -0.002936
 2835 Fit      -0.001988
 2836 Fit      -0.000961
 2837 Fit       0.000004
 2838 Fit       0.000683
 2839 Fit       0.000773
 2840 Fit      -0.000133
 2841 Fit       0.004280
 2842 Fit       0.003515
 2843 Fit       0.002295
 2844 Fit       0.000875
 2845 Fit      -0.000539
 2846 Fit      -0.001810
 2847 Fit      -0.002868
 2848 Fit      -0.003692
 2849 Fit      -0.004289
 2850 Fit      -0.004679
 2851 Fit      -0.004893
 2852 Fit      -0.004967
 2853 Fit      -0.004936
 2854 Fit      -0.004840
 2855 Fit      -0.004713
 2856 Fit      -0.004587
 2857 Fit      -0.004488
 2858 Fit      -0.004434
 2859 Fit      -0.004434
 2860 Fit      -0.004488
 2861 Fit      -0.004587
 2862 Fit      -0.004713
 2863 Fit      -0.004840
 2864 Fit      -0.004936
 2865 Fit      -0.004967
 2866 Fit      -0.004893
 2867 Fit      -0.004679
 2868 Fit      -0.004289
 2869 Fit      -0.003692
 2870 Fit      -0.002868
 2871 Fit      -0.001810
 2872 Fit      -0.000539
 2873 Fit       0.000875
 2874 Fit       0.002294
 2875 Fit       0.003515
 2876 Fit       0.004279
 2877 Fit       0.006859
 2878 Fit       0.004785
 2879 Fit       0.002815
 2880 Fit       0.000985
 2881 Fit      -0.000618
 2882 Fit      -0.001945
 2883 Fit      -0.002991
 2884 Fit      -0.003771
 2885 Fit      -0.004313
 2886 Fit      -0.004650
 2887 Fit      -0.004818
 2888 Fit      -0.004855
 2889 Fit      -0.004798
 2890 Fit      -0.004683
 2891 Fit      -0.004546
 2892 Fit      -0.004414
 2893 Fit      -0.004312
 2894 Fit      -0.004257
 2895 Fit      -0.004257
 2896 Fit      -0.004312
 2897 Fit      -0.004414
 2898 Fit      -0.004546
 2899 Fit      -0.004683
 2900 Fit      -0.004798
 2901 Fit      -0.004855
 2902 Fit      -0.004818
 2903 Fit      -0.004650
 2904 Fit      -0.004313
 2905 Fit      -0.003771
 2906 Fit      -0.002991
 2907 Fit      -0.001945
 2908 Fit      -0.000618
 2909 Fit       0.000985
 2910 Fit       0.002815
 2911 Fit       0.004785
 2912 Fit       0.006859
 2913 Fit       0.008947
 2914 Fit       0.006066
 2915 Fit       0.003647
 2916 Fit       0.001530
 2917 Fit      -0.000261
 2918 Fit      -0.001712
 2919 Fit      -0.002836
 2920 Fit      -0.003664
 2921 Fit      -0.004235
 2922 Fit      -0.004587
 2923 Fit      -0.004761
 2924 Fit      -0.004797
 2925 Fit      -0.004735
 2926 Fit      -0.004614
 2927 Fit      -0.004469
 2928 Fit      -0.004330
 2929 Fit      -0.004223
 2930 Fit      -0.004165
 2931 Fit      -0.004165
 2932 Fit      -0.004223
 2933 Fit      -0.004330
 2934 Fit      -0.004469
 2935 Fit      -0.004614
 2936 Fit      -0.004735
 2937 Fit      -0.004797
 2938 Fit      -0.004761
 2939 Fit      -0.004587
 2940 Fit      -0.004235
 2941 Fit      -0.003664
 2942 Fit      -0.002836
 2943 Fit      -0.001712
 2944 Fit      -0.000261
 2945 Fit       0.001530
 2946 Fit       0.003647
 2947 Fit       0.006066
 2948 Fit       0.008947
 2949 Fit       0.008946
 2950 Fit       0.006066
 2951 Fit       0.003647
 2952 Fit       0.001530
 2953 Fit      -0.000262
 2954 Fit      -0.001712
 2955 Fit      -0.002836
 2956 Fit      -0.003664
 2957 Fit      -0.004235
 2958 Fit      -0.004587
 2959 Fit      -0.004761
 2960 Fit      -0.004797
 2961 Fit      -0.004735
 2962 Fit      -0.004614
 2963 Fit      -0.004469
 2964 Fit      -0.004330
 2965 Fit      -0.004223
 2966 Fit      -0.004165
 2967 Fit      -0.004165
 2968 Fit      -0.004223
 2969 Fit      -0.004330
 2970 Fit      -0.004469
 2971 Fit      -0.004614
 2972 Fit      -0.004735
 2973 Fit      -0.004797
 2974 Fit      -0.004761
 2975 Fit      -0.004587
 2976 Fit      -0.004235
 2977 Fit      -0.003664
 2978 Fit      -0.002836
 2979 Fit      -0.001712
 2980 Fit      -0.000261
 2981 Fit       0.001530
 2982 Fit       0.003647
 2983 Fit       0.006066
 2984 Fit       0.008946
 2985 Fit       0.006858
 2986 Fit       0.004784
 2987 Fit       0.002814
 2988 Fit       0.000985
 2989 Fit      -0.000618
 2990 Fit      -0.001946
 2991 Fit      -0.002991
 2992 Fit      -0.003771
 2993 Fit      -0.004313
 2994 Fit      -0.004650
 2995 Fit      -0.004818
 2996 Fit      -0.004855
 2997 Fit      -0.004798
 2998 Fit      -0.004683
 2999 Fit      -0.004546
 3000 Fit      -0.004414
 3001 Fit      -0.004312
 3002 Fit      -0.004257
 3003 Fit      -0.004257
 3004 Fit      -0.004312
 3005 Fit      -0.004414
 3006 Fit      -0.004546
 3007 Fit      -0.004683
 3008 Fit      -0.004798
 3009 Fit      -0.004855
 3010 Fit      -0.004818
 3011 Fit      -0.004650
 3012 Fit      -0.004313
 3013 Fit      -0.003771
 3014 Fit      -0.002991
 3015 Fit      -0.001945
 3016 Fit      -0.000618
 3017 Fit       0.000985
 3018 Fit       0.002815
 3019 Fit       0.004784
 3020 Fit       0.006858
 3021 Fit       0.004278
 3022 Fit       0.003514
 3023 Fit       0.002294
 3024 Fit       0.000875
 3025 Fit      -0.000539
 3026 Fit      -0.001810
 3027 Fit      -0.002868
 3028 Fit      -0.003692
 3029 Fit      -0.004289
 3030 Fit      -0.004679
 3031 Fit      -0.004893
 3032 Fit      -0.004967
 3033 Fit      -0.004936
 3034 Fit      -0.004840
 3035 Fit      -0.004713
 3036 Fit      -0.004587
 3037 Fit      -0.004488
 3038 Fit      -0.004434
 3039 Fit      -0.004434
 3040 Fit      -0.004488
 3041 Fit      -0.004587
 3042 Fit      -0.004713
 3043 Fit      -0.004840
 3044 Fit      -0.004936
 3045 Fit      -0.004967
 3046 Fit      -0.004893
 3047 Fit      -0.004679
 3048 Fit      -0.004289
 3049 Fit      -0.003692
 3050 Fit      -0.002868
 3051 Fit      -0.001810
 3052 Fit      -0.000539
 3053 Fit       0.000875
 3054 Fit       0.002294
 3055 Fit       0.003514
 3056 Fit       0.004278
 3057 Fit      -0.000134
 3058 Fit       0.000771
 3059 Fit       0.000682
 3060 Fit       0.000003
 3061 Fit      -0.000961
 3062 Fit      -0.001989
 3063 Fit      -0.002936
 3064 Fit      -0.003728
 3065 Fit      -0.004335
 3066 Fit      -0.004755
 3067 Fit      -0.005006
 3068 Fit      -0.005116
 3069 Fit      -0.005117
 3070 Fit      -0.005045
 3071 Fit      -0.004937
 3072 Fit      -0.004824
 3073 Fit      -0.004732
 3074 Fit      -0.004682
 3075 Fit      -0.004682
 3076 Fit      -0.004732
 3077 Fit      -0.004824
 3078 Fit      -0.004937
 3079 Fit      -0.005045
 3080 Fit      -0.005117
 3081 Fit      -0.005116
 3082 Fit      -0.005006
 3083 Fit      -0.004755
 3084 Fit      -0.004335
 3085 Fit      -0.003728
 3086 Fit      -0.002936
 3087 Fit      -0.001989
 3088 Fit      -0.000961
 3089 Fit       0.000004
 3090 Fit       0.000682
 3091 Fit       0.000772
 3092 Fit      -0.000134
 3093 Fit      -0.006363
 3094 Fit      -0.003966
 3095 Fit      -0.002312
 3096 Fit      -0.001561
 3097 Fit      -0.001541
 3098 Fit      -0.001991
 3099 Fit      -0.002674
 3100 Fit      -0.003406
 3101 Fit      -0.004070
 3102 Fit      -0.004604
 3103 Fit      -0.004984
 3104 Fit      -0.005215
 3105 Fit      -0.005316
 3106 Fit      -0.005318
 3107 Fit      -0.005254
 3108 Fit      -0.005160
 3109 Fit      -0.005067
 3110 Fit      -0.005001
 3111 Fit      -0.004977
 3112 Fit      -0.005001
 3113 Fit      -0.005067
 3114 Fit      -0.005160
 3115 Fit      -0.005254
 3116 Fit      -0.005317
 3117 Fit      -0.005316
 3118 Fit      -0.005215
 3119 Fit      -0.004984
 3120 Fit      -0.004604
 3121 Fit      -0.004070
 3122 Fit      -0.003406
 3123 Fit      -0.002674
 3124 Fit      -0.001991
 3125 Fit      -0.001540
 3126 Fit      -0.001561
 3127 Fit      -0.002312
 3128 Fit      -0.003966
 3129 Fit      -0.006363
 3130 Fit      -0.009462
 3131 Fit      -0.009014
 3132 Fit      -0.007789
 3133 Fit      -0.006150
 3134 Fit      -0.004618
 3135 Fit      -0.003586
 3136 Fit      -0.003160
 3137 Fit      -0.003229
 3138 Fit      -0.003608
 3139 Fit      -0.004116
 3140 Fit      -0.004619
 3141 Fit      -0.005036
 3142 Fit      -0.005330
 3143 Fit      -0.005497
 3144 Fit      -0.005555
 3145 Fit      -0.005533
 3146 Fit      -0.005467
 3147 Fit      -0.005390
 3148 Fit      -0.005332
 3149 Fit      -0.005310
 3150 Fit      -0.005332
 3151 Fit      -0.005390
 3152 Fit      -0.005467
 3153 Fit      -0.005533
 3154 Fit      -0.005555
 3155 Fit      -0.005497
 3156 Fit      -0.005330
 3157 Fit      -0.005036
 3158 Fit      -0.004619
 3159 Fit      -0.004116
 3160 Fit      -0.003608
 3161 Fit      -0.003229
 3162 Fit      -0.003160
 3163 Fit      -0.003586
 3164 Fit      -0.004618
 3165 Fit      -0.006150
 3166 Fit      -0.007788
 3167 Fit      -0.009014
 3168 Fit      -0.008303
 3169 Fit      -0.007990
 3170 Fit      -0.007155
 3171 Fit      -0.006083
 3172 Fit      -0.005130
 3173 Fit      -0.004539
 3174 Fit      -0.004356
 3175 Fit      -0.004490
 3176 Fit      -0.004798
 3177 Fit      -0.005149
 3178 Fit      -0.005453
 3179 Fit      -0.005665
 3180 Fit      -0.005776
 3181 Fit      -0.005801
 3182 Fit      -0.005770
 3183 Fit      -0.005715
 3184 Fit      -0.005669
 3185 Fit      -0.005651
 3186 Fit      -0.005669
 3187 Fit      -0.005715
 3188 Fit      -0.005770
 3189 Fit      -0.005801
 3190 Fit      -0.005776
 3191 Fit      -0.005665
 3192 Fit      -0.005453
 3193 Fit      -0.005148
 3194 Fit      -0.004798
 3195 Fit      -0.004490
 3196 Fit      -0.004356
 3197 Fit      -0.004539
 3198 Fit      -0.005130
 3199 Fit      -0.006083
 3200 Fit      -0.007155
 3201 Fit      -0.007990
 3202 Fit      -0.007608
 3203 Fit      -0.007379
 3204 Fit      -0.006790
 3205 Fit      -0.006089
 3206 Fit      -0.005538
 3207 Fit      -0.005275
 3208 Fit      -0.005285
 3209 Fit      -0.005463
 3210 Fit      -0.005692
 3211 Fit      -0.005887
 3212 Fit      -0.006007
 3213 Fit      -0.006050
 3214 Fit      -0.006038
 3215 Fit      -0.006005
 3216 Fit      -0.005979
 3217 Fit      -0.005979
 3218 Fit      -0.006005
 3219 Fit      -0.006038
 3220 Fit      -0.006050
 3221 Fit      -0.006007
 3222 Fit      -0.005887
 3223 Fit      -0.005692
 3224 Fit      -0.005463
 3225 Fit      -0.005285
 3226 Fit      -0.005275
 3227 Fit      -0.005538
 3228 Fit      -0.006089
 3229 Fit      -0.006790
 3230 Fit      -0.007379
 3231 Fit      -0.007214
 3232 Fit      -0.007050
 3233 Fit      -0.006652
 3234 Fit      -0.006227
 3235 Fit      -0.005959
 3236 Fit      -0.005899
 3237 Fit      -0.005986
 3238 Fit      -0.006122
 3239 Fit      -0.006230
 3240 Fit      -0.006283
 3241 Fit      -0.006287
 3242 Fit      -0.006272
 3243 Fit      -0.006263
 3244 Fit      -0.006272
 3245 Fit      -0.006287
 3246 Fit      -0.006283
 3247 Fit      -0.006230
 3248 Fit      -0.006121
 3249 Fit      -0.005986
 3250 Fit      -0.005899
 3251 Fit      -0.005959
 3252 Fit      -0.006227
 3253 Fit      -0.006651
 3254 Fit      -0.007050
 3255 Fit      -0.007012
 3256 Fit      -0.006889
 3257 Fit      -0.006623
 3258 Fit      -0.006408
 3259 Fit      -0.006344
 3260 Fit      -0.006391
 3261 Fit      -0.006460
 3262 Fit      -0.006497
 3263 Fit      -0.006502
 3264 Fit      -0.006499
 3265 Fit      -0.006502
 3266 Fit      -0.006497
 3267 Fit      -0.006460
 3268 Fit      -0.006391
 3269 Fit      -0.006344
 3270 Fit      -0.006408
 3271 Fit      -0.006623
 3272 Fit      -0.006889
 3273 Fit      -0.006923
 3274 Fit      -0.006833
 3275 Fit      -0.006685
 3276 Fit      -0.006631
 3277 Fit      -0.006651
 3278 Fit      -0.006671
 3279 Fit      -0.006674
 3280 Fit      -0.006671
 3281 Fit      -0.006651
 3282 Fit      -0.006631
 3283 Fit      -0.006685
 3284 Fit      -0.006833
 3285 Fit      -0.006885
 3286 Fit      -0.006824
 3287 Fit      -0.006787
 3288 Fit      -0.006788
 3289 Fit      -0.006787
 3290 Fit      -0.006824
 3291 Fit      -0.006851
 3292 Fit       0.006169
 3293 Fit       0.007871
 3294 Fit       0.005424
 3295 Fit       0.007311
 3296 Fit       0.009412
 3297 Fit       0.011895
 3298 Fit       0.014869
 3299 Fit       0.008092
 3300 Fit       0.009276
 3301 Fit       0.011050
 3302 Fit       0.013489
 3303 Fit       0.017130
 3304 Fit       0.009470
 3305 Fit       0.010611
 3306 Fit       0.012505
 3307 Fit       0.015331
 3308 Fit       0.020025
 3309 Fit       0.009470
 3310 Fit       0.010611
 3311 Fit       0.012505
 3312 Fit       0.015331
 3313 Fit       0.020025
 3314 Fit       0.008091
 3315 Fit       0.009276
 3316 Fit       0.011050
 3317 Fit       0.013490
 3318 Fit       0.017131
 3319 Fit       0.005423
 3320 Fit       0.007311
 3321 Fit       0.009412
 3322 Fit       0.011896
 3323 Fit       0.014871
 3324 Fit       0.006169
 3325 Fit       0.007872
 3326 Fit       0.007873
 3327 Fit       0.006170
 3328 Fit       0.014871
 3329 Fit       0.011896
 3330 Fit       0.009412
 3331 Fit       0.007311
 3332 Fit       0.005424
 3333 Fit       0.017131
 3334 Fit       0.013490
 3335 Fit       0.011050
 3336 Fit       0.009276
 3337 Fit       0.008092
 3338 Fit       0.020025
 3339 Fit       0.015331
 3340 Fit       0.012505
 3341 Fit       0.010611
 3342 Fit       0.009470
 3343 Fit       0.020025
 3344 Fit       0.015331
 3345 Fit       0.012505
 3346 Fit       0.010611
 3347 Fit       0.009470
 3348 Fit       0.017130
 3349 Fit       0.013489
 3350 Fit       0.011049
 3351 Fit       0.009276
 3352 Fit       0.008091
 3353 Fit       0.014869
 3354 Fit       0.011895
 3355 Fit       0.009411
 3356 Fit       0.007310
 3357 Fit       0.005423
 3358 Fit       0.007871
 3359 Fit       0.006169
 3360 Fit       0.012882
 3361 Fit       0.016097
 3362 Fit       0.017213
 3363 Fit       0.017495
 3364 Fit       0.017137
 3365 Fit       0.020055
 3366 Fit       0.020159
 3367 Fit       0.020241
 3368 Fit       0.020105
 3369 Fit       0.019794
 3370 Fit       0.021235
 3371 Fit       0.022111
 3372 Fit       0.021706
 3373 Fit       0.021587
 3374 Fit       0.021393
 3375 Fit       0.021159
 3376 Fit       0.021234
 3377 Fit       0.022110
 3378 Fit       0.021706
 3379 Fit       0.021587
 3380 Fit       0.021393
 3381 Fit       0.021159
 3382 Fit       0.020054
 3383 Fit       0.020159
 3384 Fit       0.020241
 3385 Fit       0.020105
 3386 Fit       0.019794
 3387 Fit       0.016097
 3388 Fit       0.017213
 3389 Fit       0.017495
 3390 Fit       0.017137
 3391 Fit       0.012882
 3392 Fit       0.012884
 3393 Fit       0.017137
 3394 Fit       0.017496
 3395 Fit       0.017214
 3396 Fit       0.016098
 3397 Fit       0.019794
 3398 Fit       0.020105
 3399 Fit       0.020242
 3400 Fit       0.020159
 3401 Fit       0.020055
 3402 Fit       0.021234
 3403 Fit       0.021159
 3404 Fit       0.021394
 3405 Fit       0.021587
 3406 Fit       0.021706
 3407 Fit       0.022111
 3408 Fit       0.021234
 3409 Fit       0.021158
 3410 Fit       0.021393
 3411 Fit       0.021587
 3412 Fit       0.021706
 3413 Fit       0.022110
 3414 Fit       0.019794
 3415 Fit       0.020104
 3416 Fit       0.020241
 3417 Fit       0.020158
 3418 Fit       0.020054
 3419 Fit       0.017136
 3420 Fit       0.017494
 3421 Fit       0.017212
 3422 Fit       0.016096
 3423 Fit       0.012881
 -----------------------------------------------------------------
 Leave Link  602 at Fri Jan 17 11:54:38 2014, MaxMem=   235929600 cpu:         0.6

 Test job not archived.
 1\1\GINC-G29\SP\RHF\Gen\C6H6I1N1\KOLAR\17-Jan-2014\0\\# hf/gen pseudo=
 read pop=(mk, readradii) iop(6/33=2,6/41=5,6/42=2)\\na resp\\0,1\C,0,-
 2.276445,1.207979,0.000023\C,0,-0.883746,1.208289,0.000022\C,0,-0.1882
 13,-0.000001,0.000023\C,0,-0.883746,-1.20829,0.000027\C,0,-2.276446,-1
 .20798,0.00001\C,0,-2.99965,-0.000001,-0.00001\N,0,-4.376482,0.000001,
 -0.000043\I,0,1.958555,0.,-0.000007\H,0,-2.81125,2.155105,0.000071\H,0
 ,-0.351394,2.153558,0.000032\H,0,-0.351396,-2.153559,0.000065\H,0,-2.8
 11249,-2.155106,0.000018\H,0,-4.896626,0.861333,-0.000094\H,0,-4.89662
 8,-0.86133,0.000029\\Version=AM64L-G09RevD.01\State=1-A\HF=-296.294880
 5\RMSD=4.167e-09\Dipole=-1.5767842,0.0000006,0.0000375\Quadrupole=8.48
 90465,0.547905,-9.0369515,-0.0000031,-0.0002195,-0.0001772\PG=C01 [X(C
 6H6I1N1)]\\@


 BETTER TO HUNT IN FIELDS, FOR HEALTH UNBOUGHT
 THAN FEE THE DOCTOR FOR A NAUSEOUS DRAUGHT.
 THE WISE, FOR CURE, ON EXERCISE DEPEND;
 GOD NEVER MADE HIS WORK FOR MAN TO MEND.
     -- JOHN DRYDEN (1631-1700)
 Job cpu time:       0 days  0 hours  0 minutes  6.4 seconds.
 File lengths (MBytes):  RWF=      7 Int=      0 D2E=      0 Chk=      2 Scr=      1
 Normal termination of Gaussian 09 at Fri Jan 17 11:54:38 2014.
6.13user 0.32system 0:06.93elapsed 92%CPU (0avgtext+0avgdata 1010912maxresident)k
8inputs+15976outputs (0major+215820minor)pagefaults 0swaps
