Linux g54 2.6.38.6-client #1 SMP Tue Jun 12 11:27:21 CEST 2012 x86_64 GNU/Linux
Thu Jan 16 22:36:46 CET 2014

 Entering Gaussian System, Link 0=/usr/local/programs/common/gaussian/gaussian09_d01/arch/amd64-pgi_10.4.0-acml/g09/g09
 Initial command:
 /usr/local/programs/common/gaussian/gaussian09_d01/arch/amd64-pgi_10.4.0-acml/g09/l1.exe "/scratch/kolar/g09_25574/Gau-1710.inp" -scrdir="/scratch/kolar/g09_25574/"
 Entering Link 1 = /usr/local/programs/common/gaussian/gaussian09_d01/arch/amd64-pgi_10.4.0-acml/g09/l1.exe PID=      1712.
  
 Copyright (c) 1988,1990,1992,1993,1995,1998,2003,2009,2013,
            Gaussian, Inc.  All Rights Reserved.
  
 This is part of the Gaussian(R) 09 program.  It is based on
 the Gaussian(R) 03 system (copyright 2003, Gaussian, Inc.),
 the Gaussian(R) 98 system (copyright 1998, Gaussian, Inc.),
 the Gaussian(R) 94 system (copyright 1995, Gaussian, Inc.),
 the Gaussian 92(TM) system (copyright 1992, Gaussian, Inc.),
 the Gaussian 90(TM) system (copyright 1990, Gaussian, Inc.),
 the Gaussian 88(TM) system (copyright 1988, Gaussian, Inc.),
 the Gaussian 86(TM) system (copyright 1986, Carnegie Mellon
 University), and the Gaussian 82(TM) system (copyright 1983,
 Carnegie Mellon University). Gaussian is a federally registered
 trademark of Gaussian, Inc.
  
 This software contains proprietary and confidential information,
 including trade secrets, belonging to Gaussian, Inc.
  
 This software is provided under written license and may be
 used, copied, transmitted, or stored only in accord with that
 written license.
  
 The following legend is applicable only to US Government
 contracts under FAR:
  
                    RESTRICTED RIGHTS LEGEND
  
 Use, reproduction and disclosure by the US Government is
 subject to restrictions as set forth in subparagraphs (a)
 and (c) of the Commercial Computer Software - Restricted
 Rights clause in FAR 52.227-19.
  
 Gaussian, Inc.
 340 Quinnipiac St., Bldg. 40, Wallingford CT 06492
  
  
 ---------------------------------------------------------------
 Warning -- This program may not be used in any manner that
 competes with the business of Gaussian, Inc. or will provide
 assistance to any competitor of Gaussian, Inc.  The licensee
 of this program is prohibited from giving any competitor of
 Gaussian, Inc. access to this program.  By using this program,
 the user acknowledges that Gaussian, Inc. is engaged in the
 business of creating and licensing software in the field of
 computational chemistry and represents and warrants to the
 licensee that it is not a competitor of Gaussian, Inc. and that
 it will not use this program in any manner prohibited above.
 ---------------------------------------------------------------
  

 Cite this work as:
 Gaussian 09, Revision D.01,
 M. J. Frisch, G. W. Trucks, H. B. Schlegel, G. E. Scuseria, 
 M. A. Robb, J. R. Cheeseman, G. Scalmani, V. Barone, B. Mennucci, 
 G. A. Petersson, H. Nakatsuji, M. Caricato, X. Li, H. P. Hratchian, 
 A. F. Izmaylov, J. Bloino, G. Zheng, J. L. Sonnenberg, M. Hada, 
 M. Ehara, K. Toyota, R. Fukuda, J. Hasegawa, M. Ishida, T. Nakajima, 
 Y. Honda, O. Kitao, H. Nakai, T. Vreven, J. A. Montgomery, Jr., 
 J. E. Peralta, F. Ogliaro, M. Bearpark, J. J. Heyd, E. Brothers, 
 K. N. Kudin, V. N. Staroverov, T. Keith, R. Kobayashi, J. Normand, 
 K. Raghavachari, A. Rendell, J. C. Burant, S. S. Iyengar, J. Tomasi, 
 M. Cossi, N. Rega, J. M. Millam, M. Klene, J. E. Knox, J. B. Cross, 
 V. Bakken, C. Adamo, J. Jaramillo, R. Gomperts, R. E. Stratmann, 
 O. Yazyev, A. J. Austin, R. Cammi, C. Pomelli, J. W. Ochterski, 
 R. L. Martin, K. Morokuma, V. G. Zakrzewski, G. A. Voth, 
 P. Salvador, J. J. Dannenberg, S. Dapprich, A. D. Daniels, 
 O. Farkas, J. B. Foresman, J. V. Ortiz, J. Cioslowski, 
 and D. J. Fox, Gaussian, Inc., Wallingford CT, 2013.
 
 ******************************************
 Gaussian 09:  AM64L-G09RevD.01 24-Apr-2013
                16-Jan-2014 
 ******************************************
 %mem=1800mb
 -----------------------------------------
 # hf/gen pop=mk iop(6/33=2,6/41=5,6/42=2)
 -----------------------------------------
 1/38=1/1;
 2/12=2,17=6,18=5,40=1/2;
 3/5=7,11=9,16=1,25=1,30=1/1,2,3;
 4//1;
 5/5=2,38=5/2;
 6/7=2,8=2,9=2,10=2,15=8,20=1,28=1,33=2,41=5,42=2/1,2;
 99/5=1,9=1/99;
 -------
 na resp
 -------
 Symbolic Z-matrix:
 Charge =  0 Multiplicity = 1
 6                    -2.28621   2.17858   0.00254 
 6                    -0.97846   1.43023  -0.0102 
 6                     0.24101   2.11534  -0.02741 
 6                     1.46851   1.44711  -0.04 
 6                     1.52727   0.04284  -0.04066 
 6                     0.30921  -0.64261  -0.01991 
 6                    -0.90762   0.03285  -0.00528 
 35                   -2.52357  -1.00343   0.02007 
 6                     2.85853  -0.69832  -0.04327 
 6                     2.96078  -1.70188  -1.20648 
 6                     3.11327  -1.38999   1.31032 
 8                     2.65388   2.1377   -0.0506 
 1                    -2.87877   1.92615   0.88959 
 1                    -2.11944   3.2598   -0.00382 
 1                    -2.89981   1.9191   -0.86803 
 1                     0.22954   3.20474  -0.03032 
 1                     0.30474  -1.72759  -0.01601 
 1                     3.6436    0.05091  -0.18361 
 1                     2.80554  -1.20847  -2.17204 
 1                     2.2185   -2.5039   -1.11672 
 1                     3.95175  -2.17088  -1.21882 
 1                     4.09505  -1.87865   1.315 
 1                     3.08804  -0.6686    2.13416 
 1                     2.35613  -2.15713   1.51337 
 1                     2.46135   3.08789  -0.05832 
 
                          Input orientation:                          
 ---------------------------------------------------------------------
 Center     Atomic      Atomic             Coordinates (Angstroms)
 Number     Number       Type             X           Y           Z
 ---------------------------------------------------------------------
      1          6           0       -2.286208    2.178581    0.002537
      2          6           0       -0.978464    1.430232   -0.010199
      3          6           0        0.241012    2.115344   -0.027412
      4          6           0        1.468513    1.447114   -0.039995
      5          6           0        1.527271    0.042840   -0.040659
      6          6           0        0.309211   -0.642613   -0.019909
      7          6           0       -0.907624    0.032849   -0.005279
      8         35           0       -2.523573   -1.003425    0.020070
      9          6           0        2.858534   -0.698318   -0.043271
     10          6           0        2.960783   -1.701884   -1.206478
     11          6           0        3.113273   -1.389991    1.310317
     12          8           0        2.653876    2.137696   -0.050596
     13          1           0       -2.878767    1.926153    0.889592
     14          1           0       -2.119442    3.259802   -0.003817
     15          1           0       -2.899814    1.919098   -0.868028
     16          1           0        0.229540    3.204739   -0.030324
     17          1           0        0.304739   -1.727587   -0.016011
     18          1           0        3.643596    0.050910   -0.183613
     19          1           0        2.805544   -1.208466   -2.172042
     20          1           0        2.218505   -2.503902   -1.116725
     21          1           0        3.951753   -2.170882   -1.218824
     22          1           0        4.095048   -1.878653    1.315001
     23          1           0        3.088039   -0.668597    2.134157
     24          1           0        2.356131   -2.157130    1.513366
     25          1           0        2.461352    3.087888   -0.058319
 ---------------------------------------------------------------------
                    Distance matrix (angstroms):
                    1          2          3          4          5
     1  C    0.000000
     2  C    1.506779   0.000000
     3  C    2.528188   1.398855   0.000000
     4  C    3.825543   2.447217   1.397658   0.000000
     5  C    4.371027   2.864348   2.439244   1.405503   0.000000
     6  C    3.833515   2.440264   2.758810   2.389842   1.397836
     7  C    2.550435   1.399186   2.378369   2.765389   2.435173
     8  Br   3.190895   2.882874   4.167962   4.684602   4.184220
     9  C    5.894660   4.387980   3.842963   2.556374   1.523674
    10  C    6.637066   5.172901   4.833072   3.674744   2.541290
    11  C    6.602983   5.141958   4.725122   3.546511   2.528546
    12  O    4.940539   3.700815   2.413079   1.371897   2.378604
    13  H    1.096227   2.160258   3.257255   4.471292   4.881127
    14  H    1.094025   2.156200   2.623373   4.020021   4.862995
    15  H    1.096233   2.160196   3.257290   4.471095   4.878931
    16  H    2.717180   2.146754   1.089459   2.150440   3.417867
    17  H    4.687377   3.408587   3.843476   3.381371   2.151651
    18  H    6.302715   4.826597   3.982947   2.588629   2.121163
    19  H    6.490518   5.094606   4.714231   3.658604   2.782542
    20  H    6.593242   5.188682   5.141451   4.163215   2.849845
    21  H    7.702059   6.223812   5.793168   4.543788   3.488087
    22  H    7.674903   6.200435   5.710313   4.449205   3.481871
    23  H    6.444591   5.053691   4.530813   3.438900   2.769831
    24  H    6.529342   5.129322   5.010166   4.023850   2.818132
    25  H    4.834239   3.818700   2.424192   1.917865   3.185143
                    6          7          8          9         10
     6  C    0.000000
     7  C    1.391815   0.000000
     8  Br   2.855950   1.919843   0.000000
     9  C    2.550039   3.836665   5.391120   0.000000
    10  C    3.092060   4.406444   5.663076   1.539692   0.000000
    11  C    3.192309   4.463505   5.795533   1.541267   2.540627
    12  O    3.637102   4.137235   6.056205   2.843398   4.021521
    13  H    4.193919   2.875900   3.076469   6.377672   7.187246
    14  H    4.596461   3.446989   4.282406   6.359915   7.202320
    15  H    4.192793   2.875951   3.077567   6.378845   6.897293
    16  H    3.848191   3.369667   5.028997   4.705914   5.737419
    17  H    1.084990   2.137539   2.919771   2.753544   2.910746
    18  H    3.409677   4.554748   6.259959   1.094240   2.141208
    19  H    3.344181   4.474745   5.766011   2.189686   1.095388
    20  H    2.883194   4.176494   5.102062   2.195922   1.096479
    21  H    4.128089   5.471989   6.695346   2.178416   1.096418
    22  H    4.200279   5.515769   6.800663   2.183360   2.770498
    23  H    3.516043   4.586342   6.005969   2.189691   3.499103
    24  H    2.972301   4.213596   5.231871   2.191725   2.823190
    25  H    4.306951   4.548195   6.449377   3.807011   4.950719
                   11         12         13         14         15
    11  C    0.000000
    12  O    3.808898   0.000000
    13  H    6.861367   5.615945   0.000000
    14  H    7.122417   4.903659   1.775774   0.000000
    15  H    7.200866   5.617780   1.757760   1.775761   0.000000
    16  H    5.587914   2.648848   3.484623   2.349777   3.485323
    17  H    3.124257   4.523279   4.929974   5.545345   4.928834
    18  H    2.142257   2.313421   6.870919   6.598630   6.839208
    19  H    3.500639   3.964888   7.177105   6.994434   6.635753
    20  H    2.816370   4.782323   7.045060   7.299084   6.769193
    21  H    2.776579   4.648988   8.239364   8.235774   7.987175
    22  H    1.096674   4.480278   7.955603   8.170856   8.253280
    23  H    1.095335   3.582865   6.624533   6.864482   7.180784
    24  H    1.096811   4.580410   6.668317   7.188585   7.064816
    25  H    4.727533   0.969531   5.546624   4.584343   5.546512
                   16         17         18         19         20
    16  H    0.000000
    17  H    4.932920   0.000000
    18  H    4.650367   3.786701   0.000000
    19  H    5.540680   3.342451   2.498441   0.000000
    20  H    6.142054   2.340243   3.070610   1.771006   0.000000
    21  H    6.645653   3.865745   2.470421   1.774448   1.767901
    22  H    6.526326   4.020057   2.484525   3.777756   3.134588
    23  H    5.278137   3.673070   2.489657   4.349093   3.833102
    24  H    5.971181   2.594554   3.068020   3.831993   2.656421
    25  H    2.235044   5.276511   3.261385   4.800516   5.696254
                   21         22         23         24         25
    21  H    0.000000
    22  H    2.554643   0.000000
    23  H    3.774300   1.774632   0.000000
    24  H    3.164026   1.772211   1.771102   0.000000
    25  H    5.587730   5.405691   4.394413   5.476448   0.000000
 Stoichiometry    C10H13BrO
 Framework group  C1[X(C10H13BrO)]
 Deg. of freedom    69
 Full point group                 C1      NOp   1
 Largest Abelian subgroup         C1      NOp   1
 Largest concise Abelian subgroup C1      NOp   1
                         Standard orientation:                         
 ---------------------------------------------------------------------
 Center     Atomic      Atomic             Coordinates (Angstroms)
 Number     Number       Type             X           Y           Z
 ---------------------------------------------------------------------
      1          6           0       -2.286208    2.178581    0.002537
      2          6           0       -0.978464    1.430232   -0.010199
      3          6           0        0.241012    2.115344   -0.027412
      4          6           0        1.468513    1.447114   -0.039995
      5          6           0        1.527271    0.042840   -0.040659
      6          6           0        0.309211   -0.642613   -0.019909
      7          6           0       -0.907624    0.032849   -0.005279
      8         35           0       -2.523573   -1.003425    0.020070
      9          6           0        2.858534   -0.698318   -0.043271
     10          6           0        2.960783   -1.701884   -1.206478
     11          6           0        3.113273   -1.389991    1.310317
     12          8           0        2.653876    2.137696   -0.050596
     13          1           0       -2.878767    1.926153    0.889592
     14          1           0       -2.119442    3.259802   -0.003817
     15          1           0       -2.899814    1.919098   -0.868028
     16          1           0        0.229540    3.204739   -0.030324
     17          1           0        0.304739   -1.727587   -0.016011
     18          1           0        3.643596    0.050910   -0.183613
     19          1           0        2.805544   -1.208466   -2.172042
     20          1           0        2.218505   -2.503902   -1.116725
     21          1           0        3.951753   -2.170882   -1.218824
     22          1           0        4.095048   -1.878653    1.315001
     23          1           0        3.088039   -0.668597    2.134157
     24          1           0        2.356131   -2.157130    1.513366
     25          1           0        2.461352    3.087888   -0.058319
 ---------------------------------------------------------------------
 Rotational constants (GHZ):      1.0227337      0.4106085      0.3133107
 General basis read from cards:  (5D, 7F)
 There are   221 symmetry adapted cartesian basis functions of A   symmetry.
 There are   208 symmetry adapted basis functions of A   symmetry.
   208 basis functions,   443 primitive gaussians,   221 cartesian basis functions
    58 alpha electrons       58 beta electrons
       nuclear repulsion energy       971.2434014585 Hartrees.
 NAtoms=   25 NActive=   25 NUniq=   25 SFac= 1.00D+00 NAtFMM=   60 NAOKFM=F Big=F
 Integral buffers will be    131072 words long.
 Raffenetti 1 integral format.
 Two-electron integral symmetry is turned on.
 One-electron integrals computed using PRISM.
 NBasis=   208 RedAO= T EigKep=  3.70D-04  NBF=   208
 NBsUse=   208 1.00D-06 EigRej= -1.00D+00 NBFU=   208
 ExpMin= 1.43D-01 ExpMax= 5.74D+05 ExpMxC= 5.74D+03 IAcc=2 IRadAn=         4 AccDes= 0.00D+00
 Harris functional with IExCor=  205 and IRadAn=       4 diagonalized for initial guess.
 HarFok:  IExCor=  205 AccDes= 0.00D+00 IRadAn=         4 IDoV= 1 UseB2=F ITyADJ=14
 ICtDFT=  3500011 ScaDFX=  1.000000  1.000000  1.000000  1.000000
 FoFCou: FMM=F IPFlag=           0 FMFlag=      100000 FMFlg1=           0
         NFxFlg=           0 DoJE=T BraDBF=F KetDBF=T FulRan=T
         wScrn=  0.000000 ICntrl=     500 IOpCl=  0 I1Cent=   200000004 NGrid=           0
         NMat0=    1 NMatS0=      1 NMatT0=    0 NMatD0=    1 NMtDS0=    0 NMtDT0=    0
 Petite list used in FoFCou.
 Requested convergence on RMS density matrix=1.00D-08 within 128 cycles.
 Requested convergence on MAX density matrix=1.00D-06.
 Requested convergence on             energy=1.00D-06.
 No special actions if energy rises.
 Integral accuracy reduced to 1.0D-05 until final iterations.
 Initial convergence to 1.0D-05 achieved.  Increase integral accuracy.
 SCF Done:  E(RHF) =  -3030.70250727     A.U. after   15 cycles
            NFock= 15  Conv=0.60D-08     -V/T= 1.9990

 **********************************************************************

            Population analysis using the SCF density.

 **********************************************************************

 Orbital symmetries:
 BldTbl:  Degeneracy threshold= 1.00D-02
       Occupied  (A) (A) (A) (A) (A) (A) (A) (A) (A) (A) (A) (A)
                 (A) (A) (A) (A) (A) (A) (A) (A) (A) (A) (A) (A)
                 (A) (A) (A) (A) (A) (A) (A) (A) (A) (A) (A) (A)
                 (A) (A) (A) (A) (A) (A) (A) (A) (A) (A) (A) (A)
                 (A) (A) (A) (A) (A) (A) (A) (A) (A) (A)
       Virtual   (A) (A) (A) (A) (A) (A) (A) (A) (A) (A) (A) (A)
                 (A) (A) (A) (A) (A) (A) (A) (A) (A) (A) (A) (A)
                 (A) (A) (A) (A) (A) (A) (A) (A) (A) (A) (A) (A)
                 (A) (A) (A) (A) (A) (A) (A) (A) (A) (A) (A) (A)
                 (A) (A) (A) (A) (A) (A) (A) (A) (A) (A) (A) (A)
                 (A) (A) (A) (A) (A) (A) (A) (A) (A) (A) (A) (A)
                 (A) (A) (A) (A) (A) (A) (A) (A) (A) (A) (A) (A)
                 (A) (A) (A) (A) (A) (A) (A) (A) (A) (A) (A) (A)
                 (A) (A) (A) (A) (A) (A) (A) (A) (A) (A) (A) (A)
                 (A) (A) (A) (A) (A) (A) (A) (A) (A) (A) (A) (A)
                 (A) (A) (A) (A) (A) (A) (A) (A) (A) (A) (A) (A)
                 (A) (A) (A) (A) (A) (A) (A) (A) (A) (A) (A) (A)
                 (A) (A) (A) (A) (A) (A)
 The electronic state is 1-A.
 Alpha  occ. eigenvalues -- -489.83617 -64.37983 -58.54666 -58.54497 -58.54486
 Alpha  occ. eigenvalues --  -20.59835 -11.31042 -11.28726 -11.26311 -11.24885
 Alpha  occ. eigenvalues --  -11.24139 -11.24089 -11.23206 -11.22940 -11.21248
 Alpha  occ. eigenvalues --  -11.21172  -9.65728  -7.47278  -7.46427  -7.46420
 Alpha  occ. eigenvalues --   -3.21591  -3.21180  -3.21178  -3.20188  -3.20187
 Alpha  occ. eigenvalues --   -1.40759  -1.17099  -1.09499  -1.04493  -1.02823
 Alpha  occ. eigenvalues --   -0.96185  -0.93467  -0.92740  -0.85081  -0.81932
 Alpha  occ. eigenvalues --   -0.76378  -0.72854  -0.68489  -0.62840  -0.60527
 Alpha  occ. eigenvalues --   -0.60272  -0.60030  -0.59155  -0.58443  -0.57704
 Alpha  occ. eigenvalues --   -0.55622  -0.54105  -0.53575  -0.52626  -0.49679
 Alpha  occ. eigenvalues --   -0.49471  -0.47652  -0.46869  -0.46110  -0.41675
 Alpha  occ. eigenvalues --   -0.40587  -0.33593  -0.30473
 Alpha virt. eigenvalues --    0.13017   0.14214   0.17338   0.21296   0.23346
 Alpha virt. eigenvalues --    0.25056   0.27660   0.28072   0.29928   0.30067
 Alpha virt. eigenvalues --    0.31236   0.33057   0.33803   0.34628   0.35170
 Alpha virt. eigenvalues --    0.36541   0.37249   0.38275   0.40567   0.43724
 Alpha virt. eigenvalues --    0.44853   0.46265   0.49171   0.51133   0.51942
 Alpha virt. eigenvalues --    0.57465   0.63266   0.64240   0.65362   0.65987
 Alpha virt. eigenvalues --    0.66991   0.67482   0.68645   0.69015   0.70086
 Alpha virt. eigenvalues --    0.72561   0.73593   0.74036   0.75146   0.75489
 Alpha virt. eigenvalues --    0.75720   0.78223   0.81272   0.82990   0.84235
 Alpha virt. eigenvalues --    0.87324   0.88887   0.89944   0.92852   0.94336
 Alpha virt. eigenvalues --    0.96196   0.97026   0.98874   0.99378   0.99918
 Alpha virt. eigenvalues --    1.01950   1.02247   1.06324   1.07238   1.08290
 Alpha virt. eigenvalues --    1.09665   1.10296   1.11586   1.12991   1.14427
 Alpha virt. eigenvalues --    1.15979   1.17393   1.17430   1.18526   1.18669
 Alpha virt. eigenvalues --    1.19172   1.20342   1.24304   1.24564   1.25474
 Alpha virt. eigenvalues --    1.26822   1.27545   1.29884   1.33124   1.35463
 Alpha virt. eigenvalues --    1.36135   1.42047   1.46256   1.47728   1.49861
 Alpha virt. eigenvalues --    1.54504   1.56189   1.61468   1.62181   1.64502
 Alpha virt. eigenvalues --    1.65841   1.66244   1.69467   1.72701   1.75964
 Alpha virt. eigenvalues --    1.77877   1.83521   1.90604   1.91891   2.01005
 Alpha virt. eigenvalues --    2.02873   2.04186   2.06748   2.08723   2.09713
 Alpha virt. eigenvalues --    2.15534   2.16679   2.17310   2.19757   2.20414
 Alpha virt. eigenvalues --    2.21043   2.25331   2.28698   2.30227   2.33578
 Alpha virt. eigenvalues --    2.36949   2.37687   2.38670   2.41265   2.47135
 Alpha virt. eigenvalues --    2.47317   2.50242   2.52888   2.55797   2.59243
 Alpha virt. eigenvalues --    2.60855   2.62522   2.64240   2.66928   2.68287
 Alpha virt. eigenvalues --    2.70830   2.72050   2.76087   2.76739   2.80111
 Alpha virt. eigenvalues --    2.88534   2.89658   2.91712   2.98469   3.01745
 Alpha virt. eigenvalues --    3.07590   3.11201   3.16291   3.19507   3.19859
 Alpha virt. eigenvalues --    3.25255   3.36485   3.53340   3.76802   9.20642
          Condensed to atoms (all electrons):
               1          2          3          4          5          6
     1  C    5.121957   0.322703  -0.034422   0.001936   0.000303   0.002571
     2  C    0.322703   4.831554   0.519499  -0.034573  -0.022816  -0.043784
     3  C   -0.034422   0.519499   5.129782   0.526828  -0.055030  -0.044930
     4  C    0.001936  -0.034573   0.526828   4.422184   0.582999  -0.033192
     5  C    0.000303  -0.022816  -0.055030   0.582999   4.968294   0.534459
     6  C    0.002571  -0.043784  -0.044930  -0.033192   0.534459   4.968118
     7  C   -0.051302   0.553985  -0.046154  -0.029683  -0.045393   0.532004
     8  Br  -0.012063  -0.066718   0.003559   0.000309   0.002194  -0.072035
     9  C    0.000004   0.000049   0.004110  -0.034679   0.300591  -0.043261
    10  C    0.000000   0.000002  -0.000098   0.000002  -0.059230  -0.004868
    11  C    0.000000   0.000011  -0.000150  -0.001932  -0.061919  -0.003330
    12  O   -0.000042   0.004471  -0.055878   0.231965  -0.051405   0.002475
    13  H    0.390755  -0.036676   0.000235  -0.000048   0.000009   0.000003
    14  H    0.390922  -0.043066  -0.002379   0.000331  -0.000009  -0.000031
    15  H    0.390784  -0.036769   0.000239  -0.000048   0.000009   0.000014
    16  H   -0.002820  -0.020548   0.371608  -0.035164   0.002024   0.000378
    17  H   -0.000090   0.002185   0.000212   0.002065  -0.028828   0.378424
    18  H    0.000000  -0.000031   0.000523  -0.002904  -0.054438   0.003117
    19  H    0.000000  -0.000006  -0.000013   0.000052  -0.001520   0.000591
    20  H    0.000000  -0.000003   0.000004  -0.000015  -0.006005   0.001560
    21  H    0.000000   0.000000   0.000001   0.000008   0.005679  -0.000009
    22  H    0.000000   0.000000   0.000001   0.000009   0.005971  -0.000028
    23  H    0.000000  -0.000008  -0.000026   0.000193  -0.002220   0.000423
    24  H    0.000000  -0.000005   0.000007   0.000204  -0.005459   0.001892
    25  H   -0.000012   0.000694   0.001572  -0.039071   0.004618  -0.000085
               7          8          9         10         11         12
     1  C   -0.051302  -0.012063   0.000004   0.000000   0.000000  -0.000042
     2  C    0.553985  -0.066718   0.000049   0.000002   0.000011   0.004471
     3  C   -0.046154   0.003559   0.004110  -0.000098  -0.000150  -0.055878
     4  C   -0.029683   0.000309  -0.034679   0.000002  -0.001932   0.231965
     5  C   -0.045393   0.002194   0.300591  -0.059230  -0.061919  -0.051405
     6  C    0.532004  -0.072035  -0.043261  -0.004868  -0.003330   0.002475
     7  C    4.855136   0.297063   0.001597   0.000122   0.000025   0.000056
     8  Br   0.297063  35.005715  -0.000105   0.000000   0.000002   0.000001
     9  C    0.001597  -0.000105   5.083476   0.345191   0.343610  -0.006390
    10  C    0.000122   0.000000   0.345191   5.140307  -0.067070   0.000184
    11  C    0.000025   0.000002   0.343610  -0.067070   5.140081   0.000370
    12  O    0.000056   0.000001  -0.006390   0.000184   0.000370   8.419548
    13  H   -0.004962   0.000794   0.000000   0.000000   0.000000   0.000000
    14  H    0.003711   0.000630   0.000000   0.000000   0.000000  -0.000001
    15  H   -0.004919   0.000788   0.000000   0.000000   0.000000   0.000000
    16  H    0.002363  -0.000104  -0.000101   0.000002   0.000002  -0.003015
    17  H   -0.028501  -0.000695  -0.001744   0.000044   0.000185  -0.000036
    18  H    0.000000   0.000001   0.425076  -0.039702  -0.038913   0.001049
    19  H   -0.000062   0.000001  -0.036108   0.390757   0.004341   0.000030
    20  H    0.000132  -0.000003  -0.034668   0.385340  -0.003111  -0.000005
    21  H   -0.000001   0.000000  -0.039230   0.390286  -0.002229  -0.000002
    22  H    0.000000   0.000000  -0.039145  -0.002477   0.387989  -0.000005
    23  H   -0.000014   0.000000  -0.035256   0.004306   0.391062   0.000215
    24  H    0.000051   0.000001  -0.035814  -0.003047   0.386190  -0.000009
    25  H   -0.000015   0.000000   0.000054  -0.000004  -0.000012   0.269494
              13         14         15         16         17         18
     1  C    0.390755   0.390922   0.390784  -0.002820  -0.000090   0.000000
     2  C   -0.036676  -0.043066  -0.036769  -0.020548   0.002185  -0.000031
     3  C    0.000235  -0.002379   0.000239   0.371608   0.000212   0.000523
     4  C   -0.000048   0.000331  -0.000048  -0.035164   0.002065  -0.002904
     5  C    0.000009  -0.000009   0.000009   0.002024  -0.028828  -0.054438
     6  C    0.000003  -0.000031   0.000014   0.000378   0.378424   0.003117
     7  C   -0.004962   0.003711  -0.004919   0.002363  -0.028501   0.000000
     8  Br   0.000794   0.000630   0.000788  -0.000104  -0.000695   0.000001
     9  C    0.000000   0.000000   0.000000  -0.000101  -0.001744   0.425076
    10  C    0.000000   0.000000   0.000000   0.000002   0.000044  -0.039702
    11  C    0.000000   0.000000   0.000000   0.000002   0.000185  -0.038913
    12  O    0.000000  -0.000001   0.000000  -0.003015  -0.000036   0.001049
    13  H    0.503845  -0.024814  -0.029406   0.000056   0.000002   0.000000
    14  H   -0.024814   0.520862  -0.024827   0.002703   0.000001   0.000000
    15  H   -0.029406  -0.024827   0.503901   0.000057   0.000001   0.000000
    16  H    0.000056   0.002703   0.000057   0.480740   0.000011  -0.000003
    17  H    0.000002   0.000001   0.000001   0.000011   0.442029   0.000003
    18  H    0.000000   0.000000   0.000000  -0.000003   0.000003   0.493291
    19  H    0.000000   0.000000   0.000000   0.000000   0.000049  -0.002019
    20  H    0.000000   0.000000   0.000000   0.000000   0.000772   0.003790
    21  H    0.000000   0.000000   0.000000   0.000000  -0.000030  -0.003261
    22  H    0.000000   0.000000   0.000000   0.000000  -0.000025  -0.002597
    23  H    0.000000   0.000000   0.000000   0.000001   0.000015  -0.002249
    24  H    0.000000   0.000000   0.000000   0.000000   0.000483   0.003787
    25  H    0.000000   0.000002   0.000000   0.004374   0.000003   0.000011
              19         20         21         22         23         24
     1  C    0.000000   0.000000   0.000000   0.000000   0.000000   0.000000
     2  C   -0.000006  -0.000003   0.000000   0.000000  -0.000008  -0.000005
     3  C   -0.000013   0.000004   0.000001   0.000001  -0.000026   0.000007
     4  C    0.000052  -0.000015   0.000008   0.000009   0.000193   0.000204
     5  C   -0.001520  -0.006005   0.005679   0.005971  -0.002220  -0.005459
     6  C    0.000591   0.001560  -0.000009  -0.000028   0.000423   0.001892
     7  C   -0.000062   0.000132  -0.000001   0.000000  -0.000014   0.000051
     8  Br   0.000001  -0.000003   0.000000   0.000000   0.000000   0.000001
     9  C   -0.036108  -0.034668  -0.039230  -0.039145  -0.035256  -0.035814
    10  C    0.390757   0.385340   0.390286  -0.002477   0.004306  -0.003047
    11  C    0.004341  -0.003111  -0.002229   0.387989   0.391062   0.386190
    12  O    0.000030  -0.000005  -0.000002  -0.000005   0.000215  -0.000009
    13  H    0.000000   0.000000   0.000000   0.000000   0.000000   0.000000
    14  H    0.000000   0.000000   0.000000   0.000000   0.000000   0.000000
    15  H    0.000000   0.000000   0.000000   0.000000   0.000000   0.000000
    16  H    0.000000   0.000000   0.000000   0.000000   0.000001   0.000000
    17  H    0.000049   0.000772  -0.000030  -0.000025   0.000015   0.000483
    18  H   -0.002019   0.003790  -0.003261  -0.002597  -0.002249   0.003787
    19  H    0.523156  -0.027719  -0.025512  -0.000057  -0.000096  -0.000072
    20  H   -0.027719   0.549725  -0.029109   0.000047  -0.000074   0.002493
    21  H   -0.025512  -0.029109   0.536804   0.001475  -0.000049  -0.000013
    22  H   -0.000057   0.000047   0.001475   0.540051  -0.025871  -0.028359
    23  H   -0.000096  -0.000074  -0.000049  -0.025871   0.522604  -0.027438
    24  H   -0.000072   0.002493  -0.000013  -0.028359  -0.027438   0.546981
    25  H   -0.000002   0.000000   0.000000   0.000000  -0.000006   0.000000
              25
     1  C   -0.000012
     2  C    0.000694
     3  C    0.001572
     4  C   -0.039071
     5  C    0.004618
     6  C   -0.000085
     7  C   -0.000015
     8  Br   0.000000
     9  C    0.000054
    10  C   -0.000004
    11  C   -0.000012
    12  O    0.269494
    13  H    0.000000
    14  H    0.000002
    15  H    0.000000
    16  H    0.004374
    17  H    0.000003
    18  H    0.000011
    19  H   -0.000002
    20  H    0.000000
    21  H    0.000000
    22  H    0.000000
    23  H   -0.000006
    24  H    0.000000
    25  H    0.291265
 Mulliken charges:
               1
     1  C   -0.521183
     2  C    0.069849
     3  C   -0.319103
     4  C    0.442223
     5  C   -0.012877
     6  C   -0.180476
     7  C   -0.035240
     8  Br  -0.159335
     9  C   -0.197257
    10  C   -0.480050
    11  C   -0.475200
    12  O   -0.813071
    13  H    0.200206
    14  H    0.175965
    15  H    0.200175
    16  H    0.197436
    17  H    0.233466
    18  H    0.215469
    19  H    0.174210
    20  H    0.156849
    21  H    0.165193
    22  H    0.163020
    23  H    0.174488
    24  H    0.158127
    25  H    0.467117
 Sum of Mulliken charges =   0.00000
 Mulliken charges with hydrogens summed into heavy atoms:
               1
     1  C    0.055163
     2  C    0.069849
     3  C   -0.121667
     4  C    0.442223
     5  C   -0.012877
     6  C    0.052990
     7  C   -0.035240
     8  Br  -0.159335
     9  C    0.018212
    10  C    0.016201
    11  C    0.020434
    12  O   -0.345954
 DipInt: DoE/N= T F RetVal/Mat= T F Init=T NMatP=  1 IDeriv=0 Min/MaxMlt=  0  4
 Entering OneElI...
 OneElI was handed   235801915 working-precision words.
 Multipole integrals L=0 to 4 MinM= 0 MaxM= 0.
 Requested accuracy = 0.1000D-12
 ShPair: Thresh= 1.00D-13 NBox=     0 BxSize= 0.00D+00 RnKept= 1.56D+01
         NSMCal=                 3403 NSMKep=                3021
 PrsmSu:  NPrtUS=   1 ThrOK=F IAlg=1 NPAlg=1 LenDen=           0.
 Prism:   IPart=     0 DynPar=F LinDyn=F Incr=          30.
 PRISM was handed   235541088 working-precision words and  3021 shell-pairs
 IPart=  0 NShTot=        3021 NBatch=         121 AvBLen=        25.0
 PrSmSu:  NxtVal=             31.
 Electronic moments (au):
       -116.00000000          0.34755276          0.93272457         -0.01597835
      -2243.12497006       -941.16995326       -197.27636704         -1.30533927
         -0.09733523         -0.08335968      -1689.27560685      -1381.68237389
        -33.53406743       -682.31443700       1684.68234770       -118.91955607
       -723.74481111        322.24524956         84.24547496        -21.09407997
     -65461.73054222     -15841.67492322      -1833.69418089       4135.04775934
       -655.99071405       2207.58615235       -197.71584174       -253.22967711
        -10.62939759     -18598.96770645      -5677.62780102      -1857.47455837
         78.87191279        415.81253582       2226.80706388
 Electronic spatial extent (au):  <R**2>=           3381.5713
 DipInt: DoE/N= F T RetVal/Mat= T F Init=T NMatP=  1 IDeriv=0 Min/MaxMlt=  0  4
 Nuclear    moments (au):
        116.00000000          0.00000000          0.00000000          0.00000000
       2177.83801702        886.47316499        131.11457253          0.00000000
         -0.00009542         -0.00000668       1580.97093751       1413.29221776
         33.82722129        667.22508658      -1692.89614386        118.58398380
        688.96803542       -333.60660523        -84.49073355         21.06607326
      58423.46806433      13108.93025970       1104.29463134      -3909.81997856
        643.90745968      -1709.04049604        184.44168955        244.45187194
         10.45961142      17003.27253825       4358.25863670       1168.31671039
        -79.27738769       -420.90969713      -2129.64372012
 Total      moments (au):
          0.00000000          0.34755276          0.93272457         -0.01597835
        -65.28695304        -54.69678827        -66.16179451         -1.30533927
         -0.09743065         -0.08336636       -108.30466934         31.60984387
          0.29315386        -15.08935041         -8.21379616         -0.33557227
        -34.77677569        -11.36135567         -0.24525859         -0.02800671
      -7038.26247788      -2732.74466352       -729.39954955        225.22778079
        -12.08325437        498.54565631        -13.27415219         -8.77780517
         -0.16978616      -1595.69516820      -1319.36916432       -689.15784798
         -0.40547490         -5.09716130         97.16334376
 Traceless Quadrup. (au):
         -3.23844109          7.35172367         -4.11328257         -1.30533927
         -0.09743065         -0.08336636
 Charge=              0.0000 electrons
 Dipole moment (field-independent basis, Debye):
    X=              0.8834    Y=              2.3707    Z=             -0.0406  Tot=              2.5303
 Quadrupole moment (field-independent basis, Debye-Ang):
   XX=            -87.8132   YY=            -73.5690   ZZ=            -88.9899
   XY=             -1.7557   XZ=             -0.1310   YZ=             -0.1121
 Traceless Quadrupole moment (field-independent basis, Debye-Ang):
   XX=             -4.3558   YY=              9.8883   ZZ=             -5.5325
   XY=             -1.7557   XZ=             -0.1310   YZ=             -0.1121
 Octapole moment (field-independent basis, Debye-Ang**2):
  XXX=            -77.0871  YYY=             22.4987  ZZZ=              0.2087  XYY=            -10.7400
  XXY=             -5.8463  XXZ=             -0.2388  XZZ=            -24.7528  YZZ=             -8.0866
  YYZ=             -0.1746  XYZ=             -0.0199
 Hexadecapole moment (field-independent basis, Debye-Ang**3):
 XXXX=          -2650.9470 YYYY=          -1029.2826 ZZZZ=           -274.7268 XXXY=             84.8316
 XXXZ=             -4.5511 YYYX=            187.7762 YYYZ=             -4.9997 ZZZX=             -3.3061
 ZZZY=             -0.0639 XXYY=           -601.0153 XXZZ=           -496.9377 YYZZ=           -259.5699
 XXYZ=             -0.1527 YYXZ=             -1.9198 ZZXY=             36.5964
 N-N= 9.712434014585D+02 E-N=-9.170452418113D+03  KE= 3.033877083770D+03
 Entering OneElI...
 OneElI was handed   235831190 working-precision words.
 Calculate electrostatic properties
    NBasis =   208  MinDer = 0  MaxDer = 0
    NGrid  =    25  NMatD  =   1
 Requested accuracy = 0.1000D-12
 ShPair: Thresh= 1.00D-13 NBox=     0 BxSize= 0.00D+00 RnKept= 1.56D+01
         NSMCal=                 3403 NSMKep=                2749
 PrsmSu:  NPrtUS=   1 ThrOK=F IAlg=1 NPAlg=1 LenDen=           0.
 Prism:   IPart=     0 DynPar=F LinDyn=F Incr=         512.
 PRISM was handed   235596857 working-precision words and  2749 shell-pairs
 IPart=  0 NShTot=       68725 NBatch=        2830 AvBLen=        24.3
 PrSmSu:  NxtVal=            513.
 --------------------------------------------------------
       Center         ----      EFG at Nuclei      ----
                      3XX-RR        3YY-RR        3ZZ-RR
 --------------------------------------------------------
     1   Atom       -0.033651     -0.008232      0.041883
     2   Atom        0.186413      0.162806     -0.349219
     3   Atom        0.128972      0.040101     -0.169074
     4   Atom        0.000122      0.254940     -0.255061
     5   Atom        0.143262      0.105134     -0.248396
     6   Atom        0.174305      0.161298     -0.335603
     7   Atom       -0.144331      0.133321      0.011010
     8   Atom       -3.681632      0.322693      3.358940
     9   Atom       -0.025991      0.030223     -0.004232
    10   Atom        0.010905     -0.008037     -0.002868
    11   Atom        0.010867      0.003426     -0.014293
    12   Atom       -0.305344     -1.396287      1.701631
    13   Atom        0.017361      0.123403     -0.140764
    14   Atom        0.129850     -0.287718      0.157868
    15   Atom        0.008007      0.122048     -0.130055
    16   Atom        0.131588     -0.305533      0.173944
    17   Atom        0.140703     -0.306790      0.166087
    18   Atom       -0.085413     -0.052904      0.138317
    19   Atom        0.143746      0.054795     -0.198541
    20   Atom       -0.056396     -0.087047      0.143443
    21   Atom       -0.215361      0.068957      0.146404
    22   Atom       -0.207579      0.063333      0.144246
    23   Atom        0.152293     -0.047207     -0.105086
    24   Atom       -0.064248     -0.066386      0.130634
    25   Atom        0.168884     -0.424070      0.255186
 --------------------------------------------------------
                        XY            XZ            YZ
 --------------------------------------------------------
     1   Atom        0.062146      0.000627     -0.000558
     2   Atom        0.012076     -0.006647     -0.002466
     3   Atom        0.011444     -0.002820     -0.001223
     4   Atom       -0.248254     -0.002199      0.001523
     5   Atom        0.002340     -0.003536     -0.001068
     6   Atom        0.032022     -0.005911      0.000022
     7   Atom       -0.311522      0.003407      0.003470
     8   Atom       -4.618386      0.110088      0.073060
     9   Atom        0.080401     -0.006167     -0.009134
    10   Atom       -0.000774      0.006269     -0.024593
    11   Atom        0.002188     -0.007875      0.026510
    12   Atom       -0.712077      0.011688      0.030194
    13   Atom       -0.048436      0.193706      0.083936
    14   Atom       -0.067562      0.000606      0.002605
    15   Atom       -0.052025     -0.196847     -0.084808
    16   Atom        0.001238      0.000527      0.001343
    17   Atom        0.000791      0.000594      0.001532
    18   Atom       -0.206731      0.040480      0.037783
    19   Atom        0.029631     -0.055202      0.175754
    20   Atom       -0.220632      0.030279      0.024303
    21   Atom        0.171971      0.001906     -0.005608
    22   Atom        0.178358      0.000567      0.002679
    23   Atom        0.008138      0.006232     -0.219162
    24   Atom       -0.215991      0.051508      0.058730
    25   Atom        0.122924     -0.000739      0.005501
 --------------------------------------------------------


 ---------------------------------------------------------------------------------
              Nuclear Quadrupole Coupling Constant in Principal Axis System
 ---------------------------------------------------------------------------------

       Atom             a.u.   MegaHertz   Gauss  10(-4) cm-1        Axes

              Baa    -6.7149   493.841   176.215   164.728  0.8359  0.5487 -0.0131
     8 Br(79) Bbb     3.3542  -246.678   -88.021   -82.283 -0.5470  0.8309 -0.1019
              Bcc     3.3607  -247.162   -88.194   -82.444 -0.0450  0.0923  0.9947
 

 ---------------------------------------------------------------------------------

 No NMR shielding tensors so no spin-rotation constants.
 Leave Link  601 at Thu Jan 16 22:39:20 2014, MaxMem=   235929600 cpu:         0.3
 FitSet:  NAtFit=    25 NAtPot=    25 NAtFrz=     0 MDM=    29 TotChg=   0.00000
 Merz-Kollman atomic radii used.
 Atom Element Radius
    1     6    1.50
    2     6    1.50
    3     6    1.50
    4     6    1.50
    5     6    1.50
    6     6    1.50
    7     6    1.50
    8    35    2.30
    9     6    1.50
   10     6    1.50
   11     6    1.50
   12     8    1.40
   13     1    1.20
   14     1    1.20
   15     1    1.20
   16     1    1.20
   17     1    1.20
   18     1    1.20
   19     1    1.20
   20     1    1.20
   21     1    1.20
   22     1    1.20
   23     1    1.20
   24     1    1.20
   25     1    1.20
 Generate VDW surfaces: Layer= 5 Dens= 2 Start= 1.400 Inc= 0.179

 **********************************************************************

            Electrostatic Properties Using The SCF Density

 **********************************************************************

       Atomic Center    1 is at  -2.286208  2.178581  0.002537
       Atomic Center    2 is at  -0.978464  1.430232 -0.010199
       Atomic Center    3 is at   0.241012  2.115344 -0.027412
       Atomic Center    4 is at   1.468513  1.447114 -0.039995
       Atomic Center    5 is at   1.527271  0.042840 -0.040659
       Atomic Center    6 is at   0.309211 -0.642613 -0.019909
       Atomic Center    7 is at  -0.907624  0.032849 -0.005279
       Atomic Center    8 is at  -2.523573 -1.003425  0.020070
       Atomic Center    9 is at   2.858534 -0.698318 -0.043271
       Atomic Center   10 is at   2.960783 -1.701884 -1.206478
       Atomic Center   11 is at   3.113273 -1.389991  1.310317
       Atomic Center   12 is at   2.653876  2.137696 -0.050596
       Atomic Center   13 is at  -2.878767  1.926153  0.889592
       Atomic Center   14 is at  -2.119442  3.259802 -0.003817
       Atomic Center   15 is at  -2.899814  1.919098 -0.868028
       Atomic Center   16 is at   0.229540  3.204739 -0.030324
       Atomic Center   17 is at   0.304739 -1.727587 -0.016011
       Atomic Center   18 is at   3.643596  0.050910 -0.183613
       Atomic Center   19 is at   2.805544 -1.208466 -2.172042
       Atomic Center   20 is at   2.218505 -2.503902 -1.116725
       Atomic Center   21 is at   3.951753 -2.170882 -1.218824
       Atomic Center   22 is at   4.095048 -1.878653  1.315001
       Atomic Center   23 is at   3.088039 -0.668597  2.134157
       Atomic Center   24 is at   2.356131 -2.157130  1.513366
       Atomic Center   25 is at   2.461352  3.087888 -0.058319
      ESP Fit Center   26 is at  -1.567965  2.178581  1.975891
      ESP Fit Center   27 is at  -1.927087  2.800597  1.975891
      ESP Fit Center   28 is at  -1.150638  2.908367  1.611230
      ESP Fit Center   29 is at  -4.044539  3.267294  0.367198
      ESP Fit Center   30 is at  -4.044539  3.267294 -0.362124
      ESP Fit Center   31 is at  -1.150638  2.908367 -1.606156
      ESP Fit Center   32 is at  -1.567965  2.178581 -1.970818
      ESP Fit Center   33 is at  -1.927087  2.800597 -1.970818
      ESP Fit Center   34 is at  -0.978464  1.430232  2.089801
      ESP Fit Center   35 is at  -0.260221  1.430232  1.963155
      ESP Fit Center   36 is at  -0.619343  2.052248  1.963155
      ESP Fit Center   37 is at  -1.337585  2.052248  1.963155
      ESP Fit Center   38 is at  -0.619343  0.808216  1.963155
      ESP Fit Center   39 is at  -0.260221  1.430232 -1.983554
      ESP Fit Center   40 is at  -0.619343  2.052248 -1.983554
      ESP Fit Center   41 is at  -1.337585  2.052248 -1.983554
      ESP Fit Center   42 is at  -1.696706  1.430232 -1.983554
      ESP Fit Center   43 is at  -0.619343  0.808216 -1.983554
      ESP Fit Center   44 is at  -0.978464  1.430232 -2.110199
      ESP Fit Center   45 is at   0.241012  2.115344  2.072588
      ESP Fit Center   46 is at   0.959255  2.115344  1.945942
      ESP Fit Center   47 is at   0.600133  2.737360  1.945942
      ESP Fit Center   48 is at  -0.118109  2.737360  1.945942
      ESP Fit Center   49 is at  -0.477230  2.115344  1.945942
      ESP Fit Center   50 is at  -0.118109  1.493328  1.945942
      ESP Fit Center   51 is at   0.600133  1.493328  1.945942
      ESP Fit Center   52 is at   1.376582  2.845130  1.581281
      ESP Fit Center   53 is at   0.801762  3.343214  1.581281
      ESP Fit Center   54 is at  -0.642954  3.135496  1.581281
      ESP Fit Center   55 is at   1.376582  2.845130 -1.636105
      ESP Fit Center   56 is at   0.801762  3.343214 -1.636105
      ESP Fit Center   57 is at  -0.642954  3.135496 -1.636105
      ESP Fit Center   58 is at   0.959255  2.115344 -2.000767
      ESP Fit Center   59 is at   0.600133  2.737360 -2.000767
      ESP Fit Center   60 is at  -0.118109  2.737360 -2.000767
      ESP Fit Center   61 is at  -0.477230  2.115344 -2.000767
      ESP Fit Center   62 is at  -0.118109  1.493328 -2.000767
      ESP Fit Center   63 is at   0.600133  1.493328 -2.000767
      ESP Fit Center   64 is at   0.241012  2.115344 -2.127412
      ESP Fit Center   65 is at   1.468513  1.447114  2.060005
      ESP Fit Center   66 is at   2.186756  1.447114  1.933359
      ESP Fit Center   67 is at   1.827634  2.069130  1.933359
      ESP Fit Center   68 is at   1.109392  2.069130  1.933359
      ESP Fit Center   69 is at   0.750271  1.447114  1.933359
      ESP Fit Center   70 is at   1.109392  0.825098  1.933359
      ESP Fit Center   71 is at   1.827634  0.825098  1.933359
      ESP Fit Center   72 is at   2.186756  1.447114 -2.013350
      ESP Fit Center   73 is at   1.827634  2.069130 -2.013350
      ESP Fit Center   74 is at   1.109392  2.069130 -2.013350
      ESP Fit Center   75 is at   0.750271  1.447114 -2.013350
      ESP Fit Center   76 is at   1.109392  0.825098 -2.013350
      ESP Fit Center   77 is at   1.827634  0.825098 -2.013350
      ESP Fit Center   78 is at   1.468513  1.447114 -2.139995
      ESP Fit Center   79 is at   1.527271  0.042840  2.059341
      ESP Fit Center   80 is at   1.886392  0.664856  1.932695
      ESP Fit Center   81 is at   1.168150  0.664856  1.932695
      ESP Fit Center   82 is at   0.809029  0.042840  1.932695
      ESP Fit Center   83 is at   1.168150 -0.579176  1.932695
      ESP Fit Center   84 is at   2.662841  0.772626 -1.649352
      ESP Fit Center   85 is at   1.886392  0.664856 -2.014014
      ESP Fit Center   86 is at   1.168150  0.664856 -2.014014
      ESP Fit Center   87 is at   0.809029  0.042840 -2.014014
      ESP Fit Center   88 is at   1.168150 -0.579176 -2.014014
      ESP Fit Center   89 is at   1.527271  0.042840 -2.140659
      ESP Fit Center   90 is at   0.309211 -0.642613  2.080091
      ESP Fit Center   91 is at   1.027453 -0.642613  1.953445
      ESP Fit Center   92 is at   0.668332 -0.020597  1.953445
      ESP Fit Center   93 is at  -0.049910 -0.020597  1.953445
      ESP Fit Center   94 is at   0.668332 -1.264629  1.953445
      ESP Fit Center   95 is at   1.027453 -0.642613 -1.993264
      ESP Fit Center   96 is at   0.668332 -0.020597 -1.993264
      ESP Fit Center   97 is at  -0.049910 -0.020597 -1.993264
      ESP Fit Center   98 is at   0.668332 -1.264629 -1.993264
      ESP Fit Center   99 is at   0.309211 -0.642613 -2.119909
      ESP Fit Center  100 is at  -0.548503  0.654865  1.968075
      ESP Fit Center  101 is at   0.227946  0.762635  1.603414
      ESP Fit Center  102 is at  -0.189382  0.032849 -1.978634
      ESP Fit Center  103 is at  -0.548503  0.654865 -1.978634
      ESP Fit Center  104 is at  -2.523573 -1.003425  3.240070
      ESP Fit Center  105 is at  -1.807056 -1.003425  3.159338
      ESP Fit Center  106 is at  -2.165314 -0.382902  3.159338
      ESP Fit Center  107 is at  -2.881832 -0.382902  3.159338
      ESP Fit Center  108 is at  -3.240090 -1.003425  3.159338
      ESP Fit Center  109 is at  -2.881832 -1.623947  3.159338
      ESP Fit Center  110 is at  -2.165314 -1.623947  3.159338
      ESP Fit Center  111 is at  -1.126467 -1.003425  2.921190
      ESP Fit Center  112 is at  -1.313644 -0.304872  2.921190
      ESP Fit Center  113 is at  -1.825020  0.206504  2.921190
      ESP Fit Center  114 is at  -2.523573  0.393681  2.921190
      ESP Fit Center  115 is at  -3.222126  0.206504  2.921190
      ESP Fit Center  116 is at  -3.733502 -0.304872  2.921190
      ESP Fit Center  117 is at  -3.920679 -1.003425  2.921190
      ESP Fit Center  118 is at  -3.733502 -1.701978  2.921190
      ESP Fit Center  119 is at  -3.222126 -2.213354  2.921190
      ESP Fit Center  120 is at  -2.523573 -2.400530  2.921190
      ESP Fit Center  121 is at  -1.825020 -2.213354  2.921190
      ESP Fit Center  122 is at  -1.313644 -1.701978  2.921190
      ESP Fit Center  123 is at  -0.515936 -1.003425  2.537567
      ESP Fit Center  124 is at  -0.651507 -0.278183  2.537567
      ESP Fit Center  125 is at  -1.039911  0.349112  2.537567
      ESP Fit Center  126 is at  -1.628692  0.793738  2.537567
      ESP Fit Center  127 is at  -2.338332  0.995648  2.537567
      ESP Fit Center  128 is at  -3.072989  0.927572  2.537567
      ESP Fit Center  129 is at  -3.733445  0.598704  2.537567
      ESP Fit Center  130 is at  -4.230500  0.053460  2.537567
      ESP Fit Center  131 is at  -4.497026 -0.634522  2.537567
      ESP Fit Center  132 is at  -4.497026 -1.372327  2.537567
      ESP Fit Center  133 is at  -4.230500 -2.060310  2.537567
      ESP Fit Center  134 is at  -3.733445 -2.605554  2.537567
      ESP Fit Center  135 is at  -3.072989 -2.934422  2.537567
      ESP Fit Center  136 is at  -2.338332 -3.002498  2.537567
      ESP Fit Center  137 is at  -1.628692 -2.800588  2.537567
      ESP Fit Center  138 is at  -1.039911 -2.355961  2.537567
      ESP Fit Center  139 is at  -0.651507 -1.728667  2.537567
      ESP Fit Center  140 is at  -0.006076 -1.003425  2.027707
      ESP Fit Center  141 is at  -0.117921 -0.261379  2.027707
      ESP Fit Center  142 is at  -0.443519  0.414732  2.027707
      ESP Fit Center  143 is at  -1.603828  1.340047  2.027707
      ESP Fit Center  144 is at  -4.369029  0.708908  2.027707
      ESP Fit Center  145 is at  -4.791760  0.088876  2.027707
      ESP Fit Center  146 is at  -5.012952 -0.628211  2.027707
      ESP Fit Center  147 is at  -5.012952 -1.378638  2.027707
      ESP Fit Center  148 is at  -4.791760 -2.095726  2.027707
      ESP Fit Center  149 is at  -4.369029 -2.715758  2.027707
      ESP Fit Center  150 is at  -3.782322 -3.183641  2.027707
      ESP Fit Center  151 is at  -3.083769 -3.457803  2.027707
      ESP Fit Center  152 is at  -2.335440 -3.513883  2.027707
      ESP Fit Center  153 is at  -1.603828 -3.346897  2.027707
      ESP Fit Center  154 is at  -0.953939 -2.971683  2.027707
      ESP Fit Center  155 is at  -0.443519 -2.421582  2.027707
      ESP Fit Center  156 is at  -0.117921 -1.745470  2.027707
      ESP Fit Center  157 is at  -4.372816  1.231926  1.417176
      ESP Fit Center  158 is at  -4.870628  0.701811  1.417176
      ESP Fit Center  159 is at  -5.220966  0.064549  1.417176
      ESP Fit Center  160 is at  -5.401816 -0.639818  1.417176
      ESP Fit Center  161 is at  -5.401816 -1.367031  1.417176
      ESP Fit Center  162 is at  -5.220966 -2.071398  1.417176
      ESP Fit Center  163 is at  -4.870628 -2.708660  1.417176
      ESP Fit Center  164 is at  -4.372816 -3.238776  1.417176
      ESP Fit Center  165 is at  -3.758810 -3.628436  1.417176
      ESP Fit Center  166 is at  -3.067189 -3.853158  1.417176
      ESP Fit Center  167 is at  -2.341410 -3.898820  1.417176
      ESP Fit Center  168 is at  -1.627078 -3.762554  1.417176
      ESP Fit Center  169 is at  -0.969075 -3.452921  1.417176
      ESP Fit Center  170 is at  -0.408748 -2.989378  1.417176
      ESP Fit Center  171 is at  -4.677869  1.279996  0.736587
      ESP Fit Center  172 is at  -5.146393  0.721631  0.736587
      ESP Fit Center  173 is at  -5.473520  0.070268  0.736587
      ESP Fit Center  174 is at  -5.641614 -0.638978  0.736587
      ESP Fit Center  175 is at  -5.641614 -1.367872  0.736587
      ESP Fit Center  176 is at  -5.473520 -2.077118  0.736587
      ESP Fit Center  177 is at  -5.146393 -2.728481  0.736587
      ESP Fit Center  178 is at  -4.677869 -3.286845  0.736587
      ESP Fit Center  179 is at  -4.093207 -3.722110  0.736587
      ESP Fit Center  180 is at  -3.423925 -4.010810  0.736587
      ESP Fit Center  181 is at  -2.706105 -4.137381  0.736587
      ESP Fit Center  182 is at  -1.978445 -4.095000  0.736587
      ESP Fit Center  183 is at  -1.280172 -3.885951  0.736587
      ESP Fit Center  184 is at  -0.648932 -3.521504  0.736587
      ESP Fit Center  185 is at  -4.531210  1.514073  0.020070
      ESP Fit Center  186 is at  -5.041070  1.004212  0.020070
      ESP Fit Center  187 is at  -5.424693  0.393681  0.020070
      ESP Fit Center  188 is at  -5.662841 -0.286907  0.020070
      ESP Fit Center  189 is at  -5.743573 -1.003425  0.020070
      ESP Fit Center  190 is at  -5.662841 -1.719942  0.020070
      ESP Fit Center  191 is at  -5.424693 -2.400530  0.020070
      ESP Fit Center  192 is at  -5.041070 -3.011062  0.020070
      ESP Fit Center  193 is at  -4.531210 -3.520922  0.020070
      ESP Fit Center  194 is at  -3.920679 -3.904545  0.020070
      ESP Fit Center  195 is at  -3.240090 -4.142693  0.020070
      ESP Fit Center  196 is at  -2.523573 -4.223425  0.020070
      ESP Fit Center  197 is at  -1.807056 -4.142693  0.020070
      ESP Fit Center  198 is at  -1.126467 -3.904545  0.020070
      ESP Fit Center  199 is at  -0.515936 -3.520922  0.020070
      ESP Fit Center  200 is at  -4.677869  1.279996 -0.696447
      ESP Fit Center  201 is at  -5.146393  0.721631 -0.696447
      ESP Fit Center  202 is at  -5.473520  0.070268 -0.696447
      ESP Fit Center  203 is at  -5.641614 -0.638978 -0.696447
      ESP Fit Center  204 is at  -5.641614 -1.367872 -0.696447
      ESP Fit Center  205 is at  -5.473520 -2.077118 -0.696447
      ESP Fit Center  206 is at  -5.146393 -2.728481 -0.696447
      ESP Fit Center  207 is at  -4.677869 -3.286845 -0.696447
      ESP Fit Center  208 is at  -4.093207 -3.722110 -0.696447
      ESP Fit Center  209 is at  -3.423925 -4.010810 -0.696447
      ESP Fit Center  210 is at  -2.706105 -4.137381 -0.696447
      ESP Fit Center  211 is at  -1.978445 -4.095000 -0.696447
      ESP Fit Center  212 is at  -1.280172 -3.885951 -0.696447
      ESP Fit Center  213 is at  -0.648932 -3.521504 -0.696447
      ESP Fit Center  214 is at  -4.372816  1.231926 -1.377036
      ESP Fit Center  215 is at  -4.870628  0.701811 -1.377036
      ESP Fit Center  216 is at  -5.220966  0.064549 -1.377036
      ESP Fit Center  217 is at  -5.401816 -0.639818 -1.377036
      ESP Fit Center  218 is at  -5.401816 -1.367031 -1.377036
      ESP Fit Center  219 is at  -5.220966 -2.071398 -1.377036
      ESP Fit Center  220 is at  -4.870628 -2.708660 -1.377036
      ESP Fit Center  221 is at  -4.372816 -3.238776 -1.377036
      ESP Fit Center  222 is at  -3.758810 -3.628436 -1.377036
      ESP Fit Center  223 is at  -3.067189 -3.853158 -1.377036
      ESP Fit Center  224 is at  -2.341410 -3.898820 -1.377036
      ESP Fit Center  225 is at  -1.627078 -3.762554 -1.377036
      ESP Fit Center  226 is at  -0.969075 -3.452921 -1.377036
      ESP Fit Center  227 is at  -0.408748 -2.989378 -1.377036
      ESP Fit Center  228 is at  -4.369029  0.708908 -1.987567
      ESP Fit Center  229 is at  -4.791760  0.088876 -1.987567
      ESP Fit Center  230 is at  -5.012952 -0.628211 -1.987567
      ESP Fit Center  231 is at  -5.012952 -1.378638 -1.987567
      ESP Fit Center  232 is at  -4.791760 -2.095726 -1.987567
      ESP Fit Center  233 is at  -4.369029 -2.715758 -1.987567
      ESP Fit Center  234 is at  -3.782322 -3.183641 -1.987567
      ESP Fit Center  235 is at  -3.083769 -3.457803 -1.987567
      ESP Fit Center  236 is at  -2.335440 -3.513883 -1.987567
      ESP Fit Center  237 is at  -1.603828 -3.346897 -1.987567
      ESP Fit Center  238 is at  -0.953939 -2.971683 -1.987567
      ESP Fit Center  239 is at  -0.443519 -2.421582 -1.987567
      ESP Fit Center  240 is at  -0.117921 -1.745470 -1.987567
      ESP Fit Center  241 is at  -0.515936 -1.003425 -2.497427
      ESP Fit Center  242 is at  -0.651507 -0.278183 -2.497427
      ESP Fit Center  243 is at  -1.039911  0.349112 -2.497427
      ESP Fit Center  244 is at  -1.628692  0.793738 -2.497427
      ESP Fit Center  245 is at  -2.338332  0.995648 -2.497427
      ESP Fit Center  246 is at  -3.072989  0.927572 -2.497427
      ESP Fit Center  247 is at  -3.733445  0.598704 -2.497427
      ESP Fit Center  248 is at  -4.230500  0.053460 -2.497427
      ESP Fit Center  249 is at  -4.497026 -0.634522 -2.497427
      ESP Fit Center  250 is at  -4.497026 -1.372327 -2.497427
      ESP Fit Center  251 is at  -4.230500 -2.060310 -2.497427
      ESP Fit Center  252 is at  -3.733445 -2.605554 -2.497427
      ESP Fit Center  253 is at  -3.072989 -2.934422 -2.497427
      ESP Fit Center  254 is at  -2.338332 -3.002498 -2.497427
      ESP Fit Center  255 is at  -1.628692 -2.800588 -2.497427
      ESP Fit Center  256 is at  -1.039911 -2.355961 -2.497427
      ESP Fit Center  257 is at  -0.651507 -1.728667 -2.497427
      ESP Fit Center  258 is at  -1.126467 -1.003425 -2.881050
      ESP Fit Center  259 is at  -1.313644 -0.304872 -2.881050
      ESP Fit Center  260 is at  -1.825020  0.206504 -2.881050
      ESP Fit Center  261 is at  -2.523573  0.393681 -2.881050
      ESP Fit Center  262 is at  -3.222126  0.206504 -2.881050
      ESP Fit Center  263 is at  -3.733502 -0.304872 -2.881050
      ESP Fit Center  264 is at  -3.920679 -1.003425 -2.881050
      ESP Fit Center  265 is at  -3.733502 -1.701978 -2.881050
      ESP Fit Center  266 is at  -3.222126 -2.213354 -2.881050
      ESP Fit Center  267 is at  -2.523573 -2.400530 -2.881050
      ESP Fit Center  268 is at  -1.825020 -2.213354 -2.881050
      ESP Fit Center  269 is at  -1.313644 -1.701978 -2.881050
      ESP Fit Center  270 is at  -1.807056 -1.003425 -3.119198
      ESP Fit Center  271 is at  -2.165314 -0.382902 -3.119198
      ESP Fit Center  272 is at  -2.881832 -0.382902 -3.119198
      ESP Fit Center  273 is at  -3.240090 -1.003425 -3.119198
      ESP Fit Center  274 is at  -2.881832 -1.623947 -3.119198
      ESP Fit Center  275 is at  -2.165314 -1.623947 -3.119198
      ESP Fit Center  276 is at  -2.523573 -1.003425 -3.199930
      ESP Fit Center  277 is at   3.522778 -3.431526 -0.156478
      ESP Fit Center  278 is at   4.622206 -0.962171 -2.256478
      ESP Fit Center  279 is at   3.522778 -3.431526 -2.256478
      ESP Fit Center  280 is at   4.310637 -1.701884 -2.815171
      ESP Fit Center  281 is at   2.076817 -2.722036 -2.815171
      ESP Fit Center  282 is at   2.768679 -3.037999 -2.815171
      ESP Fit Center  283 is at   3.521533 -2.929754 -2.815171
      ESP Fit Center  284 is at   2.754152 -2.012007  3.283671
      ESP Fit Center  285 is at   3.472394 -2.012007  3.283671
      ESP Fit Center  286 is at   4.463127 -1.389991  2.919010
      ESP Fit Center  287 is at   3.674023 -2.617861  2.919010
      ESP Fit Center  288 is at   4.774696 -0.650278  2.360317
      ESP Fit Center  289 is at   1.334362 -1.011872  2.360317
      ESP Fit Center  290 is at   4.641615  0.003276  1.674978
      ESP Fit Center  291 is at   3.304093 -3.449265  0.945656
      ESP Fit Center  292 is at   3.675268 -3.119633  0.260317
      ESP Fit Center  293 is at   2.653876  2.137696  1.909404
      ESP Fit Center  294 is at   3.403936  2.137696  1.760208
      ESP Fit Center  295 is at   3.028906  2.787267  1.760208
      ESP Fit Center  296 is at   2.278847  2.787267  1.760208
      ESP Fit Center  297 is at   3.028906  1.488125  1.760208
      ESP Fit Center  298 is at   4.039806  2.137696  1.335333
      ESP Fit Center  299 is at   3.854126  2.830661  1.335333
      ESP Fit Center  300 is at   3.346841  0.937446  1.335333
      ESP Fit Center  301 is at   3.854126  1.444731  1.335333
      ESP Fit Center  302 is at   4.464680  2.137696  0.699463
      ESP Fit Center  303 is at   4.308128  2.874216  0.699463
      ESP Fit Center  304 is at   4.308128  1.401176  0.699463
      ESP Fit Center  305 is at   4.613876  2.137696 -0.050596
      ESP Fit Center  306 is at   4.481522  2.845730 -0.050596
      ESP Fit Center  307 is at   4.102334  3.458139 -0.050596
      ESP Fit Center  308 is at   4.464680  2.137696 -0.800656
      ESP Fit Center  309 is at   4.308128  2.874216 -0.800656
      ESP Fit Center  310 is at   4.039806  2.137696 -1.436525
      ESP Fit Center  311 is at   3.854126  2.830661 -1.436525
      ESP Fit Center  312 is at   3.854126  1.444731 -1.436525
      ESP Fit Center  313 is at   3.403936  2.137696 -1.861400
      ESP Fit Center  314 is at   3.028906  2.787267 -1.861400
      ESP Fit Center  315 is at   2.278847  2.787267 -1.861400
      ESP Fit Center  316 is at   3.028906  1.488125 -1.861400
      ESP Fit Center  317 is at   2.653876  2.137696 -2.010596
      ESP Fit Center  318 is at  -2.878767  1.926153  2.569592
      ESP Fit Center  319 is at  -2.149842  1.926153  2.403220
      ESP Fit Center  320 is at  -2.514304  2.557421  2.403220
      ESP Fit Center  321 is at  -3.243229  2.557421  2.403220
      ESP Fit Center  322 is at  -3.607691  1.926153  2.403220
      ESP Fit Center  323 is at  -3.243229  1.294886  2.403220
      ESP Fit Center  324 is at  -2.514304  1.294886  2.403220
      ESP Fit Center  325 is at  -2.472880  3.175344  1.937055
      ESP Fit Center  326 is at  -3.284653  3.175344  1.937055
      ESP Fit Center  327 is at  -3.941392  2.698196  1.937055
      ESP Fit Center  328 is at  -4.192244  1.926153  1.937055
      ESP Fit Center  329 is at  -3.459567  3.457597  1.263427
      ESP Fit Center  330 is at  -4.104737  3.012268  1.263427
      ESP Fit Center  331 is at  -4.469052  2.318123  1.263427
      ESP Fit Center  332 is at  -4.469052  1.534183  1.263427
      ESP Fit Center  333 is at  -4.469052  2.318123  0.515757
      ESP Fit Center  334 is at  -4.469052  1.534183  0.515757
      ESP Fit Center  335 is at  -1.754979  3.891070  1.509811
      ESP Fit Center  336 is at  -2.483904  3.891070  1.509811
      ESP Fit Center  337 is at  -1.056817  4.031845  1.043646
      ESP Fit Center  338 is at  -1.713555  4.508993  1.043646
      ESP Fit Center  339 is at  -2.525328  4.508993  1.043646
      ESP Fit Center  340 is at  -3.182067  4.031845  1.043646
      ESP Fit Center  341 is at  -1.189020  4.607750  0.370018
      ESP Fit Center  342 is at  -1.922017  4.885739  0.370018
      ESP Fit Center  343 is at  -2.700242  4.791246  0.370018
      ESP Fit Center  344 is at  -3.345412  4.345917  0.370018
      ESP Fit Center  345 is at  -1.189020  4.607750 -0.377652
      ESP Fit Center  346 is at  -1.922017  4.885739 -0.377652
      ESP Fit Center  347 is at  -2.700242  4.791246 -0.377652
      ESP Fit Center  348 is at  -3.345412  4.345917 -0.377652
      ESP Fit Center  349 is at  -1.056817  4.031845 -1.051280
      ESP Fit Center  350 is at  -1.713555  4.508993 -1.051280
      ESP Fit Center  351 is at  -2.525328  4.508993 -1.051280
      ESP Fit Center  352 is at  -3.182067  4.031845 -1.051280
      ESP Fit Center  353 is at  -1.754979  3.891070 -1.517445
      ESP Fit Center  354 is at  -2.483904  3.891070 -1.517445
      ESP Fit Center  355 is at  -4.490099  2.311068 -0.494193
      ESP Fit Center  356 is at  -4.490099  1.527128 -0.494193
      ESP Fit Center  357 is at  -3.480614  3.450542 -1.241863
      ESP Fit Center  358 is at  -4.125784  3.005213 -1.241863
      ESP Fit Center  359 is at  -4.490099  2.311068 -1.241863
      ESP Fit Center  360 is at  -4.490099  1.527128 -1.241863
      ESP Fit Center  361 is at  -2.493927  3.168289 -1.915491
      ESP Fit Center  362 is at  -3.305700  3.168289 -1.915491
      ESP Fit Center  363 is at  -3.962439  2.691141 -1.915491
      ESP Fit Center  364 is at  -4.213291  1.919098 -1.915491
      ESP Fit Center  365 is at  -3.962439  1.147056 -1.915491
      ESP Fit Center  366 is at  -2.170889  1.919098 -2.381656
      ESP Fit Center  367 is at  -2.535351  2.550366 -2.381656
      ESP Fit Center  368 is at  -3.264276  2.550366 -2.381656
      ESP Fit Center  369 is at  -3.628738  1.919098 -2.381656
      ESP Fit Center  370 is at  -3.264276  1.287831 -2.381656
      ESP Fit Center  371 is at  -2.535351  1.287831 -2.381656
      ESP Fit Center  372 is at  -2.899814  1.919098 -2.548028
      ESP Fit Center  373 is at   0.594003  3.836006  1.483304
      ESP Fit Center  374 is at  -0.134922  3.836006  1.483304
      ESP Fit Center  375 is at   1.292165  3.976781  1.017139
      ESP Fit Center  376 is at   0.635427  4.453930  1.017139
      ESP Fit Center  377 is at  -0.176346  4.453930  1.017139
      ESP Fit Center  378 is at  -0.833085  3.976781  1.017139
      ESP Fit Center  379 is at   1.159962  4.552687  0.343511
      ESP Fit Center  380 is at   0.426965  4.830676  0.343511
      ESP Fit Center  381 is at  -0.351260  4.736182  0.343511
      ESP Fit Center  382 is at   1.159962  4.552687 -0.404159
      ESP Fit Center  383 is at   0.426965  4.830676 -0.404159
      ESP Fit Center  384 is at  -0.351260  4.736182 -0.404159
      ESP Fit Center  385 is at   1.292165  3.976781 -1.077787
      ESP Fit Center  386 is at   0.635427  4.453930 -1.077787
      ESP Fit Center  387 is at  -0.176346  4.453930 -1.077787
      ESP Fit Center  388 is at  -0.833085  3.976781 -1.077787
      ESP Fit Center  389 is at   0.594003  3.836006 -1.543952
      ESP Fit Center  390 is at  -0.134922  3.836006 -1.543952
      ESP Fit Center  391 is at   0.669201 -2.358854  1.497617
      ESP Fit Center  392 is at  -0.101148 -2.976778  1.031452
      ESP Fit Center  393 is at   0.710626 -2.976778  1.031452
      ESP Fit Center  394 is at   0.502164 -3.353524  0.357824
      ESP Fit Center  395 is at   1.235160 -3.075535  0.357824
      ESP Fit Center  396 is at   0.502164 -3.353524 -0.389846
      ESP Fit Center  397 is at  -0.101148 -2.976778 -1.063474
      ESP Fit Center  398 is at   4.008058  0.682177  1.330015
      ESP Fit Center  399 is at   4.957073  0.050910  0.863850
      ESP Fit Center  400 is at   4.706221  0.822952  0.863850
      ESP Fit Center  401 is at   5.281475  0.050910  0.190222
      ESP Fit Center  402 is at   5.093866  0.812070  0.190222
      ESP Fit Center  403 is at   4.574017  1.398858  0.190222
      ESP Fit Center  404 is at   5.093866 -0.710250  0.190222
      ESP Fit Center  405 is at   5.281475  0.050910 -0.557448
      ESP Fit Center  406 is at   5.093866  0.812070 -0.557448
      ESP Fit Center  407 is at   4.574017  1.398858 -0.557448
      ESP Fit Center  408 is at   5.093866 -0.710250 -0.557448
      ESP Fit Center  409 is at   4.957073  0.050910 -1.231076
      ESP Fit Center  410 is at   4.706221  0.822952 -1.231076
      ESP Fit Center  411 is at   4.049483  1.300101 -1.231076
      ESP Fit Center  412 is at   4.372521  0.050910 -1.697241
      ESP Fit Center  413 is at   4.008058  0.682177 -1.697241
      ESP Fit Center  414 is at   3.279134  0.682177 -1.697241
      ESP Fit Center  415 is at   4.255814 -0.447306 -2.545877
      ESP Fit Center  416 is at   3.735965  0.139482 -2.545877
      ESP Fit Center  417 is at   3.002969  0.417471 -2.545877
      ESP Fit Center  418 is at   2.224744  0.322977 -2.545877
      ESP Fit Center  419 is at   1.579574 -0.122351 -2.545877
      ESP Fit Center  420 is at   1.215259 -0.816496 -2.545877
      ESP Fit Center  421 is at   1.215259 -1.600436 -2.545877
      ESP Fit Center  422 is at   4.119021 -1.208466 -3.219505
      ESP Fit Center  423 is at   3.868169 -0.436424 -3.219505
      ESP Fit Center  424 is at   3.211431  0.040725 -3.219505
      ESP Fit Center  425 is at   2.399657  0.040725 -3.219505
      ESP Fit Center  426 is at   1.742919 -0.436424 -3.219505
      ESP Fit Center  427 is at   1.492067 -1.208466 -3.219505
      ESP Fit Center  428 is at   1.742919 -1.980508 -3.219505
      ESP Fit Center  429 is at   2.399657 -2.457657 -3.219505
      ESP Fit Center  430 is at   3.211431 -2.457657 -3.219505
      ESP Fit Center  431 is at   3.868169 -1.980508 -3.219505
      ESP Fit Center  432 is at   3.534469 -1.208466 -3.685670
      ESP Fit Center  433 is at   3.170006 -0.577199 -3.685670
      ESP Fit Center  434 is at   2.441082 -0.577199 -3.685670
      ESP Fit Center  435 is at   2.076619 -1.208466 -3.685670
      ESP Fit Center  436 is at   2.441082 -1.839733 -3.685670
      ESP Fit Center  437 is at   3.170006 -1.839733 -3.685670
      ESP Fit Center  438 is at   2.805544 -1.208466 -3.852042
      ESP Fit Center  439 is at   1.155880 -3.275944 -0.069262
      ESP Fit Center  440 is at   1.812618 -3.753093 -0.069262
      ESP Fit Center  441 is at   2.624392 -3.753093 -0.069262
      ESP Fit Center  442 is at   0.992535 -3.590017 -0.742890
      ESP Fit Center  443 is at   1.637705 -4.035345 -0.742890
      ESP Fit Center  444 is at   2.415929 -4.129839 -0.742890
      ESP Fit Center  445 is at   3.148926 -3.851850 -0.742890
      ESP Fit Center  446 is at   0.628220 -2.895872 -1.490560
      ESP Fit Center  447 is at   0.992535 -3.590017 -1.490560
      ESP Fit Center  448 is at   1.637705 -4.035345 -1.490560
      ESP Fit Center  449 is at   2.415929 -4.129839 -1.490560
      ESP Fit Center  450 is at   3.148926 -3.851850 -1.490560
      ESP Fit Center  451 is at   0.905028 -2.503902 -2.164188
      ESP Fit Center  452 is at   1.155880 -3.275944 -2.164188
      ESP Fit Center  453 is at   1.812618 -3.753093 -2.164188
      ESP Fit Center  454 is at   2.624392 -3.753093 -2.164188
      ESP Fit Center  455 is at   1.489580 -2.503902 -2.630353
      ESP Fit Center  456 is at   1.854043 -3.135169 -2.630353
      ESP Fit Center  457 is at   5.265230 -2.170882 -0.171361
      ESP Fit Center  458 is at   5.014378 -1.398840 -0.171361
      ESP Fit Center  459 is at   4.357640 -3.420073 -0.171361
      ESP Fit Center  460 is at   5.014378 -2.942924 -0.171361
      ESP Fit Center  461 is at   5.589632 -2.170882 -0.844989
      ESP Fit Center  462 is at   5.402023 -1.409722 -0.844989
      ESP Fit Center  463 is at   4.149178 -3.796819 -0.844989
      ESP Fit Center  464 is at   4.882174 -3.518830 -0.844989
      ESP Fit Center  465 is at   5.402023 -2.932042 -0.844989
      ESP Fit Center  466 is at   5.589632 -2.170882 -1.592659
      ESP Fit Center  467 is at   5.402023 -1.409722 -1.592659
      ESP Fit Center  468 is at   4.882174 -0.822934 -1.592659
      ESP Fit Center  469 is at   4.149178 -3.796819 -1.592659
      ESP Fit Center  470 is at   4.882174 -3.518830 -1.592659
      ESP Fit Center  471 is at   5.402023 -2.932042 -1.592659
      ESP Fit Center  472 is at   5.265230 -2.170882 -2.266287
      ESP Fit Center  473 is at   5.014378 -1.398840 -2.266287
      ESP Fit Center  474 is at   3.545866 -3.420073 -2.266287
      ESP Fit Center  475 is at   4.357640 -3.420073 -2.266287
      ESP Fit Center  476 is at   5.014378 -2.942924 -2.266287
      ESP Fit Center  477 is at   4.680678 -2.170882 -2.732452
      ESP Fit Center  478 is at   4.316215 -2.802149 -2.732452
      ESP Fit Center  479 is at   4.823973 -1.878653  2.828629
      ESP Fit Center  480 is at   4.459510 -2.509920  2.828629
      ESP Fit Center  481 is at   5.408525 -1.878653  2.362464
      ESP Fit Center  482 is at   5.157673 -1.106611  2.362464
      ESP Fit Center  483 is at   3.689161 -3.127844  2.362464
      ESP Fit Center  484 is at   4.500935 -3.127844  2.362464
      ESP Fit Center  485 is at   5.157673 -2.650696  2.362464
      ESP Fit Center  486 is at   5.732927 -1.878653  1.688836
      ESP Fit Center  487 is at   5.545318 -1.117493  1.688836
      ESP Fit Center  488 is at   5.025469 -0.530705  1.688836
      ESP Fit Center  489 is at   4.292473 -3.504590  1.688836
      ESP Fit Center  490 is at   5.025469 -3.226601  1.688836
      ESP Fit Center  491 is at   5.545318 -2.639813  1.688836
      ESP Fit Center  492 is at   5.732927 -1.878653  0.941166
      ESP Fit Center  493 is at   5.545318 -1.117493  0.941166
      ESP Fit Center  494 is at   5.025469 -0.530705  0.941166
      ESP Fit Center  495 is at   4.292473 -3.504590  0.941166
      ESP Fit Center  496 is at   5.025469 -3.226601  0.941166
      ESP Fit Center  497 is at   5.545318 -2.639813  0.941166
      ESP Fit Center  498 is at   5.408525 -1.878653  0.267538
      ESP Fit Center  499 is at   5.157673 -1.106611  0.267538
      ESP Fit Center  500 is at   3.689161 -3.127844  0.267538
      ESP Fit Center  501 is at   4.500935 -3.127844  0.267538
      ESP Fit Center  502 is at   5.157673 -2.650696  0.267538
      ESP Fit Center  503 is at   3.088039 -0.668597  3.814157
      ESP Fit Center  504 is at   3.816964 -0.668597  3.647785
      ESP Fit Center  505 is at   3.452501 -0.037330  3.647785
      ESP Fit Center  506 is at   2.723577 -0.037330  3.647785
      ESP Fit Center  507 is at   2.359114 -0.668597  3.647785
      ESP Fit Center  508 is at   2.723577 -1.299864  3.647785
      ESP Fit Center  509 is at   3.452501 -1.299864  3.647785
      ESP Fit Center  510 is at   4.401516 -0.668597  3.181620
      ESP Fit Center  511 is at   4.150664  0.103445  3.181620
      ESP Fit Center  512 is at   3.493926  0.580594  3.181620
      ESP Fit Center  513 is at   2.682152  0.580594  3.181620
      ESP Fit Center  514 is at   2.025414  0.103445  3.181620
      ESP Fit Center  515 is at   1.774562 -0.668597  3.181620
      ESP Fit Center  516 is at   2.025414 -1.440639  3.181620
      ESP Fit Center  517 is at   4.150664 -1.440639  3.181620
      ESP Fit Center  518 is at   4.725918 -0.668597  2.507992
      ESP Fit Center  519 is at   4.538309  0.092563  2.507992
      ESP Fit Center  520 is at   4.018460  0.679351  2.507992
      ESP Fit Center  521 is at   3.285464  0.957340  2.507992
      ESP Fit Center  522 is at   2.507239  0.862846  2.507992
      ESP Fit Center  523 is at   1.862069  0.417518  2.507992
      ESP Fit Center  524 is at   1.497754 -0.276627  2.507992
      ESP Fit Center  525 is at   4.538309  0.092563  1.760322
      ESP Fit Center  526 is at   4.018460  0.679351  1.760322
      ESP Fit Center  527 is at   3.285464  0.957340  1.760322
      ESP Fit Center  528 is at   2.507239  0.862846  1.760322
      ESP Fit Center  529 is at   2.356131 -2.157130  3.193366
      ESP Fit Center  530 is at   1.627206 -2.157130  3.026994
      ESP Fit Center  531 is at   1.991669 -2.788397  3.026994
      ESP Fit Center  532 is at   2.720593 -2.788397  3.026994
      ESP Fit Center  533 is at   1.293506 -1.385088  2.560829
      ESP Fit Center  534 is at   1.042654 -2.157130  2.560829
      ESP Fit Center  535 is at   1.293506 -2.929172  2.560829
      ESP Fit Center  536 is at   1.950244 -3.406321  2.560829
      ESP Fit Center  537 is at   2.762018 -3.406321  2.560829
      ESP Fit Center  538 is at   0.765846 -1.765160  1.887201
      ESP Fit Center  539 is at   0.765846 -2.549100  1.887201
      ESP Fit Center  540 is at   1.130161 -3.243245  1.887201
      ESP Fit Center  541 is at   1.775331 -3.688573  1.887201
      ESP Fit Center  542 is at   2.553556 -3.783067  1.887201
      ESP Fit Center  543 is at   3.286552 -3.505078  1.887201
      ESP Fit Center  544 is at   1.130161 -3.243245  1.139531
      ESP Fit Center  545 is at   1.775331 -3.688573  1.139531
      ESP Fit Center  546 is at   2.553556 -3.783067  1.139531
      ESP Fit Center  547 is at   3.286552 -3.505078  1.139531
      ESP Fit Center  548 is at   1.950244 -3.406321  0.465903
      ESP Fit Center  549 is at   2.762018 -3.406321  0.465903
      ESP Fit Center  550 is at   2.825815  3.719155  1.455309
      ESP Fit Center  551 is at   2.096890  3.719155  1.455309
      ESP Fit Center  552 is at   1.732428  3.087888  1.455309
      ESP Fit Center  553 is at   3.523977  3.859930  0.989144
      ESP Fit Center  554 is at   2.867239  4.337079  0.989144
      ESP Fit Center  555 is at   2.055466  4.337079  0.989144
      ESP Fit Center  556 is at   1.398727  3.859930  0.989144
      ESP Fit Center  557 is at   3.911622  3.849048  0.315516
      ESP Fit Center  558 is at   3.391774  4.435836  0.315516
      ESP Fit Center  559 is at   2.658777  4.713825  0.315516
      ESP Fit Center  560 is at   1.880552  4.619331  0.315516
      ESP Fit Center  561 is at   3.911622  3.849048 -0.432154
      ESP Fit Center  562 is at   3.391774  4.435836 -0.432154
      ESP Fit Center  563 is at   2.658777  4.713825 -0.432154
      ESP Fit Center  564 is at   1.880552  4.619331 -0.432154
      ESP Fit Center  565 is at   3.523977  3.859930 -1.105782
      ESP Fit Center  566 is at   2.867239  4.337079 -1.105782
      ESP Fit Center  567 is at   2.055466  4.337079 -1.105782
      ESP Fit Center  568 is at   1.398727  3.859930 -1.105782
      ESP Fit Center  569 is at   2.825815  3.719155 -1.571947
      ESP Fit Center  570 is at   2.096890  3.719155 -1.571947
      ESP Fit Center  571 is at   1.732428  3.087888 -1.571947
      ESP Fit Center  572 is at  -1.554354  2.178581  2.254951
      ESP Fit Center  573 is at  -1.115125  2.931190  1.918555
      ESP Fit Center  574 is at  -1.707922  3.444851  1.918555
      ESP Fit Center  575 is at  -2.484320  3.556480  1.918555
      ESP Fit Center  576 is at  -3.811726  3.835736  0.734391
      ESP Fit Center  577 is at  -4.267147  3.250612  0.734391
      ESP Fit Center  578 is at  -4.202225  3.570650  0.002537
      ESP Fit Center  579 is at  -4.538622  2.910435  0.002537
      ESP Fit Center  580 is at  -4.654536  2.178581  0.002537
      ESP Fit Center  581 is at  -3.811726  3.835736 -0.729317
      ESP Fit Center  582 is at  -4.267147  3.250612 -0.729317
      ESP Fit Center  583 is at  -1.115125  2.931190 -1.913481
      ESP Fit Center  584 is at  -1.707922  3.444851 -1.913481
      ESP Fit Center  585 is at  -2.484320  3.556480 -1.913481
      ESP Fit Center  586 is at  -1.554354  2.178581 -2.249877
      ESP Fit Center  587 is at  -1.920281  2.812385 -2.249877
      ESP Fit Center  588 is at  -0.978464  1.430232  2.358129
      ESP Fit Center  589 is at  -0.246610  1.430232  2.242215
      ESP Fit Center  590 is at  -0.612537  2.064036  2.242215
      ESP Fit Center  591 is at  -1.344391  2.064036  2.242215
      ESP Fit Center  592 is at  -0.246610  1.430232 -2.262613
      ESP Fit Center  593 is at  -0.612537  2.064036 -2.262613
      ESP Fit Center  594 is at  -1.344391  2.064036 -2.262613
      ESP Fit Center  595 is at  -0.978464  1.430232 -2.378527
      ESP Fit Center  596 is at   0.241012  2.115344  2.340916
      ESP Fit Center  597 is at   0.972866  2.115344  2.225002
      ESP Fit Center  598 is at   0.606939  2.749148  2.225002
      ESP Fit Center  599 is at  -0.124915  2.749148  2.225002
      ESP Fit Center  600 is at  -0.490841  2.115344  2.225002
      ESP Fit Center  601 is at  -0.124915  1.481540  2.225002
      ESP Fit Center  602 is at   0.606939  1.481540  2.225002
      ESP Fit Center  603 is at   1.412095  2.867953  1.888606
      ESP Fit Center  604 is at   0.819298  3.381614  1.888606
      ESP Fit Center  605 is at   0.042900  3.493243  1.888606
      ESP Fit Center  606 is at  -0.670599  3.167399  1.888606
      ESP Fit Center  607 is at   1.412095  2.867953 -1.943430
[...]
 2820 Fit      -0.004478
 2821 Fit      -0.004799
 2822 Fit      -0.005023
 2823 Fit      -0.005212
 2824 Fit      -0.005396
 2825 Fit      -0.005573
 2826 Fit      -0.005712
 2827 Fit      -0.005761
 2828 Fit      -0.005667
 2829 Fit      -0.005402
 2830 Fit      -0.004992
 2831 Fit      -0.004557
 2832 Fit      -0.004353
 2833 Fit      -0.004763
 2834 Fit      -0.005900
 2835 Fit      -0.009061
 2836 Fit      -0.002063
 2837 Fit       0.000924
 2838 Fit      -0.000665
 2839 Fit      -0.002046
 2840 Fit      -0.003075
 2841 Fit      -0.003770
 2842 Fit      -0.004208
 2843 Fit      -0.004477
 2844 Fit      -0.004657
 2845 Fit      -0.004811
 2846 Fit      -0.004977
 2847 Fit      -0.005162
 2848 Fit      -0.005345
 2849 Fit      -0.005483
 2850 Fit      -0.005516
 2851 Fit      -0.005383
 2852 Fit      -0.005034
 2853 Fit      -0.004457
 2854 Fit      -0.003697
 2855 Fit      -0.002906
 2856 Fit       0.000969
 2857 Fit      -0.000761
 2858 Fit      -0.002082
 2859 Fit      -0.003005
 2860 Fit      -0.003605
 2861 Fit      -0.003968
 2862 Fit      -0.004180
 2863 Fit      -0.004315
 2864 Fit      -0.004431
 2865 Fit      -0.004567
 2866 Fit      -0.004737
 2867 Fit      -0.004933
 2868 Fit      -0.005123
 2869 Fit      -0.005258
 2870 Fit      -0.005275
 2871 Fit      -0.005110
 2872 Fit      -0.004701
 2873 Fit      -0.004002
 2874 Fit      -0.002995
 2875 Fit      -0.001695
 2876 Fit       0.001585
 2877 Fit      -0.000217
 2878 Fit      -0.001605
 2879 Fit      -0.002591
 2880 Fit      -0.003243
 2881 Fit      -0.003641
 2882 Fit      -0.003865
 2883 Fit      -0.003988
 2884 Fit      -0.004073
 2885 Fit      -0.004167
 2886 Fit      -0.004297
 2887 Fit      -0.004472
 2888 Fit      -0.004678
 2889 Fit      -0.004883
 2890 Fit      -0.005038
 2891 Fit      -0.005082
 2892 Fit      -0.004947
 2893 Fit      -0.004562
 2894 Fit      -0.003857
 2895 Fit      -0.002770
 2896 Fit      -0.001247
 2897 Fit       0.000796
 2898 Fit       0.000476
 2899 Fit      -0.001015
 2900 Fit      -0.002124
 2901 Fit      -0.002884
 2902 Fit      -0.003360
 2903 Fit      -0.003628
 2904 Fit      -0.003764
 2905 Fit      -0.003835
 2906 Fit      -0.003900
 2907 Fit      -0.003995
 2908 Fit      -0.004143
 2909 Fit      -0.004340
 2910 Fit      -0.004564
 2911 Fit      -0.004776
 2912 Fit      -0.004917
 2913 Fit      -0.004920
 2914 Fit      -0.004706
 2915 Fit      -0.004193
 2916 Fit      -0.003290
 2917 Fit      -0.001903
 2918 Fit       0.000067
 2919 Fit       0.002728
 2920 Fit       0.001027
 2921 Fit      -0.000490
 2922 Fit      -0.001688
 2923 Fit      -0.002552
 2924 Fit      -0.003121
 2925 Fit      -0.003456
 2926 Fit      -0.003630
 2927 Fit      -0.003711
 2928 Fit      -0.003760
 2929 Fit      -0.003826
 2930 Fit      -0.003937
 2931 Fit      -0.004105
 2932 Fit      -0.004318
 2933 Fit      -0.004549
 2934 Fit      -0.004751
 2935 Fit      -0.004863
 2936 Fit      -0.004813
 2937 Fit      -0.004519
 2938 Fit      -0.003892
 2939 Fit      -0.002829
 2940 Fit      -0.001211
 2941 Fit       0.001094
 2942 Fit       0.004188
 2943 Fit       0.001052
 2944 Fit      -0.000473
 2945 Fit      -0.001678
 2946 Fit      -0.002548
 2947 Fit      -0.003121
 2948 Fit      -0.003460
 2949 Fit      -0.003637
 2950 Fit      -0.003720
 2951 Fit      -0.003771
 2952 Fit      -0.003838
 2953 Fit      -0.003950
 2954 Fit      -0.004117
 2955 Fit      -0.004331
 2956 Fit      -0.004561
 2957 Fit      -0.004762
 2958 Fit      -0.004872
 2959 Fit      -0.004820
 2960 Fit      -0.004524
 2961 Fit      -0.003894
 2962 Fit      -0.002823
 2963 Fit      -0.001183
 2964 Fit       0.001200
 2965 Fit       0.000541
 2966 Fit      -0.000973
 2967 Fit      -0.002102
 2968 Fit      -0.002878
 2969 Fit      -0.003366
 2970 Fit      -0.003644
 2971 Fit      -0.003787
 2972 Fit      -0.003864
 2973 Fit      -0.003932
 2974 Fit      -0.004030
 2975 Fit      -0.004178
 2976 Fit      -0.004375
 2977 Fit      -0.004598
 2978 Fit      -0.004807
 2979 Fit      -0.004945
 2980 Fit      -0.004943
 2981 Fit      -0.004724
 2982 Fit      -0.004203
 2983 Fit      -0.003287
 2984 Fit      -0.001864
 2985 Fit       0.000220
 2986 Fit       0.001703
 2987 Fit      -0.000133
 2988 Fit      -0.001554
 2989 Fit      -0.002568
 2990 Fit      -0.003242
 2991 Fit      -0.003658
 2992 Fit      -0.003896
 2993 Fit      -0.004029
 2994 Fit      -0.004121
 2995 Fit      -0.004220
 2996 Fit      -0.004352
 2997 Fit      -0.004527
 2998 Fit      -0.004732
 2999 Fit      -0.004933
 3000 Fit      -0.005083
 3001 Fit      -0.005121
 3002 Fit      -0.004980
 3003 Fit      -0.004587
 3004 Fit      -0.003875
 3005 Fit      -0.002776
 3006 Fit      -0.001228
 3007 Fit       0.001101
 3008 Fit      -0.000669
 3009 Fit      -0.002029
 3010 Fit      -0.002986
 3011 Fit      -0.003612
 3012 Fit      -0.003997
 3013 Fit      -0.004224
 3014 Fit      -0.004371
 3015 Fit      -0.004495
 3016 Fit      -0.004635
 3017 Fit      -0.004806
 3018 Fit      -0.005001
 3019 Fit      -0.005186
 3020 Fit      -0.005314
 3021 Fit      -0.005325
 3022 Fit      -0.005154
 3023 Fit      -0.004742
 3024 Fit      -0.004052
 3025 Fit      -0.003082
 3026 Fit      -0.001924
 3027 Fit      -0.002150
 3028 Fit       0.001060
 3029 Fit      -0.000558
 3030 Fit      -0.001979
 3031 Fit      -0.003046
 3032 Fit      -0.003773
 3033 Fit      -0.004237
 3034 Fit      -0.004525
 3035 Fit      -0.004719
 3036 Fit      -0.004882
 3037 Fit      -0.005051
 3038 Fit      -0.005236
 3039 Fit      -0.005416
 3040 Fit      -0.005548
 3041 Fit      -0.005575
 3042 Fit      -0.005437
 3043 Fit      -0.005093
 3044 Fit      -0.004544
 3045 Fit      -0.003876
 3046 Fit      -0.003344
 3047 Fit      -0.007173
 3048 Fit      -0.007706
 3049 Fit      -0.007207
 3050 Fit      -0.005714
 3051 Fit      -0.003603
 3052 Fit      -0.001575
 3053 Fit      -0.000169
 3054 Fit       0.000403
 3055 Fit       0.000053
 3056 Fit      -0.000965
 3057 Fit      -0.002165
 3058 Fit      -0.003207
 3059 Fit      -0.003980
 3060 Fit      -0.004503
 3061 Fit      -0.004845
 3062 Fit      -0.005085
 3063 Fit      -0.005282
 3064 Fit      -0.005469
 3065 Fit      -0.005645
 3066 Fit      -0.005779
 3067 Fit      -0.005822
 3068 Fit      -0.005725
 3069 Fit      -0.005469
 3070 Fit      -0.005094
 3071 Fit      -0.004745
 3072 Fit      -0.004677
 3073 Fit      -0.005073
 3074 Fit      -0.005672
 3075 Fit      -0.006320
 3076 Fit      -0.006675
 3077 Fit      -0.006558
 3078 Fit      -0.005706
 3079 Fit      -0.004310
 3080 Fit      -0.002875
 3081 Fit      -0.001908
 3082 Fit      -0.001681
 3083 Fit      -0.002153
 3084 Fit      -0.002992
 3085 Fit      -0.003840
 3086 Fit      -0.004512
 3087 Fit      -0.004986
 3088 Fit      -0.005314
 3089 Fit      -0.005561
 3090 Fit      -0.005767
 3091 Fit      -0.005932
 3092 Fit      -0.006025
 3093 Fit      -0.006004
 3094 Fit      -0.005857
 3095 Fit      -0.005639
 3096 Fit      -0.005493
 3097 Fit      -0.005579
 3098 Fit      -0.005897
 3099 Fit      -0.006234
 3100 Fit      -0.006212
 3101 Fit      -0.005701
 3102 Fit      -0.004734
 3103 Fit      -0.003767
 3104 Fit      -0.003302
 3105 Fit      -0.003494
 3106 Fit      -0.004093
 3107 Fit      -0.004745
 3108 Fit      -0.005262
 3109 Fit      -0.005632
 3110 Fit      -0.005901
 3111 Fit      -0.006088
 3112 Fit      -0.006175
 3113 Fit      -0.006141
 3114 Fit      -0.006031
 3115 Fit      -0.005975
 3116 Fit      -0.006069
 3117 Fit      -0.006124
 3118 Fit      -0.005830
 3119 Fit      -0.005171
 3120 Fit      -0.004585
 3121 Fit      -0.004558
 3122 Fit      -0.004995
 3123 Fit      -0.005506
 3124 Fit      -0.005895
 3125 Fit      -0.006139
 3126 Fit      -0.006232
 3127 Fit      -0.006204
 3128 Fit      -0.006167
 3129 Fit      -0.006007
 3130 Fit      -0.005565
 3131 Fit      -0.005346
 3132 Fit      -0.005709
 3133 Fit      -0.006068
 3134 Fit      -0.006155
 3135 Fit      -0.005873
 3136 Fit       0.000211
 3137 Fit       0.000003
 3138 Fit      -0.000116
 3139 Fit      -0.000380
 3140 Fit      -0.001178
 3141 Fit      -0.000804
 3142 Fit      -0.001743
 3143 Fit      -0.002864
 3144 Fit      -0.004568
 3145 Fit      -0.001315
 3146 Fit      -0.001065
 3147 Fit      -0.001410
 3148 Fit      -0.001925
 3149 Fit      -0.004139
 3150 Fit      -0.001908
 3151 Fit      -0.001788
 3152 Fit      -0.001453
 3153 Fit      -0.001355
 3154 Fit      -0.003601
 3155 Fit      -0.002841
 3156 Fit      -0.002400
 3157 Fit      -0.002104
 3158 Fit      -0.001766
 3159 Fit      -0.001417
 3160 Fit      -0.001263
 3161 Fit      -0.002572
 3162 Fit      -0.002223
 3163 Fit      -0.001895
 3164 Fit      -0.001610
 3165 Fit      -0.002971
 3166 Fit      -0.002554
 3167 Fit      -0.001995
 3168 Fit      -0.004158
 3169 Fit      -0.003674
 3170 Fit      -0.003037
 3171 Fit      -0.002679
 3172 Fit      -0.002415
 3173 Fit      -0.002187
 3174 Fit      -0.001829
 3175 Fit      -0.005836
 3176 Fit      -0.005031
 3177 Fit      -0.002342
 3178 Fit      -0.002264
 3179 Fit      -0.002067
 3180 Fit      -0.001798
 3181 Fit      -0.001708
 3182 Fit      -0.001908
 3183 Fit      -0.001759
 3184 Fit      -0.001623
 3185 Fit      -0.001576
 3186 Fit      -0.002457
 3187 Fit      -0.001208
 3188 Fit      -0.001149
 3189 Fit      -0.002353
 3190 Fit      -0.003940
 3191 Fit      -0.006386
 3192 Fit      -0.000789
 3193 Fit      -0.001933
 3194 Fit      -0.000358
 3195 Fit       0.000427
 3196 Fit      -0.000134
 3197 Fit      -0.003777
 3198 Fit      -0.004856
 3199 Fit      -0.001218
 3200 Fit       0.000192
 3201 Fit      -0.006165
 3202 Fit      -0.002621
 3203 Fit       0.002432
 3204 Fit       0.006361
 3205 Fit       0.006354
 3206 Fit      -0.007199
 3207 Fit      -0.003741
 3208 Fit       0.001678
 3209 Fit       0.007960
 3210 Fit      -0.007707
 3211 Fit      -0.004394
 3212 Fit       0.000984
 3213 Fit       0.007895
 3214 Fit      -0.008760
 3215 Fit      -0.007754
 3216 Fit      -0.004681
 3217 Fit       0.000516
 3218 Fit       0.007495
 3219 Fit      -0.007578
 3220 Fit      -0.004612
 3221 Fit       0.000644
 3222 Fit       0.007855
 3223 Fit      -0.007408
 3224 Fit      -0.004508
 3225 Fit       0.000730
 3226 Fit       0.007945
 3227 Fit      -0.007325
 3228 Fit      -0.004406
 3229 Fit       0.000753
 3230 Fit       0.007749
 3231 Fit      -0.007220
 3232 Fit      -0.004046
 3233 Fit       0.001314
 3234 Fit       0.008268
 3235 Fit      -0.006874
 3236 Fit      -0.003426
 3237 Fit       0.002034
 3238 Fit       0.008385
 3239 Fit      -0.007898
 3240 Fit      -0.006125
 3241 Fit      -0.002400
 3242 Fit       0.002757
 3243 Fit       0.006747
 3244 Fit       0.006754
 3245 Fit      -0.007284
 3246 Fit      -0.005028
 3247 Fit      -0.001075
 3248 Fit       0.000403
 3249 Fit      -0.006162
 3250 Fit      -0.003920
 3251 Fit       0.001575
 3252 Fit       0.002701
 3253 Fit       0.003137
 3254 Fit       0.002630
 3255 Fit       0.004019
 3256 Fit       0.003189
 3257 Fit       0.002044
 3258 Fit       0.004078
 3259 Fit       0.003019
 3260 Fit       0.002246
 3261 Fit       0.008768
 3262 Fit       0.007406
 3263 Fit       0.011775
 3264 Fit       0.009655
 3265 Fit       0.007789
 3266 Fit       0.006185
 3267 Fit       0.013603
 3268 Fit       0.011019
 3269 Fit       0.009010
 3270 Fit       0.007305
 3271 Fit       0.015706
 3272 Fit       0.012399
 3273 Fit       0.010069
 3274 Fit       0.008181
 3275 Fit       0.006543
 3276 Fit       0.015790
 3277 Fit       0.012446
 3278 Fit       0.010098
 3279 Fit       0.008201
 3280 Fit       0.006558
 3281 Fit       0.013797
 3282 Fit       0.011133
 3283 Fit       0.009084
 3284 Fit       0.007356
 3285 Fit       0.012056
 3286 Fit       0.009818
 3287 Fit       0.007891
 3288 Fit       0.006249
 3289 Fit       0.009028
 3290 Fit       0.007558
 3291 Fit       0.002273
 3292 Fit       0.004112
 3293 Fit       0.003055
 3294 Fit       0.004068
 3295 Fit       0.003229
 3296 Fit       0.002094
 3297 Fit       0.003188
 3298 Fit       0.002671
 3299 Fit       0.001612
 3300 Fit       0.014724
 3301 Fit       0.012510
 3302 Fit       0.019815
 3303 Fit       0.016695
 3304 Fit       0.014579
 3305 Fit       0.022637
 3306 Fit       0.019114
 3307 Fit       0.017119
 3308 Fit       0.025786
 3309 Fit       0.021134
 3310 Fit       0.018684
 3311 Fit       0.025934
 3312 Fit       0.021210
 3313 Fit       0.018718
 3314 Fit       0.022987
 3315 Fit       0.019298
 3316 Fit       0.017201
 3317 Fit       0.020364
 3318 Fit       0.016981
 3319 Fit       0.014705
 3320 Fit       0.015305
 3321 Fit       0.012807
 3322 Fit      -0.001729
 3323 Fit      -0.003850
 3324 Fit      -0.007269
 3325 Fit      -0.001076
 3326 Fit      -0.003177
 3327 Fit      -0.006458
 3328 Fit       0.000709
 3329 Fit      -0.000908
 3330 Fit      -0.002912
 3331 Fit      -0.006045
 3332 Fit       0.000749
 3333 Fit      -0.001186
 3334 Fit      -0.003055
 3335 Fit      -0.006053
 3336 Fit      -0.001882
 3337 Fit      -0.003795
 3338 Fit      -0.007242
 3339 Fit      -0.004778
 3340 Fit      -0.002284
 3341 Fit      -0.003043
 3342 Fit      -0.003852
 3343 Fit      -0.004337
 3344 Fit      -0.005069
 3345 Fit      -0.006687
 3346 Fit      -0.008259
 3347 Fit      -0.001387
 3348 Fit      -0.001367
 3349 Fit      -0.001519
 3350 Fit      -0.001836
 3351 Fit      -0.002284
 3352 Fit      -0.003109
 3353 Fit      -0.004288
 3354 Fit      -0.005127
 3355 Fit      -0.005095
 3356 Fit      -0.004343
 3357 Fit      -0.001068
 3358 Fit      -0.000924
 3359 Fit      -0.001029
 3360 Fit      -0.001488
 3361 Fit      -0.002322
 3362 Fit      -0.003003
 3363 Fit      -0.003005
 3364 Fit      -0.002564
 3365 Fit      -0.002121
 3366 Fit      -0.001738
 3367 Fit      -0.001366
 3368 Fit      -0.000913
 3369 Fit      -0.000841
 3370 Fit      -0.001303
 3371 Fit      -0.001799
 3372 Fit      -0.001684
 3373 Fit      -0.001291
 3374 Fit      -0.001112
 3375 Fit       0.002590
 3376 Fit       0.001456
 3377 Fit       0.000445
 3378 Fit       0.002168
 3379 Fit       0.001469
 3380 Fit       0.000687
 3381 Fit      -0.000040
 3382 Fit       0.000948
 3383 Fit       0.000650
 3384 Fit       0.000102
 3385 Fit      -0.000313
 3386 Fit      -0.000196
 3387 Fit      -0.000483
 3388 Fit      -0.001757
 3389 Fit      -0.001232
 3390 Fit      -0.001312
 3391 Fit      -0.002553
 3392 Fit       0.002868
 3393 Fit       0.002246
 3394 Fit       0.000928
 3395 Fit       0.001896
 3396 Fit       0.002654
 3397 Fit       0.003011
 3398 Fit       0.002238
 3399 Fit       0.001602
 3400 Fit       0.000719
 3401 Fit       0.000081
 3402 Fit       0.000930
 3403 Fit       0.001746
 3404 Fit       0.002304
 3405 Fit       0.002483
 3406 Fit       0.001674
 3407 Fit       0.000997
 3408 Fit       0.000013
 3409 Fit      -0.000209
 3410 Fit       0.000630
 3411 Fit       0.001383
 3412 Fit       0.001862
 3413 Fit       0.001970
 3414 Fit       0.000992
 3415 Fit       0.000303
 3416 Fit      -0.000706
 3417 Fit       0.000021
 3418 Fit       0.000750
 3419 Fit       0.001209
 3420 Fit       0.001300
 3421 Fit       0.000166
 3422 Fit      -0.000577
 3423 Fit      -0.000397
 3424 Fit       0.000238
 3425 Fit       0.000451
 3426 Fit      -0.000732
 3427 Fit      -0.000568
 3428 Fit      -0.001185
 3429 Fit      -0.000930
 3430 Fit      -0.000305
 3431 Fit      -0.001172
 3432 Fit      -0.000608
 3433 Fit      -0.000031
 3434 Fit       0.000095
 3435 Fit       0.000493
 3436 Fit      -0.000372
 3437 Fit      -0.000096
 3438 Fit       0.000585
 3439 Fit       0.000964
 3440 Fit       0.000944
 3441 Fit       0.001163
 3442 Fit       0.000252
 3443 Fit      -0.001080
 3444 Fit      -0.000210
 3445 Fit       0.000614
 3446 Fit       0.001313
 3447 Fit       0.001686
 3448 Fit       0.001644
 3449 Fit       0.001727
 3450 Fit       0.000819
 3451 Fit      -0.000480
 3452 Fit       0.000183
 3453 Fit       0.001081
 3454 Fit       0.001847
 3455 Fit       0.002255
 3456 Fit       0.002217
 3457 Fit       0.002312
 3458 Fit       0.001418
 3459 Fit       0.001380
 3460 Fit       0.002362
 3461 Fit       0.002867
 3462 Fit       0.002833
 3463 Fit      -0.001773
 3464 Fit      -0.001483
 3465 Fit      -0.001212
 3466 Fit      -0.001718
 3467 Fit      -0.002528
 3468 Fit      -0.002575
 3469 Fit      -0.002086
 3470 Fit      -0.001546
 3471 Fit      -0.001180
 3472 Fit      -0.001081
 3473 Fit      -0.001454
 3474 Fit      -0.002459
 3475 Fit      -0.003566
 3476 Fit      -0.003917
 3477 Fit      -0.001821
 3478 Fit      -0.001624
 3479 Fit      -0.001543
 3480 Fit      -0.001596
 3481 Fit      -0.001830
 3482 Fit      -0.002576
 3483 Fit      -0.003997
 3484 Fit      -0.005408
 3485 Fit      -0.005932
 3486 Fit      -0.002254
 3487 Fit      -0.002503
 3488 Fit      -0.002929
 3489 Fit      -0.003344
 3490 Fit      -0.003512
 3491 Fit      -0.003891
 3492 Fit      -0.005413
 3493 Fit      -0.007585
 3494 Fit      -0.003880
 3495 Fit      -0.005469
 3496 Fit      -0.002965
 3497 Fit      -0.003693
 3498 Fit      -0.002351
 3499 Fit      -0.001940
 3500 Fit      -0.001674
 3501 Fit      -0.001049
 3502 Fit      -0.001144
 3503 Fit      -0.000277
 3504 Fit      -0.000080
 3505 Fit      -0.000399
 3506 Fit      -0.000957
 3507 Fit       0.001085
 3508 Fit       0.000755
 3509 Fit       0.000097
 3510 Fit       0.002714
 3511 Fit       0.001735
 3512 Fit       0.000683
 3513 Fit       0.014047
 3514 Fit       0.017342
 3515 Fit       0.016886
 3516 Fit       0.013013
 3517 Fit       0.018098
 3518 Fit       0.021386
 3519 Fit       0.023061
 3520 Fit       0.011973
 3521 Fit       0.017435
 3522 Fit       0.021486
 3523 Fit       0.024419
 3524 Fit       0.026576
 3525 Fit       0.012190
 3526 Fit       0.017823
 3527 Fit       0.022074
 3528 Fit       0.025266
 3529 Fit       0.027805
 3530 Fit       0.012251
 3531 Fit       0.017869
 3532 Fit       0.022108
 3533 Fit       0.025289
 3534 Fit       0.027810
 3535 Fit       0.012147
 3536 Fit       0.017565
 3537 Fit       0.021583
 3538 Fit       0.024485
 3539 Fit       0.026588
 3540 Fit       0.013250
 3541 Fit       0.018275
 3542 Fit       0.021512
 3543 Fit       0.023122
 3544 Fit       0.014299
 3545 Fit       0.017533
 3546 Fit       0.017052
 -----------------------------------------------------------------
 Leave Link  602 at Thu Jan 16 22:39:21 2014, MaxMem=   235929600 cpu:         1.3

 Test job not archived.
 1\1\GINC-G54\SP\RHF\Gen\C10H13Br1O1\KOLAR\16-Jan-2014\0\\# hf/gen pop=
 mk iop(6/33=2,6/41=5,6/42=2)\\na resp\\0,1\C,0,-2.286208,2.178581,0.00
 2537\C,0,-0.978464,1.430232,-0.010199\C,0,0.241012,2.115344,-0.027412\
 C,0,1.468513,1.447114,-0.039995\C,0,1.527271,0.04284,-0.040659\C,0,0.3
 09211,-0.642613,-0.019909\C,0,-0.907624,0.032849,-0.005279\Br,0,-2.523
 573,-1.003425,0.02007\C,0,2.858534,-0.698318,-0.043271\C,0,2.960783,-1
 .701884,-1.206478\C,0,3.113273,-1.389991,1.310317\O,0,2.653876,2.13769
 6,-0.050596\H,0,-2.878767,1.926153,0.889592\H,0,-2.119442,3.259802,-0.
 003817\H,0,-2.899814,1.919098,-0.868028\H,0,0.22954,3.204739,-0.030324
 \H,0,0.304739,-1.727587,-0.016011\H,0,3.643596,0.05091,-0.183613\H,0,2
 .805544,-1.208466,-2.172042\H,0,2.218505,-2.503902,-1.116725\H,0,3.951
 753,-2.170882,-1.218824\H,0,4.095048,-1.878653,1.315001\H,0,3.088039,-
 0.668597,2.134157\H,0,2.356131,-2.15713,1.513366\H,0,2.461352,3.087888
 ,-0.058319\\Version=AM64L-G09RevD.01\State=1-A\HF=-3030.7025073\RMSD=6
 .003e-09\Dipole=0.3475527,0.9327246,-0.0159783\Quadrupole=-3.2384409,7
 .3517235,-4.1132826,-1.3053399,-0.0974306,-0.0833664\PG=C01 [X(C10H13B
 r1O1)]\\@


 THE GREAT THING ABOUT BEING IMPERFECT IS THE JOY IT BRINGS OTHERS.
   -- SIGN OUTSIDE LAKE AGASSIZ JR. HIGH SCHOOL, FARGO, N.D.
 Job cpu time:       0 days  0 hours  2 minutes 34.5 seconds.
 File lengths (MBytes):  RWF=     25 Int=      0 D2E=      0 Chk=      3 Scr=      1
 Normal termination of Gaussian 09 at Thu Jan 16 22:39:21 2014.
154.08user 0.39system 2:34.90elapsed 99%CPU (0avgtext+0avgdata 603408maxresident)k
8inputs+99048outputs (0major+171092minor)pagefaults 0swaps
