Linux g42 2.6.38.6-client #1 SMP Tue Jun 12 11:27:21 CEST 2012 x86_64 GNU/Linux
Thu Jan 16 21:46:46 CET 2014

 Entering Gaussian System, Link 0=/usr/local/programs/common/gaussian/gaussian09_d01/arch/amd64-pgi_10.4.0-acml/g09/g09
 Initial command:
 /usr/local/programs/common/gaussian/gaussian09_d01/arch/amd64-pgi_10.4.0-acml/g09/l1.exe "/scratch/kolar/g09_17581/Gau-2177.inp" -scrdir="/scratch/kolar/g09_17581/"
 Entering Link 1 = /usr/local/programs/common/gaussian/gaussian09_d01/arch/amd64-pgi_10.4.0-acml/g09/l1.exe PID=      2182.
  
 Copyright (c) 1988,1990,1992,1993,1995,1998,2003,2009,2013,
            Gaussian, Inc.  All Rights Reserved.
  
 This is part of the Gaussian(R) 09 program.  It is based on
 the Gaussian(R) 03 system (copyright 2003, Gaussian, Inc.),
 the Gaussian(R) 98 system (copyright 1998, Gaussian, Inc.),
 the Gaussian(R) 94 system (copyright 1995, Gaussian, Inc.),
 the Gaussian 92(TM) system (copyright 1992, Gaussian, Inc.),
 the Gaussian 90(TM) system (copyright 1990, Gaussian, Inc.),
 the Gaussian 88(TM) system (copyright 1988, Gaussian, Inc.),
 the Gaussian 86(TM) system (copyright 1986, Carnegie Mellon
 University), and the Gaussian 82(TM) system (copyright 1983,
 Carnegie Mellon University). Gaussian is a federally registered
 trademark of Gaussian, Inc.
  
 This software contains proprietary and confidential information,
 including trade secrets, belonging to Gaussian, Inc.
  
 This software is provided under written license and may be
 used, copied, transmitted, or stored only in accord with that
 written license.
  
 The following legend is applicable only to US Government
 contracts under FAR:
  
                    RESTRICTED RIGHTS LEGEND
  
 Use, reproduction and disclosure by the US Government is
 subject to restrictions as set forth in subparagraphs (a)
 and (c) of the Commercial Computer Software - Restricted
 Rights clause in FAR 52.227-19.
  
 Gaussian, Inc.
 340 Quinnipiac St., Bldg. 40, Wallingford CT 06492
  
  
 ---------------------------------------------------------------
 Warning -- This program may not be used in any manner that
 competes with the business of Gaussian, Inc. or will provide
 assistance to any competitor of Gaussian, Inc.  The licensee
 of this program is prohibited from giving any competitor of
 Gaussian, Inc. access to this program.  By using this program,
 the user acknowledges that Gaussian, Inc. is engaged in the
 business of creating and licensing software in the field of
 computational chemistry and represents and warrants to the
 licensee that it is not a competitor of Gaussian, Inc. and that
 it will not use this program in any manner prohibited above.
 ---------------------------------------------------------------
  

 Cite this work as:
 Gaussian 09, Revision D.01,
 M. J. Frisch, G. W. Trucks, H. B. Schlegel, G. E. Scuseria, 
 M. A. Robb, J. R. Cheeseman, G. Scalmani, V. Barone, B. Mennucci, 
 G. A. Petersson, H. Nakatsuji, M. Caricato, X. Li, H. P. Hratchian, 
 A. F. Izmaylov, J. Bloino, G. Zheng, J. L. Sonnenberg, M. Hada, 
 M. Ehara, K. Toyota, R. Fukuda, J. Hasegawa, M. Ishida, T. Nakajima, 
 Y. Honda, O. Kitao, H. Nakai, T. Vreven, J. A. Montgomery, Jr., 
 J. E. Peralta, F. Ogliaro, M. Bearpark, J. J. Heyd, E. Brothers, 
 K. N. Kudin, V. N. Staroverov, T. Keith, R. Kobayashi, J. Normand, 
 K. Raghavachari, A. Rendell, J. C. Burant, S. S. Iyengar, J. Tomasi, 
 M. Cossi, N. Rega, J. M. Millam, M. Klene, J. E. Knox, J. B. Cross, 
 V. Bakken, C. Adamo, J. Jaramillo, R. Gomperts, R. E. Stratmann, 
 O. Yazyev, A. J. Austin, R. Cammi, C. Pomelli, J. W. Ochterski, 
 R. L. Martin, K. Morokuma, V. G. Zakrzewski, G. A. Voth, 
 P. Salvador, J. J. Dannenberg, S. Dapprich, A. D. Daniels, 
 O. Farkas, J. B. Foresman, J. V. Ortiz, J. Cioslowski, 
 and D. J. Fox, Gaussian, Inc., Wallingford CT, 2013.
 
 ******************************************
 Gaussian 09:  AM64L-G09RevD.01 24-Apr-2013
                16-Jan-2014 
 ******************************************
 %mem=1800mb
 -----------------------------------------
 # hf/gen pop=mk iop(6/33=2,6/41=5,6/42=2)
 -----------------------------------------
 1/38=1/1;
 2/12=2,17=6,18=5,40=1/2;
 3/5=7,11=9,16=1,25=1,30=1/1,2,3;
 4//1;
 5/5=2,38=5/2;
 6/7=2,8=2,9=2,10=2,15=8,20=1,28=1,33=2,41=5,42=2/1,2;
 99/5=1,9=1/99;
 -------
 na resp
 -------
 Symbolic Z-matrix:
 Charge =  0 Multiplicity = 1
 6                    -1.16053  -0.80391   0.00008 
 6                    -2.52917  -1.06932   0.00008 
 6                    -3.44902  -0.02369  0. 
 6                    -3.01269   1.30005  -0.00013 
 6                    -1.64806   1.56653  -0.00012 
 6                    -0.70496   0.52404  0. 
 7                     0.64876   0.90006   0.00006 
 6                     1.80863   0.17424   0.00003 
 7                     1.76965  -1.17152  -0.00011 
 6                     2.97959  -1.73901  -0.0001 
 7                     4.15861  -1.13163  -0.00005 
 6                     4.06379   0.2223   -0.00005 
 7                     2.92457   0.92618   0.00014 
 7                     5.22708   0.90995  -0.0005 
 17                   -5.17445  -0.37244   0.00005 
 1                    -0.44346  -1.61244   0.00007 
 1                    -2.87738  -2.09689   0.00018 
 1                    -3.73      2.11368  -0.00026 
 1                    -1.30917   2.60033  -0.00026 
 1                     0.82998   1.89592   0.00004 
 1                     2.99592  -2.82829  -0.00003 
 1                     6.09785   0.40336   0.00197 
 1                     5.21566   1.91719   0.00201 
 
                          Input orientation:                          
 ---------------------------------------------------------------------
 Center     Atomic      Atomic             Coordinates (Angstroms)
 Number     Number       Type             X           Y           Z
 ---------------------------------------------------------------------
      1          6           0       -1.160532   -0.803914    0.000078
      2          6           0       -2.529170   -1.069323    0.000078
      3          6           0       -3.449019   -0.023688   -0.000002
      4          6           0       -3.012686    1.300051   -0.000133
      5          6           0       -1.648063    1.566529   -0.000124
      6          6           0       -0.704959    0.524037   -0.000002
      7          7           0        0.648760    0.900063    0.000058
      8          6           0        1.808631    0.174236    0.000029
      9          7           0        1.769651   -1.171519   -0.000109
     10          6           0        2.979593   -1.739009   -0.000098
     11          7           0        4.158609   -1.131633   -0.000049
     12          6           0        4.063794    0.222300   -0.000045
     13          7           0        2.924571    0.926178    0.000135
     14          7           0        5.227078    0.909954   -0.000502
     15         17           0       -5.174448   -0.372439    0.000051
     16          1           0       -0.443464   -1.612440    0.000065
     17          1           0       -2.877376   -2.096893    0.000182
     18          1           0       -3.729999    2.113678   -0.000260
     19          1           0       -1.309166    2.600332   -0.000260
     20          1           0        0.829976    1.895915    0.000039
     21          1           0        2.995922   -2.828293   -0.000031
     22          1           0        6.097853    0.403363    0.001966
     23          1           0        5.215661    1.917189    0.002012
 ---------------------------------------------------------------------
                    Distance matrix (angstroms):
                    1          2          3          4          5
     1  C    0.000000
     2  C    1.394135   0.000000
     3  C    2.417835   1.392650   0.000000
     4  C    2.803060   2.418206   1.393797   0.000000
     5  C    2.420059   2.779220   2.402547   1.390398   0.000000
     6  C    1.403923   2.422095   2.798190   2.434708   1.405786
     7  N    2.485372   3.738679   4.200608   3.683229   2.391563
     8  C    3.126133   4.512533   5.261374   4.951016   3.726555
     9  N    2.953152   4.300036   5.343410   5.383252   4.379232
    10  C    4.244413   5.549320   6.653524   6.718876   5.686984
    11  N    5.329227   6.688069   7.687883   7.572355   6.402930
    12  C    5.324162   6.718293   7.516839   7.158080   5.867901
    13  N    4.436359   5.807350   6.443981   5.949017   4.617254
    14  N    6.613540   8.004806   8.726187   8.248993   6.906421
    15  Cl   4.037040   2.735533   1.760322   2.733210   4.024300
    16  H    1.080695   2.155260   3.399631   3.883749   3.399544
    17  H    2.149267   1.084964   2.150571   3.399638   3.864178
    18  H    3.887738   3.401983   2.155756   1.084678   2.152633
    19  H    3.407489   3.867141   3.385920   2.143061   1.087934
    20  H    3.354281   4.480681   4.689848   3.888587   2.499834
    21  H    4.623226   5.798329   7.028732   7.290171   6.393830
    22  H    7.358103   8.751819   9.556419   9.154560   7.832763
    23  H    6.932549   8.300703   8.879397   8.251458   6.872676
                    6          7          8          9         10
     6  C    0.000000
     7  N    1.404974   0.000000
     8  C    2.537813   1.368256   0.000000
     9  N    2.999767   2.355387   1.346319   0.000000
    10  C    4.324038   3.521006   2.243136   1.336415   0.000000
    11  N    5.137659   4.055469   2.688436   2.389291   1.326267
    12  C    4.778289   3.481640   2.255675   2.684367   2.241032
    13  N    3.651740   2.275961   1.345637   2.394613   2.665755
    14  N    5.944577   4.578329   3.496721   4.035633   3.473931
    15  Cl   4.558509   5.960622   7.004445   6.989924   8.267763
    16  H    2.152420   2.739640   2.874742   2.256610   3.425396
    17  H    3.404214   4.627675   5.207369   4.738267   5.867893
    18  H    3.417283   4.543830   5.868378   6.406143   7.737042
    19  H    2.162422   2.593143   3.950519   4.868878   6.101093
    20  H    2.058658   1.012206   1.980390   3.208137   4.222976
    21  H    4.993459   4.405656   3.228752   2.061223   1.089406
    22  H    6.803883   5.471684   4.295338   4.605821   3.783293
    23  H    6.082320   4.678796   3.826976   4.627646   4.285766
                   11         12         13         14         15
    11  N    0.000000
    12  C    1.357249   0.000000
    13  N    2.399466   1.339132   0.000000
    14  N    2.304279   1.351332   2.302564   0.000000
    15  Cl   9.363884   9.257366   8.202470  10.480280   0.000000
    16  H    4.627121   4.866379   4.217611   6.206248   4.890788
    17  H    7.101888   7.318367   6.542289   8.644264   2.872330
    18  H    8.530075   8.020007   6.759694   9.037598   2.875276
    19  H    6.619979   5.875690   4.552727   6.751286   4.876246
    20  H    4.499538   3.641231   2.308185   4.506287   6.418609
    21  H    2.056817   3.232100   3.755149   4.353452   8.531481
    22  H    2.473234   2.042103   3.216062   1.007417  11.298966
    23  H    3.226868   2.049256   2.496237   1.007303  10.639397
                   16         17         18         19         20
    16  H    0.000000
    17  H    2.481657   0.000000
    18  H    4.968427   4.296030   0.000000
    19  H    4.300801   4.952091   2.469264   0.000000
    20  H    3.732319   5.448575   4.565172   2.252139   0.000000
    21  H    3.647969   5.918663   8.346322   6.928474   5.197063
    22  H    6.844874   9.316975   9.975563   7.725970   5.475239
    23  H    6.669631   9.033831   8.947818   6.560492   4.385737
                   21         22         23
    21  H    0.000000
    22  H    4.479462   0.000000
    23  H    5.238974   1.752122   0.000000
 Stoichiometry    C9H8ClN5
 Framework group  C1[X(C9H8ClN5)]
 Deg. of freedom    63
 Full point group                 C1      NOp   1
 Largest Abelian subgroup         C1      NOp   1
 Largest concise Abelian subgroup C1      NOp   1
                         Standard orientation:                         
 ---------------------------------------------------------------------
 Center     Atomic      Atomic             Coordinates (Angstroms)
 Number     Number       Type             X           Y           Z
 ---------------------------------------------------------------------
      1          6           0        1.160532    0.803914    0.000078
      2          6           0        2.529170    1.069323    0.000078
      3          6           0        3.449019    0.023688   -0.000002
      4          6           0        3.012686   -1.300051   -0.000133
      5          6           0        1.648063   -1.566529   -0.000124
      6          6           0        0.704959   -0.524037   -0.000002
      7          7           0       -0.648760   -0.900063    0.000058
      8          6           0       -1.808631   -0.174236    0.000029
      9          7           0       -1.769651    1.171519   -0.000109
     10          6           0       -2.979593    1.739009   -0.000098
     11          7           0       -4.158609    1.131633   -0.000049
     12          6           0       -4.063794   -0.222300   -0.000045
     13          7           0       -2.924571   -0.926178    0.000135
     14          7           0       -5.227078   -0.909954   -0.000502
     15         17           0        5.174448    0.372439    0.000051
     16          1           0        0.443464    1.612440    0.000065
     17          1           0        2.877376    2.096893    0.000182
     18          1           0        3.729999   -2.113678   -0.000260
     19          1           0        1.309166   -2.600332   -0.000260
     20          1           0       -0.829976   -1.895915    0.000039
     21          1           0       -2.995922    2.828293   -0.000031
     22          1           0       -6.097853   -0.403363    0.001966
     23          1           0       -5.215661   -1.917189    0.002012
 ---------------------------------------------------------------------
 Rotational constants (GHZ):      2.2703905      0.1977241      0.1818842
 General basis read from cards:  (5D, 7F)
 There are   245 symmetry adapted cartesian basis functions of A   symmetry.
 There are   230 symmetry adapted basis functions of A   symmetry.
   230 basis functions,   476 primitive gaussians,   245 cartesian basis functions
    57 alpha electrons       57 beta electrons
       nuclear repulsion energy       976.6801482493 Hartrees.
 NAtoms=   23 NActive=   23 NUniq=   23 SFac= 1.00D+00 NAtFMM=   60 NAOKFM=F Big=F
 Integral buffers will be    131072 words long.
 Raffenetti 1 integral format.
 Two-electron integral symmetry is turned on.
 One-electron integrals computed using PRISM.
 NBasis=   230 RedAO= T EigKep=  4.48D-04  NBF=   230
 NBsUse=   230 1.00D-06 EigRej= -1.00D+00 NBFU=   230
 ExpMin= 1.43D-01 ExpMax= 2.52D+04 ExpMxC= 3.78D+03 IAcc=1 IRadAn=         1 AccDes= 0.00D+00
 Harris functional with IExCor=  205 and IRadAn=       1 diagonalized for initial guess.
 HarFok:  IExCor=  205 AccDes= 0.00D+00 IRadAn=         1 IDoV= 1 UseB2=F ITyADJ=14
 ICtDFT=  3500011 ScaDFX=  1.000000  1.000000  1.000000  1.000000
 FoFCou: FMM=F IPFlag=           0 FMFlag=      100000 FMFlg1=           0
         NFxFlg=           0 DoJE=T BraDBF=F KetDBF=T FulRan=T
         wScrn=  0.000000 ICntrl=     500 IOpCl=  0 I1Cent=   200000004 NGrid=           0
         NMat0=    1 NMatS0=      1 NMatT0=    0 NMatD0=    1 NMtDS0=    0 NMtDT0=    0
 Petite list used in FoFCou.
 Requested convergence on RMS density matrix=1.00D-08 within 128 cycles.
 Requested convergence on MAX density matrix=1.00D-06.
 Requested convergence on             energy=1.00D-06.
 No special actions if energy rises.
 Integral accuracy reduced to 1.0D-05 until final iterations.
 Initial convergence to 1.0D-05 achieved.  Increase integral accuracy.
 SCF Done:  E(RHF) =  -1077.23801284     A.U. after   16 cycles
            NFock= 16  Conv=0.79D-08     -V/T= 2.0008

 **********************************************************************

            Population analysis using the SCF density.

 **********************************************************************

 Orbital symmetries:
 BldTbl:  Degeneracy threshold= 1.00D-02
       Occupied  (A) (A) (A) (A) (A) (A) (A) (A) (A) (A) (A) (A)
                 (A) (A) (A) (A) (A) (A) (A) (A) (A) (A) (A) (A)
                 (A) (A) (A) (A) (A) (A) (A) (A) (A) (A) (A) (A)
                 (A) (A) (A) (A) (A) (A) (A) (A) (A) (A) (A) (A)
                 (A) (A) (A) (A) (A) (A) (A) (A) (A)
       Virtual   (A) (A) (A) (A) (A) (A) (A) (A) (A) (A) (A) (A)
                 (A) (A) (A) (A) (A) (A) (A) (A) (A) (A) (A) (A)
                 (A) (A) (A) (A) (A) (A) (A) (A) (A) (A) (A) (A)
                 (A) (A) (A) (A) (A) (A) (A) (A) (A) (A) (A) (A)
                 (A) (A) (A) (A) (A) (A) (A) (A) (A) (A) (A) (A)
                 (A) (A) (A) (A) (A) (A) (A) (A) (A) (A) (A) (A)
                 (A) (A) (A) (A) (A) (A) (A) (A) (A) (A) (A) (A)
                 (A) (A) (A) (A) (A) (A) (A) (A) (A) (A) (A) (A)
                 (A) (A) (A) (A) (A) (A) (A) (A) (A) (A) (A) (A)
                 (A) (A) (A) (A) (A) (A) (A) (A) (A) (A) (A) (A)
                 (A) (A) (A) (A) (A) (A) (A) (A) (A) (A) (A) (A)
                 (A) (A) (A) (A) (A) (A) (A) (A) (A) (A) (A) (A)
                 (A) (A) (A) (A) (A) (A) (A) (A) (A) (A) (A) (A)
                 (A) (A) (A) (A) (A) (A) (A) (A) (A) (A) (A) (A)
                 (A) (A) (A) (A) (A)
 The electronic state is 1-A.
 Alpha  occ. eigenvalues -- -104.81460 -15.61206 -15.59303 -15.56376 -15.56230
 Alpha  occ. eigenvalues --  -15.56215 -11.37924 -11.37502 -11.33436 -11.30063
 Alpha  occ. eigenvalues --  -11.29531 -11.25364 -11.25012 -11.24794 -11.23624
 Alpha  occ. eigenvalues --  -10.55293  -8.02150  -8.01825  -8.01817  -1.37013
 Alpha  occ. eigenvalues --   -1.29394  -1.24642  -1.19661  -1.17157  -1.16052
 Alpha  occ. eigenvalues --   -1.10270  -1.02957  -0.99550  -0.91681  -0.89344
 Alpha  occ. eigenvalues --   -0.85100  -0.81761  -0.77766  -0.76026  -0.71777
 Alpha  occ. eigenvalues --   -0.67969  -0.66742  -0.65375  -0.63430  -0.63115
 Alpha  occ. eigenvalues --   -0.61188  -0.60520  -0.59863  -0.56760  -0.56722
 Alpha  occ. eigenvalues --   -0.52714  -0.52268  -0.51262  -0.49067  -0.45634
 Alpha  occ. eigenvalues --   -0.44839  -0.42999  -0.42501  -0.40311  -0.37166
 Alpha  occ. eigenvalues --   -0.34857  -0.29944
 Alpha virt. eigenvalues --    0.11084   0.12690   0.13756   0.18054   0.19622
 Alpha virt. eigenvalues --    0.22643   0.23388   0.27174   0.27517   0.28996
 Alpha virt. eigenvalues --    0.30084   0.32516   0.33863   0.36108   0.36260
 Alpha virt. eigenvalues --    0.39582   0.40965   0.43547   0.44052   0.46212
 Alpha virt. eigenvalues --    0.47908   0.48989   0.50597   0.52495   0.55253
 Alpha virt. eigenvalues --    0.56584   0.57890   0.61262   0.61883   0.62473
 Alpha virt. eigenvalues --    0.64329   0.64424   0.70837   0.71249   0.72510
 Alpha virt. eigenvalues --    0.74555   0.75675   0.79575   0.80246   0.81312
 Alpha virt. eigenvalues --    0.81502   0.81675   0.82153   0.82493   0.84101
 Alpha virt. eigenvalues --    0.84366   0.84912   0.85527   0.85718   0.87813
 Alpha virt. eigenvalues --    0.89293   0.89998   0.91874   0.92023   0.95493
 Alpha virt. eigenvalues --    0.97990   0.99032   0.99802   1.02507   1.05074
 Alpha virt. eigenvalues --    1.05714   1.06730   1.07083   1.08385   1.09868
 Alpha virt. eigenvalues --    1.10844   1.11088   1.12211   1.12451   1.14087
 Alpha virt. eigenvalues --    1.15883   1.17685   1.18543   1.18885   1.19256
 Alpha virt. eigenvalues --    1.20275   1.20423   1.21340   1.23364   1.25130
 Alpha virt. eigenvalues --    1.26205   1.26917   1.30005   1.33738   1.37227
 Alpha virt. eigenvalues --    1.39137   1.40192   1.41740   1.46355   1.47250
 Alpha virt. eigenvalues --    1.48180   1.48889   1.51678   1.52837   1.59510
 Alpha virt. eigenvalues --    1.59964   1.63034   1.63182   1.67009   1.68153
 Alpha virt. eigenvalues --    1.70200   1.71673   1.72916   1.73079   1.74517
 Alpha virt. eigenvalues --    1.75271   1.77502   1.78333   1.78882   1.82330
 Alpha virt. eigenvalues --    1.83599   1.87885   1.93724   1.94653   2.03009
 Alpha virt. eigenvalues --    2.04511   2.07483   2.10239   2.11453   2.12339
 Alpha virt. eigenvalues --    2.15126   2.15688   2.18069   2.18255   2.27987
 Alpha virt. eigenvalues --    2.28638   2.29606   2.31295   2.32376   2.36879
 Alpha virt. eigenvalues --    2.41015   2.43527   2.44476   2.44591   2.47691
 Alpha virt. eigenvalues --    2.48664   2.49887   2.52823   2.54078   2.56661
 Alpha virt. eigenvalues --    2.58962   2.62332   2.64241   2.64278   2.67941
 Alpha virt. eigenvalues --    2.70127   2.71463   2.76551   2.80741   2.82212
 Alpha virt. eigenvalues --    2.84448   2.88535   2.91163   2.93484   2.94806
 Alpha virt. eigenvalues --    2.97189   2.99803   3.01045   3.03496   3.05009
 Alpha virt. eigenvalues --    3.08732   3.10127   3.10564   3.11812   3.12081
 Alpha virt. eigenvalues --    3.21036   3.24808   3.33790   3.47550   3.55055
 Alpha virt. eigenvalues --    3.67853   3.79745   3.82380
          Condensed to atoms (all electrons):
               1          2          3          4          5          6
     1  C    4.982185   0.513083  -0.042547  -0.033208  -0.042042   0.577688
     2  C    0.513083   4.949824   0.525717  -0.043864  -0.035633  -0.031851
     3  C   -0.042547   0.525717   5.059536   0.530931  -0.046303  -0.030581
     4  C   -0.033208  -0.043864   0.530931   4.907173   0.541341  -0.031486
     5  C   -0.042042  -0.035633  -0.046303   0.541341   4.992197   0.550387
     6  C    0.577688  -0.031851  -0.030581  -0.031486   0.550387   4.467171
     7  N   -0.043320   0.003749   0.000074   0.002983  -0.058181   0.203117
     8  C   -0.005108   0.000007   0.000004  -0.000082   0.002685  -0.020936
     9  N   -0.022787   0.000068   0.000004  -0.000013   0.000212   0.006457
    10  C    0.000245   0.000002   0.000000   0.000000   0.000000  -0.000073
    11  N   -0.000017   0.000000   0.000000   0.000000   0.000000   0.000019
    12  C    0.000001   0.000000   0.000000   0.000000   0.000002  -0.000020
    13  N   -0.000028   0.000000   0.000000   0.000000  -0.000169   0.002777
    14  N    0.000000   0.000000   0.000000   0.000000   0.000000   0.000001
    15  Cl   0.002030  -0.063274   0.212200  -0.063533   0.002459   0.000301
    16  H    0.366265  -0.028249   0.001961   0.000010   0.002642  -0.018131
    17  H   -0.024702   0.381632  -0.029222   0.002072   0.000314   0.001262
    18  H    0.000207   0.002071  -0.027620   0.381032  -0.025922   0.001484
    19  H    0.002678   0.000131   0.002362  -0.023570   0.377793  -0.037453
    20  H    0.001682  -0.000077   0.000007   0.000128  -0.000150  -0.028767
    21  H    0.000035  -0.000001   0.000000   0.000000   0.000000   0.000000
    22  H    0.000000   0.000000   0.000000   0.000000   0.000000   0.000000
    23  H    0.000000   0.000000   0.000000   0.000000   0.000000   0.000000
               7          8          9         10         11         12
     1  C   -0.043320  -0.005108  -0.022787   0.000245  -0.000017   0.000001
     2  C    0.003749   0.000007   0.000068   0.000002   0.000000   0.000000
     3  C    0.000074   0.000004   0.000004   0.000000   0.000000   0.000000
     4  C    0.002983  -0.000082  -0.000013   0.000000   0.000000   0.000000
     5  C   -0.058181   0.002685   0.000212   0.000000   0.000000   0.000002
     6  C    0.203117  -0.020936   0.006457  -0.000073   0.000019  -0.000020
     7  N    7.424097   0.314974  -0.084483   0.002433  -0.000234   0.000167
     8  C    0.314974   3.950805   0.474327  -0.059163  -0.021548  -0.048780
     9  N   -0.084483   0.474327   7.041677   0.464891  -0.065617  -0.019346
    10  C    0.002433  -0.059163   0.464891   4.445440   0.482449  -0.063209
    11  N   -0.000234  -0.021548  -0.065617   0.482449   6.972751   0.488638
    12  C    0.000167  -0.048780  -0.019346  -0.063209   0.488638   3.985459
    13  N   -0.098196   0.504729  -0.092740  -0.016877  -0.093689   0.495807
    14  N   -0.000051   0.000513  -0.000056   0.002026  -0.089890   0.335851
    15  Cl   0.000002   0.000000   0.000000   0.000000   0.000000   0.000000
    16  H   -0.004813   0.001798   0.012326   0.000079   0.000042   0.000006
    17  H   -0.000064  -0.000002  -0.000008   0.000000   0.000000   0.000000
    18  H   -0.000069   0.000001   0.000000   0.000000   0.000000   0.000000
    19  H   -0.002791   0.000027   0.000000   0.000000   0.000000   0.000000
    20  H    0.323140  -0.022358   0.003323  -0.000144   0.000067   0.000691
    21  H   -0.000058   0.003832  -0.053404   0.416511  -0.050984   0.003649
    22  H    0.000002  -0.000071   0.000041   0.000208   0.004878  -0.021499
    23  H   -0.000027   0.000312   0.000044  -0.000132   0.003336  -0.022330
              13         14         15         16         17         18
     1  C   -0.000028   0.000000   0.002030   0.366265  -0.024702   0.000207
     2  C    0.000000   0.000000  -0.063274  -0.028249   0.381632   0.002071
     3  C    0.000000   0.000000   0.212200   0.001961  -0.029222  -0.027620
     4  C    0.000000   0.000000  -0.063533   0.000010   0.002072   0.381032
     5  C   -0.000169   0.000000   0.002459   0.002642   0.000314  -0.025922
     6  C    0.002777   0.000001   0.000301  -0.018131   0.001262   0.001484
     7  N   -0.098196  -0.000051   0.000002  -0.004813  -0.000064  -0.000069
     8  C    0.504729   0.000513   0.000000   0.001798  -0.000002   0.000001
     9  N   -0.092740  -0.000056   0.000000   0.012326  -0.000008   0.000000
    10  C   -0.016877   0.002026   0.000000   0.000079   0.000000   0.000000
    11  N   -0.093689  -0.089890   0.000000   0.000042   0.000000   0.000000
    12  C    0.495807   0.335851   0.000000   0.000006   0.000000   0.000000
    13  N    7.076572  -0.093945   0.000000   0.000161   0.000000   0.000000
    14  N   -0.093945   7.166981   0.000000   0.000000   0.000000   0.000000
    15  Cl   0.000000   0.000000  16.920129  -0.000062   0.000483   0.000532
    16  H    0.000161   0.000000  -0.000062   0.379764  -0.001182   0.000006
    17  H    0.000000   0.000000   0.000483  -0.001182   0.435341  -0.000099
    18  H    0.000000   0.000000   0.000532   0.000006  -0.000099   0.436157
    19  H   -0.000017   0.000000  -0.000091  -0.000092   0.000008  -0.001795
    20  H    0.007555  -0.000046   0.000000  -0.000125   0.000001  -0.000011
    21  H   -0.000803  -0.000060   0.000000  -0.000085   0.000000   0.000000
    22  H    0.003359   0.320020   0.000000   0.000000   0.000000   0.000000
    23  H    0.004684   0.321194   0.000000   0.000000   0.000000   0.000000
              19         20         21         22         23
     1  C    0.002678   0.001682   0.000035   0.000000   0.000000
     2  C    0.000131  -0.000077  -0.000001   0.000000   0.000000
     3  C    0.002362   0.000007   0.000000   0.000000   0.000000
     4  C   -0.023570   0.000128   0.000000   0.000000   0.000000
     5  C    0.377793  -0.000150   0.000000   0.000000   0.000000
     6  C   -0.037453  -0.028767   0.000000   0.000000   0.000000
     7  N   -0.002791   0.323140  -0.000058   0.000002  -0.000027
     8  C    0.000027  -0.022358   0.003832  -0.000071   0.000312
     9  N    0.000000   0.003323  -0.053404   0.000041   0.000044
    10  C    0.000000  -0.000144   0.416511   0.000208  -0.000132
    11  N    0.000000   0.000067  -0.050984   0.004878   0.003336
    12  C    0.000000   0.000691   0.003649  -0.021499  -0.022330
    13  N   -0.000017   0.007555  -0.000803   0.003359   0.004684
    14  N    0.000000  -0.000046  -0.000060   0.320020   0.321194
    15  Cl  -0.000091   0.000000   0.000000   0.000000   0.000000
    16  H   -0.000092  -0.000125  -0.000085   0.000000   0.000000
    17  H    0.000008   0.000001   0.000000   0.000000   0.000000
    18  H   -0.001795  -0.000011   0.000000   0.000000   0.000000
    19  H    0.468728   0.004101   0.000000   0.000000   0.000000
    20  H    0.004101   0.293637   0.000004   0.000000   0.000021
    21  H    0.000000   0.000004   0.453036  -0.000014   0.000003
    22  H    0.000000   0.000000  -0.000014   0.288859  -0.012810
    23  H    0.000000   0.000021   0.000003  -0.012810   0.292939
 Mulliken charges:
               1
     1  C   -0.232339
     2  C   -0.173337
     3  C   -0.156523
     4  C   -0.169916
     5  C   -0.261633
     6  C    0.388635
     7  N   -0.982448
     8  C    0.924033
     9  N   -0.664915
    10  C    0.325315
    11  N   -0.630201
    12  C    0.864915
    13  N   -0.699179
    14  N   -0.962538
    15  Cl  -0.011176
    16  H    0.287678
    17  H    0.234166
    18  H    0.234027
    19  H    0.209982
    20  H    0.417322
    21  H    0.228339
    22  H    0.417026
    23  H    0.412765
 Sum of Mulliken charges =   0.00000
 Mulliken charges with hydrogens summed into heavy atoms:
               1
     1  C    0.055339
     2  C    0.060829
     3  C   -0.156523
     4  C    0.064111
     5  C   -0.051651
     6  C    0.388635
     7  N   -0.565125
     8  C    0.924033
     9  N   -0.664915
    10  C    0.553654
    11  N   -0.630201
    12  C    0.864915
    13  N   -0.699179
    14  N   -0.132746
    15  Cl  -0.011176
 DipInt: DoE/N= T F RetVal/Mat= T F Init=T NMatP=  1 IDeriv=0 Min/MaxMlt=  0  4
 Entering OneElI...
 OneElI was handed   235773465 working-precision words.
 Multipole integrals L=0 to 4 MinM= 0 MaxM= 0.
 Requested accuracy = 0.1000D-12
 PrtBox:  NBox=     1 Levels=  1 BoxLen=   38.94 SMaxX=       21.30
          Shift=           11.523272            4.913915            0.000949
 Box      1 Number                   0 centers from      1 to     77:
 ShPair: Thresh= 1.00D-13 NBox=     1 BxSize= 3.89D+01 RnKept= 2.14D+01
         NSMCal=                 3003 NSMKep=                2408
 PrsmSu:  NPrtUS=   1 ThrOK=F IAlg=1 NPAlg=1 LenDen=           0.
 Prism:   IPart=     0 DynPar=F LinDyn=F Incr=          24.
 PRISM was handed   235536886 working-precision words and  2408 shell-pairs
 IPart=  0 NShTot=        2408 NBatch=          90 AvBLen=        26.8
 PrSmSu:  NxtVal=             25.
 Electronic moments (au):
       -114.00000000         -1.42474738         -0.86278559          0.00346241
      -4759.13089403       -517.80755981        -72.77209762          3.34326689
         -0.04004003         -0.00753405      -2062.35401838        -52.46806699
          0.01100975        529.64218320       -480.75923042          0.18680146
         -6.14054859          2.23757829          0.03641431         -0.10976185
    -351524.44129538      -5892.49820943       -261.46661870     -15038.11553745
         -3.68496973       2798.33372652         -0.03656441         -0.11544413
         -0.02623587     -16851.09779166      -2980.28992255       -375.91305743
         -0.44408083          0.05873301         10.08285098
 Electronic spatial extent (au):  <R**2>=           5349.7106
 DipInt: DoE/N= F T RetVal/Mat= T F Init=T NMatP=  1 IDeriv=0 Min/MaxMlt=  0  4
 Nuclear    moments (au):
        114.00000000          0.00000000          0.00000000          0.00000000
       4692.14674666        456.87199857          0.00003747          0.00000000
          0.00001944         -0.00003337       1802.12335921         41.96468929
          0.00000010       -534.20643369        400.36136428          0.25180015
         -0.00036083         -0.00007620         -0.01081335          0.20189289
     336360.95829452       4345.07982810          0.00000000      15801.59980589
         -1.24636456      -2743.03865523         -0.05145410         -0.00000108
         -0.00000023      14026.67274151          0.00393345          0.00023993
         -0.46302831         -0.34756443          0.00072942
 Total      moments (au):
          0.00000000         -1.42474738         -0.86278559          0.00346241
        -66.98414737        -60.93556125        -72.77206014          3.34326689
         -0.04002060         -0.00756742       -260.23065917        -10.50337771
          0.01100985         -4.56425049        -80.39786615          0.43860160
         -6.14090943          2.23750209          0.02560097          0.09213103
     -15163.48300086      -1547.41838133       -261.46661870        763.48426844
         -4.93133429         55.29507129         -0.08801851         -0.11544521
         -0.02623610      -2824.42505014      -2980.28598910       -375.91281750
         -0.90710914         -0.28883142         10.08358040
 Traceless Quadrup. (au):
         -0.08689112          5.96169501         -5.87480389          3.34326689
         -0.04002060         -0.00756742
 Charge=              0.0000 electrons
 Dipole moment (field-independent basis, Debye):
    X=             -3.6213    Y=             -2.1930    Z=              0.0088  Tot=              4.2336
 Quadrupole moment (field-independent basis, Debye-Ang):
   XX=            -90.0960   YY=            -81.9604   ZZ=            -97.8809
   XY=              4.4968   XZ=             -0.0538   YZ=             -0.0102
 Traceless Quadrupole moment (field-independent basis, Debye-Ang):
   XX=             -0.1169   YY=              8.0187   ZZ=             -7.9018
   XY=              4.4968   XZ=             -0.0538   YZ=             -0.0102
 Octapole moment (field-independent basis, Debye-Ang**2):
  XXX=           -185.2221  YYY=             -7.4759  ZZZ=              0.0078  XYY=             -3.2487
  XXY=            -57.2241  XXZ=              0.3122  XZZ=             -4.3709  YZZ=              1.5926
  YYZ=              0.0182  XYZ=              0.0656
 Hexadecapole moment (field-independent basis, Debye-Ang**3):
 XXXX=          -5711.2944 YYYY=           -582.8319 ZZZZ=            -98.4809 XXXY=            287.5648
 XXXZ=             -1.8574 YYYX=             20.8268 YYYZ=             -0.0332 ZZZX=             -0.0435
 ZZZY=             -0.0099 XXYY=          -1063.8138 XXZZ=          -1122.5185 YYZZ=           -141.5868
 XXYZ=             -0.3417 YYXZ=             -0.1088 ZZXY=              3.7980
 N-N= 9.766801482493D+02 E-N=-4.490722265043D+03  KE= 1.076376355855D+03
 Entering OneElI...
 OneElI was handed   235809920 working-precision words.
 Calculate electrostatic properties
    NBasis =   230  MinDer = 0  MaxDer = 0
    NGrid  =    23  NMatD  =   1
 Requested accuracy = 0.1000D-12
 PrtBox:  NBox=     1 Levels=  1 BoxLen=   32.45 SMaxX=       21.30
          Shift=           11.523272            4.913915            0.000949
 Box      1 Number                   0 centers from      1 to     77:
 ShPair: Thresh= 1.00D-13 NBox=     1 BxSize= 3.24D+01 RnKept= 1.77D+01
         NSMCal=                 3003 NSMKep=                2178
 PrsmSu:  NPrtUS=   1 ThrOK=F IAlg=1 NPAlg=1 LenDen=           0.
 Prism:   IPart=     0 DynPar=F LinDyn=F Incr=         500.
 PRISM was handed   235593014 working-precision words and  2178 shell-pairs
 IPart=  0 NShTot=       50094 NBatch=        2179 AvBLen=        23.0
 PrSmSu:  NxtVal=            501.
 --------------------------------------------------------
       Center         ----      EFG at Nuclei      ----
                      3XX-RR        3YY-RR        3ZZ-RR
 --------------------------------------------------------
     1   Atom        0.169418      0.119639     -0.289057
     2   Atom        0.190065      0.143159     -0.333224
     3   Atom       -0.288551      0.330102     -0.041551
     4   Atom        0.184843      0.136563     -0.321406
     5   Atom        0.148654      0.071116     -0.219770
     6   Atom       -0.076735      0.335640     -0.258905
     7   Atom       -0.557372     -0.442086      0.999458
     8   Atom        0.202896      0.293220     -0.496116
     9   Atom        0.435090     -0.259003     -0.176087
    10   Atom        0.228175      0.357855     -0.586030
    11   Atom        0.503235     -0.303138     -0.200096
    12   Atom        0.241660      0.290587     -0.532247
    13   Atom       -0.623103      0.683693     -0.060589
    14   Atom       -0.537004     -0.479164      1.016169
    15   Atom       -3.415344      1.637277      1.778066
    16   Atom       -0.039356     -0.123061      0.162417
    17   Atom        0.097351     -0.263075      0.165724
    18   Atom       -0.052654     -0.113631      0.166285
    19   Atom        0.089991     -0.262059      0.172068
    20   Atom        0.136174     -0.372404      0.236230
    21   Atom        0.143416     -0.292149      0.148733
    22   Atom       -0.269609      0.026436      0.243173
    23   Atom        0.166350     -0.410049      0.243699
 --------------------------------------------------------
                        XY            XZ            YZ
 --------------------------------------------------------
     1   Atom       -0.056633     -0.000001      0.000009
     2   Atom        0.021339      0.000008      0.000041
     3   Atom       -0.135575     -0.000015      0.000041
     4   Atom        0.002311     -0.000008      0.000053
     5   Atom        0.001571     -0.000009      0.000033
     6   Atom       -0.083723     -0.000020      0.000039
     7   Atom        0.034309      0.000049      0.000003
     8   Atom        0.064407     -0.000028     -0.000075
     9   Atom        0.579866     -0.000055      0.000051
    10   Atom        0.008259     -0.000010      0.000017
    11   Atom       -0.519443      0.000032      0.000007
    12   Atom       -0.042642     -0.000174     -0.000179
    13   Atom       -0.038695     -0.000039     -0.000027
    14   Atom       -0.058085      0.001859      0.001128
    15   Atom       -1.061598     -0.000183     -0.000037
    16   Atom        0.217257      0.000001      0.000000
    17   Atom       -0.135842     -0.000014     -0.000042
    18   Atom        0.223819      0.000035     -0.000042
    19   Atom       -0.133255     -0.000015     -0.000055
    20   Atom       -0.084195      0.000001     -0.000011
    21   Atom        0.006339      0.000002     -0.000024
    22   Atom        0.246119      0.001417     -0.000711
    23   Atom        0.000750      0.000076      0.001617
 --------------------------------------------------------


 ---------------------------------------------------------------------------------
              Nuclear Quadrupole Coupling Constant in Principal Axis System
 ---------------------------------------------------------------------------------

       Atom             a.u.   MegaHertz   Gauss  10(-4) cm-1        Axes

              Baa    -0.5668     2.722     0.971     0.908  0.9642 -0.2652  0.0000
     7 N(14)  Bbb    -0.4326     2.078     0.741     0.693  0.2652  0.9642  0.0000
              Bcc     0.9995    -4.800    -1.713    -1.601  0.0000  0.0000  1.0000
 
              Baa    -0.5877     2.823     1.007     0.942 -0.4932  0.8699 -0.0002
     9 N(14)  Bbb    -0.1761     0.846     0.302     0.282 -0.0001  0.0002  1.0000
              Bcc     0.7638    -3.668    -1.309    -1.224  0.8699  0.4932  0.0000
 
              Baa    -0.5575     2.678     0.955     0.893  0.4398  0.8981 -0.0001
    11 N(14)  Bbb    -0.2001     0.961     0.343     0.321  0.0000  0.0001  1.0000
              Bcc     0.7576    -3.639    -1.298    -1.214  0.8981 -0.4398  0.0000
 
              Baa    -0.6242     2.998     1.070     1.000  0.9996  0.0296  0.0001
    13 N(14)  Bbb    -0.0606     0.291     0.104     0.097 -0.0001  0.0000  1.0000
              Bcc     0.6848    -3.289    -1.174    -1.097 -0.0296  0.9996  0.0000
 
              Baa    -0.5730     2.752     0.982     0.918  0.8502  0.5264 -0.0014
    14 N(14)  Bbb    -0.4432     2.129     0.760     0.710 -0.5264  0.8502  0.0000
              Bcc     1.0162    -4.880    -1.741    -1.628  0.0012  0.0007  1.0000
 
              Baa    -3.6293   -69.628   -24.845   -23.225  0.9803  0.1976  0.0000
    15 Cl(35) Bbb     1.7781    34.112    12.172    11.379  0.0000  0.0000  1.0000
              Bcc     1.8513    35.516    12.673    11.847 -0.1976  0.9803  0.0000
 

 ---------------------------------------------------------------------------------

 No NMR shielding tensors so no spin-rotation constants.
 Leave Link  601 at Thu Jan 16 21:49:33 2014, MaxMem=   235929600 cpu:         0.3
 FitSet:  NAtFit=    23 NAtPot=    23 NAtFrz=     0 MDM=    27 TotChg=   0.00000
 Merz-Kollman atomic radii used.
 Atom Element Radius
    1     6    1.50
    2     6    1.50
    3     6    1.50
    4     6    1.50
    5     6    1.50
    6     6    1.50
    7     7    1.50
    8     6    1.50
    9     7    1.50
   10     6    1.50
   11     7    1.50
   12     6    1.50
   13     7    1.50
   14     7    1.50
   15    17    1.70
   16     1    1.20
   17     1    1.20
   18     1    1.20
   19     1    1.20
   20     1    1.20
   21     1    1.20
   22     1    1.20
   23     1    1.20
 Generate VDW surfaces: Layer= 5 Dens= 2 Start= 1.400 Inc= 0.179

 **********************************************************************

            Electrostatic Properties Using The SCF Density

 **********************************************************************

       Atomic Center    1 is at   1.160532  0.803914  0.000078
       Atomic Center    2 is at   2.529170  1.069323  0.000078
       Atomic Center    3 is at   3.449019  0.023688 -0.000002
       Atomic Center    4 is at   3.012686 -1.300051 -0.000133
       Atomic Center    5 is at   1.648063 -1.566529 -0.000124
       Atomic Center    6 is at   0.704959 -0.524037 -0.000002
       Atomic Center    7 is at  -0.648760 -0.900063  0.000058
       Atomic Center    8 is at  -1.808631 -0.174236  0.000029
       Atomic Center    9 is at  -1.769651  1.171519 -0.000109
       Atomic Center   10 is at  -2.979593  1.739009 -0.000098
       Atomic Center   11 is at  -4.158609  1.131633 -0.000049
       Atomic Center   12 is at  -4.063794 -0.222300 -0.000045
       Atomic Center   13 is at  -2.924571 -0.926178  0.000135
       Atomic Center   14 is at  -5.227078 -0.909954 -0.000502
       Atomic Center   15 is at   5.174448  0.372439  0.000051
       Atomic Center   16 is at   0.443464  1.612440  0.000065
       Atomic Center   17 is at   2.877376  2.096893  0.000182
       Atomic Center   18 is at   3.729999 -2.113678 -0.000260
       Atomic Center   19 is at   1.309166 -2.600332 -0.000260
       Atomic Center   20 is at  -0.829976 -1.895915  0.000039
       Atomic Center   21 is at  -2.995922  2.828293 -0.000031
       Atomic Center   22 is at  -6.097853 -0.403363  0.001966
       Atomic Center   23 is at  -5.215661 -1.917189  0.002012
      ESP Fit Center   24 is at   1.160532  0.803914  2.100078
      ESP Fit Center   25 is at   1.519653  1.425930  1.973433
      ESP Fit Center   26 is at   0.801411  1.425930  1.973433
      ESP Fit Center   27 is at   0.442290  0.803914  1.973433
      ESP Fit Center   28 is at   1.519653  0.181898  1.973433
      ESP Fit Center   29 is at   0.968428  2.140028  1.608771
      ESP Fit Center   30 is at  -0.134643  1.184212  1.608771
      ESP Fit Center   31 is at   0.968428  2.140028 -1.608615
      ESP Fit Center   32 is at  -0.134643  1.184212 -1.608615
      ESP Fit Center   33 is at   1.519653  1.425930 -1.973276
      ESP Fit Center   34 is at   0.801411  1.425930 -1.973276
      ESP Fit Center   35 is at   0.442290  0.803914 -1.973276
      ESP Fit Center   36 is at   1.519653  0.181898 -1.973276
      ESP Fit Center   37 is at   1.160532  0.803914 -2.099922
      ESP Fit Center   38 is at   2.529170  1.069323  2.100078
      ESP Fit Center   39 is at   3.247412  1.069323  1.973433
      ESP Fit Center   40 is at   2.888291  1.691339  1.973433
      ESP Fit Center   41 is at   2.170049  1.691339  1.973433
      ESP Fit Center   42 is at   2.170049  0.447307  1.973433
      ESP Fit Center   43 is at   3.664740  1.799109  1.608771
      ESP Fit Center   44 is at   2.337066  2.405437  1.608771
      ESP Fit Center   45 is at   1.645204  2.089475  1.608771
      ESP Fit Center   46 is at   1.619843  2.644323  1.050078
      ESP Fit Center   47 is at   1.619843  2.644323 -1.049922
      ESP Fit Center   48 is at   3.664740  1.799109 -1.608615
      ESP Fit Center   49 is at   2.337066  2.405437 -1.608615
      ESP Fit Center   50 is at   1.645204  2.089475 -1.608615
      ESP Fit Center   51 is at   3.247412  1.069323 -1.973276
      ESP Fit Center   52 is at   2.888291  1.691339 -1.973276
      ESP Fit Center   53 is at   2.170049  1.691339 -1.973276
      ESP Fit Center   54 is at   2.170049  0.447307 -1.973276
      ESP Fit Center   55 is at   2.529170  1.069323 -2.099922
      ESP Fit Center   56 is at   3.449019  0.023688  2.099998
      ESP Fit Center   57 is at   3.808140  0.645704  1.973353
      ESP Fit Center   58 is at   2.730777  0.023688  1.973353
      ESP Fit Center   59 is at   3.808140 -0.598328  1.973353
      ESP Fit Center   60 is at   3.808140  0.645704 -1.973356
      ESP Fit Center   61 is at   2.730777  0.023688 -1.973356
      ESP Fit Center   62 is at   3.808140 -0.598328 -1.973356
      ESP Fit Center   63 is at   3.449019  0.023688 -2.100002
      ESP Fit Center   64 is at   3.012686 -1.300051  2.099867
      ESP Fit Center   65 is at   3.730928 -1.300051  1.973222
      ESP Fit Center   66 is at   2.653565 -0.678035  1.973222
      ESP Fit Center   67 is at   2.653565 -1.922067  1.973222
      ESP Fit Center   68 is at   3.371807 -1.922067  1.973222
      ESP Fit Center   69 is at   4.362540 -1.300051  1.608560
      ESP Fit Center   70 is at   2.128720 -0.279899  1.608560
      ESP Fit Center   71 is at   2.820582 -2.636165  1.608560
      ESP Fit Center   72 is at   2.822585 -3.108742  1.049867
      ESP Fit Center   73 is at   2.822585 -3.108742 -1.050133
      ESP Fit Center   74 is at   4.362540 -1.300051 -1.608826
      ESP Fit Center   75 is at   2.128720 -0.279899 -1.608826
      ESP Fit Center   76 is at   2.820582 -2.636165 -1.608826
      ESP Fit Center   77 is at   3.730928 -1.300051 -1.973487
      ESP Fit Center   78 is at   2.653565 -0.678035 -1.973487
      ESP Fit Center   79 is at   2.653565 -1.922067 -1.973487
      ESP Fit Center   80 is at   3.371807 -1.922067 -1.973487
      ESP Fit Center   81 is at   3.012686 -1.300051 -2.100133
      ESP Fit Center   82 is at   1.648063 -1.566529  2.099876
      ESP Fit Center   83 is at   2.007184 -0.944513  1.973231
      ESP Fit Center   84 is at   1.288942 -0.944513  1.973231
      ESP Fit Center   85 is at   0.929821 -1.566529  1.973231
      ESP Fit Center   86 is at   1.288942 -2.188545  1.973231
      ESP Fit Center   87 is at   2.007184 -2.188545  1.973231
      ESP Fit Center   88 is at   0.352888 -1.946827  1.608569
      ESP Fit Center   89 is at   0.764097 -2.586681  1.608569
      ESP Fit Center   90 is at   2.208813 -2.794399  1.608569
      ESP Fit Center   91 is at   0.352888 -1.946827 -1.608817
      ESP Fit Center   92 is at   0.764097 -2.586681 -1.608817
      ESP Fit Center   93 is at   2.208813 -2.794399 -1.608817
      ESP Fit Center   94 is at   2.007184 -0.944513 -1.973478
      ESP Fit Center   95 is at   1.288942 -0.944513 -1.973478
      ESP Fit Center   96 is at   0.929821 -1.566529 -1.973478
      ESP Fit Center   97 is at   1.288942 -2.188545 -1.973478
      ESP Fit Center   98 is at   2.007184 -2.188545 -1.973478
      ESP Fit Center   99 is at   1.648063 -1.566529 -2.100124
      ESP Fit Center  100 is at   0.704959 -0.524037  2.099998
      ESP Fit Center  101 is at   1.423201 -0.524037  1.973353
      ESP Fit Center  102 is at   0.345838  0.097979  1.973353
      ESP Fit Center  103 is at  -0.013283 -0.524037  1.973353
      ESP Fit Center  104 is at   0.345838 -1.146053  1.973353
      ESP Fit Center  105 is at   1.064080 -1.146053  1.973353
      ESP Fit Center  106 is at  -0.179007  0.496115  1.608691
      ESP Fit Center  107 is at  -0.179007  0.496115 -1.608695
      ESP Fit Center  108 is at   1.423201 -0.524037 -1.973356
      ESP Fit Center  109 is at   0.345838  0.097979 -1.973356
      ESP Fit Center  110 is at  -0.013283 -0.524037 -1.973356
      ESP Fit Center  111 is at   0.345838 -1.146053 -1.973356
      ESP Fit Center  112 is at   1.064080 -1.146053 -1.973356
      ESP Fit Center  113 is at   0.704959 -0.524037 -2.100002
      ESP Fit Center  114 is at  -0.648760 -0.900063  2.100058
      ESP Fit Center  115 is at   0.069482 -0.900063  1.973413
      ESP Fit Center  116 is at  -0.289639 -0.278047  1.973413
      ESP Fit Center  117 is at  -1.007881 -0.278047  1.973413
      ESP Fit Center  118 is at  -1.367002 -0.900063  1.973413
      ESP Fit Center  119 is at  -1.007881 -1.522079  1.973413
      ESP Fit Center  120 is at  -0.289639 -1.522079  1.973413
      ESP Fit Center  121 is at  -1.532726 -1.920215  1.608751
      ESP Fit Center  122 is at  -0.088010 -2.127933  1.608751
      ESP Fit Center  123 is at  -1.532726 -1.920215 -1.608635
      ESP Fit Center  124 is at  -0.088010 -2.127933 -1.608635
      ESP Fit Center  125 is at   0.069482 -0.900063 -1.973296
      ESP Fit Center  126 is at  -0.289639 -0.278047 -1.973296
      ESP Fit Center  127 is at  -1.007881 -0.278047 -1.973296
      ESP Fit Center  128 is at  -1.367002 -0.900063 -1.973296
      ESP Fit Center  129 is at  -1.007881 -1.522079 -1.973296
      ESP Fit Center  130 is at  -0.289639 -1.522079 -1.973296
      ESP Fit Center  131 is at  -0.648760 -0.900063 -2.099942
      ESP Fit Center  132 is at  -1.808631 -0.174236  2.100029
      ESP Fit Center  133 is at  -1.090389 -0.174236  1.973384
      ESP Fit Center  134 is at  -1.449510  0.447780  1.973384
      ESP Fit Center  135 is at  -2.167752  0.447780  1.973384
      ESP Fit Center  136 is at  -2.526873 -0.174236  1.973384
      ESP Fit Center  137 is at  -2.167752 -0.796252  1.973384
      ESP Fit Center  138 is at  -1.449510 -0.796252  1.973384
      ESP Fit Center  139 is at  -1.090389 -0.174236 -1.973325
      ESP Fit Center  140 is at  -1.449510  0.447780 -1.973325
      ESP Fit Center  141 is at  -2.167752  0.447780 -1.973325
      ESP Fit Center  142 is at  -2.526873 -0.174236 -1.973325
      ESP Fit Center  143 is at  -2.167752 -0.796252 -1.973325
      ESP Fit Center  144 is at  -1.449510 -0.796252 -1.973325
      ESP Fit Center  145 is at  -1.808631 -0.174236 -2.099971
      ESP Fit Center  146 is at  -1.769651  1.171519  2.099891
      ESP Fit Center  147 is at  -1.051409  1.171519  1.973246
      ESP Fit Center  148 is at  -1.410530  1.793535  1.973246
      ESP Fit Center  149 is at  -2.128772  1.793535  1.973246
      ESP Fit Center  150 is at  -2.487893  1.171519  1.973246
      ESP Fit Center  151 is at  -2.128772  0.549503  1.973246
      ESP Fit Center  152 is at  -1.410530  0.549503  1.973246
      ESP Fit Center  153 is at  -0.419797  1.171519  1.608584
      ESP Fit Center  154 is at  -0.634081  1.901305  1.608584
      ESP Fit Center  155 is at  -1.208901  2.399389  1.608584
      ESP Fit Center  156 is at  -0.552734  2.523042  1.049891
      ESP Fit Center  157 is at  -1.207656  2.901161  1.049891
      ESP Fit Center  158 is at  -0.847821  3.022803  0.364552
      ESP Fit Center  159 is at  -0.847821  3.022803 -0.364770
      ESP Fit Center  160 is at  -0.552734  2.523042 -1.050109
      ESP Fit Center  161 is at  -1.207656  2.901161 -1.050109
      ESP Fit Center  162 is at  -0.419797  1.171519 -1.608802
      ESP Fit Center  163 is at  -0.634081  1.901305 -1.608802
      ESP Fit Center  164 is at  -1.208901  2.399389 -1.608802
      ESP Fit Center  165 is at  -1.051409  1.171519 -1.973463
      ESP Fit Center  166 is at  -1.410530  1.793535 -1.973463
      ESP Fit Center  167 is at  -2.128772  1.793535 -1.973463
      ESP Fit Center  168 is at  -2.487893  1.171519 -1.973463
      ESP Fit Center  169 is at  -2.128772  0.549503 -1.973463
      ESP Fit Center  170 is at  -1.410530  0.549503 -1.973463
      ESP Fit Center  171 is at  -1.769651  1.171519 -2.100109
      ESP Fit Center  172 is at  -2.979593  1.739009  2.099902
      ESP Fit Center  173 is at  -2.261351  1.739009  1.973257
      ESP Fit Center  174 is at  -2.620472  2.361025  1.973257
      ESP Fit Center  175 is at  -3.338714  2.361025  1.973257
      ESP Fit Center  176 is at  -3.697835  1.739009  1.973257
      ESP Fit Center  177 is at  -3.338714  1.116993  1.973257
      ESP Fit Center  178 is at  -2.620472  1.116993  1.973257
      ESP Fit Center  179 is at  -2.418843  2.966879  1.608595
      ESP Fit Center  180 is at  -3.863559  2.759161  1.608595
      ESP Fit Center  181 is at  -2.418843  2.966879 -1.608791
      ESP Fit Center  182 is at  -3.863559  2.759161 -1.608791
      ESP Fit Center  183 is at  -2.261351  1.739009 -1.973452
      ESP Fit Center  184 is at  -2.620472  2.361025 -1.973452
      ESP Fit Center  185 is at  -3.338714  2.361025 -1.973452
      ESP Fit Center  186 is at  -3.697835  1.739009 -1.973452
      ESP Fit Center  187 is at  -3.338714  1.116993 -1.973452
      ESP Fit Center  188 is at  -2.620472  1.116993 -1.973452
      ESP Fit Center  189 is at  -2.979593  1.739009 -2.100098
      ESP Fit Center  190 is at  -4.158609  1.131633  2.099951
      ESP Fit Center  191 is at  -3.440367  1.131633  1.973306
      ESP Fit Center  192 is at  -3.799488  1.753649  1.973306
      ESP Fit Center  193 is at  -4.517730  1.753649  1.973306
      ESP Fit Center  194 is at  -4.876851  1.131633  1.973306
      ESP Fit Center  195 is at  -4.517730  0.509617  1.973306
      ESP Fit Center  196 is at  -3.799488  0.509617  1.973306
      ESP Fit Center  197 is at  -4.350713  2.467747  1.608644
      ESP Fit Center  198 is at  -5.042575  2.151785  1.608644
      ESP Fit Center  199 is at  -5.453784  1.511931  1.608644
      ESP Fit Center  200 is at  -5.453784  0.751335  1.608644
      ESP Fit Center  201 is at  -4.348710  2.940324  1.049951
      ESP Fit Center  202 is at  -5.067936  2.706633  1.049951
      ESP Fit Center  203 is at  -5.629930  2.200611  1.049951
      ESP Fit Center  204 is at  -5.937520  1.509752  1.049951
      ESP Fit Center  205 is at  -4.724570  3.120781  0.364612
      ESP Fit Center  206 is at  -5.404915  2.782010  0.364612
      ESP Fit Center  207 is at  -5.916940  2.220345  0.364612
      ESP Fit Center  208 is at  -6.191492  1.511645  0.364612
      ESP Fit Center  209 is at  -4.724570  3.120781 -0.364710
      ESP Fit Center  210 is at  -5.404915  2.782010 -0.364710
      ESP Fit Center  211 is at  -5.916940  2.220345 -0.364710
      ESP Fit Center  212 is at  -6.191492  1.511645 -0.364710
      ESP Fit Center  213 is at  -4.348710  2.940324 -1.050049
      ESP Fit Center  214 is at  -5.067936  2.706633 -1.050049
      ESP Fit Center  215 is at  -5.629930  2.200611 -1.050049
      ESP Fit Center  216 is at  -5.937520  1.509752 -1.050049
      ESP Fit Center  217 is at  -4.350713  2.467747 -1.608742
      ESP Fit Center  218 is at  -5.042575  2.151785 -1.608742
      ESP Fit Center  219 is at  -5.453784  1.511931 -1.608742
      ESP Fit Center  220 is at  -5.453784  0.751335 -1.608742
      ESP Fit Center  221 is at  -3.440367  1.131633 -1.973403
      ESP Fit Center  222 is at  -3.799488  1.753649 -1.973403
      ESP Fit Center  223 is at  -4.517730  1.753649 -1.973403
      ESP Fit Center  224 is at  -4.876851  1.131633 -1.973403
      ESP Fit Center  225 is at  -4.517730  0.509617 -1.973403
      ESP Fit Center  226 is at  -3.799488  0.509617 -1.973403
      ESP Fit Center  227 is at  -4.158609  1.131633 -2.100049
      ESP Fit Center  228 is at  -4.063794 -0.222300  2.099955
      ESP Fit Center  229 is at  -3.345552 -0.222300  1.973310
      ESP Fit Center  230 is at  -3.704673  0.399716  1.973310
      ESP Fit Center  231 is at  -4.422915  0.399716  1.973310
      ESP Fit Center  232 is at  -4.782036 -0.222300  1.973310
      ESP Fit Center  233 is at  -4.422915 -0.844316  1.973310
      ESP Fit Center  234 is at  -3.704673 -0.844316  1.973310
      ESP Fit Center  235 is at  -3.345552 -0.222300 -1.973399
      ESP Fit Center  236 is at  -3.704673  0.399716 -1.973399
      ESP Fit Center  237 is at  -4.422915  0.399716 -1.973399
      ESP Fit Center  238 is at  -4.782036 -0.222300 -1.973399
      ESP Fit Center  239 is at  -4.422915 -0.844316 -1.973399
      ESP Fit Center  240 is at  -3.704673 -0.844316 -1.973399
      ESP Fit Center  241 is at  -4.063794 -0.222300 -2.100045
      ESP Fit Center  242 is at  -2.924571 -0.926178  2.100135
      ESP Fit Center  243 is at  -2.206329 -0.926178  1.973490
      ESP Fit Center  244 is at  -2.565450 -0.304162  1.973490
      ESP Fit Center  245 is at  -3.283692 -0.304162  1.973490
      ESP Fit Center  246 is at  -3.642813 -0.926178  1.973490
      ESP Fit Center  247 is at  -3.283692 -1.548194  1.973490
      ESP Fit Center  248 is at  -2.565450 -1.548194  1.973490
      ESP Fit Center  249 is at  -3.808537 -1.946330  1.608828
      ESP Fit Center  250 is at  -3.116675 -2.262292  1.608828
      ESP Fit Center  251 is at  -2.363821 -2.154048  1.608828
      ESP Fit Center  252 is at  -1.789002 -1.655964  1.608828
      ESP Fit Center  253 is at  -3.833898 -2.501178  1.050135
      ESP Fit Center  254 is at  -3.114672 -2.734869  1.050135
      ESP Fit Center  255 is at  -2.362576 -2.655820  1.050135
      ESP Fit Center  256 is at  -3.490532 -2.915326  0.364796
      ESP Fit Center  257 is at  -2.733751 -2.985452  0.364796
      ESP Fit Center  258 is at  -3.490532 -2.915326 -0.364526
      ESP Fit Center  259 is at  -2.733751 -2.985452 -0.364526
      ESP Fit Center  260 is at  -3.833898 -2.501178 -1.049865
      ESP Fit Center  261 is at  -3.114672 -2.734869 -1.049865
      ESP Fit Center  262 is at  -2.362576 -2.655820 -1.049865
      ESP Fit Center  263 is at  -3.808537 -1.946330 -1.608558
      ESP Fit Center  264 is at  -3.116675 -2.262292 -1.608558
      ESP Fit Center  265 is at  -2.363821 -2.154048 -1.608558
      ESP Fit Center  266 is at  -1.789002 -1.655964 -1.608558
      ESP Fit Center  267 is at  -2.206329 -0.926178 -1.973219
      ESP Fit Center  268 is at  -2.565450 -0.304162 -1.973219
      ESP Fit Center  269 is at  -3.283692 -0.304162 -1.973219
      ESP Fit Center  270 is at  -3.642813 -0.926178 -1.973219
      ESP Fit Center  271 is at  -3.283692 -1.548194 -1.973219
      ESP Fit Center  272 is at  -2.565450 -1.548194 -1.973219
      ESP Fit Center  273 is at  -2.924571 -0.926178 -2.099865
      ESP Fit Center  274 is at  -5.227078 -0.909954  2.099498
      ESP Fit Center  275 is at  -4.508836 -0.909954  1.972853
      ESP Fit Center  276 is at  -4.867957 -0.287938  1.972853
      ESP Fit Center  277 is at  -5.586199 -0.287938  1.972853
      ESP Fit Center  278 is at  -5.945320 -0.909954  1.972853
      ESP Fit Center  279 is at  -5.586199 -1.531970  1.972853
      ESP Fit Center  280 is at  -4.867957 -1.531970  1.972853
      ESP Fit Center  281 is at  -5.419182  0.426160  1.608191
      ESP Fit Center  282 is at  -6.111044  0.110198  1.608191
      ESP Fit Center  283 is at  -6.522253 -1.290252  1.608191
      ESP Fit Center  284 is at  -6.111044 -1.930106  1.608191
      ESP Fit Center  285 is at  -4.666328 -2.137824  1.608191
      ESP Fit Center  286 is at  -4.091509 -1.639740  1.608191
      ESP Fit Center  287 is at  -6.698399 -1.978932  1.049498
      ESP Fit Center  288 is at  -6.985409 -1.998666  0.364159
      ESP Fit Center  289 is at  -6.985409 -1.998666 -0.365163
      ESP Fit Center  290 is at  -6.698399 -1.978932 -1.050502
      ESP Fit Center  291 is at  -5.419182  0.426160 -1.609195
      ESP Fit Center  292 is at  -6.111044  0.110198 -1.609195
      ESP Fit Center  293 is at  -6.522253 -1.290252 -1.609195
      ESP Fit Center  294 is at  -6.111044 -1.930106 -1.609195
      ESP Fit Center  295 is at  -4.666328 -2.137824 -1.609195
      ESP Fit Center  296 is at  -4.091509 -1.639740 -1.609195
      ESP Fit Center  297 is at  -4.508836 -0.909954 -1.973856
      ESP Fit Center  298 is at  -4.867957 -0.287938 -1.973856
      ESP Fit Center  299 is at  -5.586199 -0.287938 -1.973856
      ESP Fit Center  300 is at  -5.945320 -0.909954 -1.973856
      ESP Fit Center  301 is at  -5.586199 -1.531970 -1.973856
      ESP Fit Center  302 is at  -4.867957 -1.531970 -1.973856
      ESP Fit Center  303 is at  -5.227078 -0.909954 -2.100502
      ESP Fit Center  304 is at   5.174448  0.372439  2.380051
      ESP Fit Center  305 is at   5.909909  0.372439  2.263566
      ESP Fit Center  306 is at   5.542178  1.009366  2.263566
      ESP Fit Center  307 is at   4.806718  1.009366  2.263566
      ESP Fit Center  308 is at   4.438988  0.372439  2.263566
      ESP Fit Center  309 is at   4.806718 -0.264488  2.263566
      ESP Fit Center  310 is at   5.542178 -0.264488  2.263566
      ESP Fit Center  311 is at   6.573377  0.372439  1.925511
      ESP Fit Center  312 is at   6.385956  1.071903  1.925511
      ESP Fit Center  313 is at   5.873913  1.583947  1.925511
      ESP Fit Center  314 is at   5.174448  1.771368  1.925511
      ESP Fit Center  315 is at   4.474984  1.583947  1.925511
      ESP Fit Center  316 is at   3.962940  1.071903  1.925511
      ESP Fit Center  317 is at   4.474984 -0.839069  1.925511
      ESP Fit Center  318 is at   5.174448 -1.026490  1.925511
      ESP Fit Center  319 is at   5.873913 -0.839069  1.925511
      ESP Fit Center  320 is at   6.385956 -0.327025  1.925511
      ESP Fit Center  321 is at   7.099909  0.372439  1.398980
      ESP Fit Center  322 is at   6.953342  1.109281  1.398980
      ESP Fit Center  323 is at   6.535954  1.733945  1.398980
      ESP Fit Center  324 is at   5.911290  2.151332  1.398980
      ESP Fit Center  325 is at   5.174448  2.297899  1.398980
      ESP Fit Center  326 is at   4.437606  2.151332  1.398980
      ESP Fit Center  327 is at   5.174448 -1.553021  1.398980
      ESP Fit Center  328 is at   5.911290 -1.406455  1.398980
      ESP Fit Center  329 is at   6.535954 -0.989067  1.398980
      ESP Fit Center  330 is at   6.953342 -0.364403  1.398980
      ESP Fit Center  331 is at   7.437963  0.372439  0.735511
      ESP Fit Center  332 is at   7.315319  1.107401  0.735511
      ESP Fit Center  333 is at   6.960679  1.762718  0.735511
      ESP Fit Center  334 is at   6.412473  2.267377  0.735511
      ESP Fit Center  335 is at   5.730108  2.566691  0.735511
      ESP Fit Center  336 is at   4.987529  2.628222  0.735511
      ESP Fit Center  337 is at   5.730108 -1.821813  0.735511
      ESP Fit Center  338 is at   6.412473 -1.522499  0.735511
      ESP Fit Center  339 is at   6.960679 -1.017840  0.735511
      ESP Fit Center  340 is at   7.315319 -0.362523  0.735511
      ESP Fit Center  341 is at   7.554448  0.372439  0.000051
      ESP Fit Center  342 is at   7.448711  1.073956  0.000051
      ESP Fit Center  343 is at   7.140896  1.713141  0.000051
      ESP Fit Center  344 is at   6.658354  2.233198  0.000051
      ESP Fit Center  345 is at   6.043960  2.587919  0.000051
      ESP Fit Center  346 is at   5.352306  2.745784  0.000051
      ESP Fit Center  347 is at   4.644848  2.692767  0.000051
      ESP Fit Center  348 is at   6.043960 -1.843041  0.000051
      ESP Fit Center  349 is at   6.658354 -1.488320  0.000051
      ESP Fit Center  350 is at   7.140896 -0.968263  0.000051
      ESP Fit Center  351 is at   7.448711 -0.329078  0.000051
      ESP Fit Center  352 is at   7.437963  0.372439 -0.735409
      ESP Fit Center  353 is at   7.315319  1.107401 -0.735409
      ESP Fit Center  354 is at   6.960679  1.762718 -0.735409
      ESP Fit Center  355 is at   6.412473  2.267377 -0.735409
      ESP Fit Center  356 is at   5.730108  2.566691 -0.735409
      ESP Fit Center  357 is at   4.987529  2.628222 -0.735409
      ESP Fit Center  358 is at   5.730108 -1.821813 -0.735409
      ESP Fit Center  359 is at   6.412473 -1.522499 -0.735409
      ESP Fit Center  360 is at   6.960679 -1.017840 -0.735409
      ESP Fit Center  361 is at   7.315319 -0.362523 -0.735409
      ESP Fit Center  362 is at   7.099909  0.372439 -1.398878
      ESP Fit Center  363 is at   6.953342  1.109281 -1.398878
      ESP Fit Center  364 is at   6.535954  1.733945 -1.398878
      ESP Fit Center  365 is at   5.911290  2.151332 -1.398878
      ESP Fit Center  366 is at   5.174448  2.297899 -1.398878
      ESP Fit Center  367 is at   4.437606  2.151332 -1.398878
      ESP Fit Center  368 is at   5.174448 -1.553021 -1.398878
      ESP Fit Center  369 is at   5.911290 -1.406455 -1.398878
      ESP Fit Center  370 is at   6.535954 -0.989067 -1.398878
      ESP Fit Center  371 is at   6.953342 -0.364403 -1.398878
      ESP Fit Center  372 is at   6.573377  0.372439 -1.925409
      ESP Fit Center  373 is at   6.385956  1.071903 -1.925409
      ESP Fit Center  374 is at   5.873913  1.583947 -1.925409
      ESP Fit Center  375 is at   5.174448  1.771368 -1.925409
      ESP Fit Center  376 is at   4.474984  1.583947 -1.925409
      ESP Fit Center  377 is at   3.962940  1.071903 -1.925409
      ESP Fit Center  378 is at   4.474984 -0.839069 -1.925409
      ESP Fit Center  379 is at   5.174448 -1.026490 -1.925409
      ESP Fit Center  380 is at   5.873913 -0.839069 -1.925409
      ESP Fit Center  381 is at   6.385956 -0.327025 -1.925409
      ESP Fit Center  382 is at   5.909909  0.372439 -2.263463
      ESP Fit Center  383 is at   5.542178  1.009366 -2.263463
      ESP Fit Center  384 is at   4.806718  1.009366 -2.263463
      ESP Fit Center  385 is at   4.438988  0.372439 -2.263463
      ESP Fit Center  386 is at   4.806718 -0.264488 -2.263463
      ESP Fit Center  387 is at   5.542178 -0.264488 -2.263463
      ESP Fit Center  388 is at   5.174448  0.372439 -2.379949
      ESP Fit Center  389 is at   0.807926  2.243707  1.513693
      ESP Fit Center  390 is at   0.079002  2.243707  1.513693
      ESP Fit Center  391 is at  -0.285461  1.612440  1.513693
      ESP Fit Center  392 is at   0.849351  2.861631  1.047528
      ESP Fit Center  393 is at   0.037577  2.861631  1.047528
      ESP Fit Center  394 is at   1.373885  2.960388  0.373900
      ESP Fit Center  395 is at   0.640889  3.238377  0.373900
      ESP Fit Center  396 is at  -0.137336  3.143883  0.373900
      ESP Fit Center  397 is at   1.373885  2.960388 -0.373770
      ESP Fit Center  398 is at   0.640889  3.238377 -0.373770
      ESP Fit Center  399 is at  -0.137336  3.143883 -0.373770
      ESP Fit Center  400 is at   0.849351  2.861631 -1.047398
      ESP Fit Center  401 is at   0.037577  2.861631 -1.047398
      ESP Fit Center  402 is at   0.807926  2.243707 -1.513563
      ESP Fit Center  403 is at   0.079002  2.243707 -1.513563
      ESP Fit Center  404 is at  -0.285461  1.612440 -1.513563
      ESP Fit Center  405 is at   3.606301  2.096893  1.513810
      ESP Fit Center  406 is at   3.241838  2.728160  1.513810
      ESP Fit Center  407 is at   2.512914  2.728160  1.513810
      ESP Fit Center  408 is at   3.940001  2.868935  1.047645
      ESP Fit Center  409 is at   3.283263  3.346084  1.047645
      ESP Fit Center  410 is at   2.471489  3.346084  1.047645
      ESP Fit Center  411 is at   1.814751  2.868935  1.047645
      ESP Fit Center  412 is at   4.327646  2.858053  0.374017
      ESP Fit Center  413 is at   3.807797  3.444841  0.374017
      ESP Fit Center  414 is at   3.074801  3.722830  0.374017
      ESP Fit Center  415 is at   2.296576  3.628336  0.374017
      ESP Fit Center  416 is at   1.651406  3.183008  0.374017
      ESP Fit Center  417 is at   4.327646  2.858053 -0.373653
      ESP Fit Center  418 is at   3.807797  3.444841 -0.373653
      ESP Fit Center  419 is at   3.074801  3.722830 -0.373653
      ESP Fit Center  420 is at   2.296576  3.628336 -0.373653
      ESP Fit Center  421 is at   1.651406  3.183008 -0.373653
      ESP Fit Center  422 is at   3.940001  2.868935 -1.047281
      ESP Fit Center  423 is at   3.283263  3.346084 -1.047281
      ESP Fit Center  424 is at   2.471489  3.346084 -1.047281
      ESP Fit Center  425 is at   1.814751  2.868935 -1.047281
      ESP Fit Center  426 is at   3.606301  2.096893 -1.513446
      ESP Fit Center  427 is at   3.241838  2.728160 -1.513446
      ESP Fit Center  428 is at   2.512914  2.728160 -1.513446
      ESP Fit Center  429 is at   4.458924 -2.113678  1.513368
      ESP Fit Center  430 is at   3.365537 -2.744945  1.513368
      ESP Fit Center  431 is at   4.094461 -2.744945  1.513368
      ESP Fit Center  432 is at   5.043476 -2.113678  1.047203
      ESP Fit Center  433 is at   3.324112 -3.362869  1.047203
      ESP Fit Center  434 is at   4.135886 -3.362869  1.047203
      ESP Fit Center  435 is at   4.792624 -2.885720  1.047203
      ESP Fit Center  436 is at   5.367878 -2.113678  0.373575
      ESP Fit Center  437 is at   3.149199 -3.645121  0.373575
      ESP Fit Center  438 is at   3.927424 -3.739615  0.373575
      ESP Fit Center  439 is at   4.660420 -3.461626  0.373575
      ESP Fit Center  440 is at   5.180269 -2.874838  0.373575
      ESP Fit Center  441 is at   5.367878 -2.113678 -0.374095
      ESP Fit Center  442 is at   3.149199 -3.645121 -0.374095
      ESP Fit Center  443 is at   3.927424 -3.739615 -0.374095
      ESP Fit Center  444 is at   4.660420 -3.461626 -0.374095
      ESP Fit Center  445 is at   5.180269 -2.874838 -0.374095
      ESP Fit Center  446 is at   5.043476 -2.113678 -1.047723
      ESP Fit Center  447 is at   3.324112 -3.362869 -1.047723
      ESP Fit Center  448 is at   4.135886 -3.362869 -1.047723
      ESP Fit Center  449 is at   4.792624 -2.885720 -1.047723
      ESP Fit Center  450 is at   4.458924 -2.113678 -1.513888
      ESP Fit Center  451 is at   3.365537 -2.744945 -1.513888
      ESP Fit Center  452 is at   4.094461 -2.744945 -1.513888
      ESP Fit Center  453 is at   0.580241 -2.600332  1.513368
      ESP Fit Center  454 is at   0.944704 -3.231599  1.513368
      ESP Fit Center  455 is at   1.673628 -3.231599  1.513368
      ESP Fit Center  456 is at   0.246541 -3.372374  1.047203
      ESP Fit Center  457 is at   0.903279 -3.849523  1.047203
      ESP Fit Center  458 is at   1.715053 -3.849523  1.047203
      ESP Fit Center  459 is at   2.371791 -3.372374  1.047203
      ESP Fit Center  460 is at   0.083196 -3.686447  0.373575
      ESP Fit Center  461 is at   0.728366 -4.131775  0.373575
      ESP Fit Center  462 is at   1.506591 -4.226269  0.373575
      ESP Fit Center  463 is at   2.239587 -3.948280  0.373575
      ESP Fit Center  464 is at   0.083196 -3.686447 -0.374095
      ESP Fit Center  465 is at   0.728366 -4.131775 -0.374095
      ESP Fit Center  466 is at   1.506591 -4.226269 -0.374095
      ESP Fit Center  467 is at   2.239587 -3.948280 -0.374095
      ESP Fit Center  468 is at   0.246541 -3.372374 -1.047723
      ESP Fit Center  469 is at   0.903279 -3.849523 -1.047723
      ESP Fit Center  470 is at   1.715053 -3.849523 -1.047723
      ESP Fit Center  471 is at   2.371791 -3.372374 -1.047723
      ESP Fit Center  472 is at   0.580241 -2.600332 -1.513888
      ESP Fit Center  473 is at   0.944704 -3.231599 -1.513888
      ESP Fit Center  474 is at   1.673628 -3.231599 -1.513888
      ESP Fit Center  475 is at  -1.194438 -2.527182  1.513667
      ESP Fit Center  476 is at  -0.465514 -2.527182  1.513667
      ESP Fit Center  477 is at  -1.892601 -2.667957  1.047502
      ESP Fit Center  478 is at  -1.235863 -3.145106  1.047502
      ESP Fit Center  479 is at  -0.424089 -3.145106  1.047502
      ESP Fit Center  480 is at  -2.055946 -2.982030  0.373874
      ESP Fit Center  481 is at  -1.410776 -3.427358  0.373874
      ESP Fit Center  482 is at  -0.632551 -3.521852  0.373874
      ESP Fit Center  483 is at  -2.055946 -2.982030 -0.373796
      ESP Fit Center  484 is at  -1.410776 -3.427358 -0.373796
      ESP Fit Center  485 is at  -0.632551 -3.521852 -0.373796
      ESP Fit Center  486 is at  -1.892601 -2.667957 -1.047424
      ESP Fit Center  487 is at  -1.235863 -3.145106 -1.047424
      ESP Fit Center  488 is at  -0.424089 -3.145106 -1.047424
      ESP Fit Center  489 is at  -1.194438 -2.527182 -1.513589
      ESP Fit Center  490 is at  -0.465514 -2.527182 -1.513589
      ESP Fit Center  491 is at  -2.631460  3.459560  1.513597
      ESP Fit Center  492 is at  -3.360384  3.459560  1.513597
      ESP Fit Center  493 is at  -1.933297  3.600335  1.047432
      ESP Fit Center  494 is at  -2.590035  4.077484  1.047432
      ESP Fit Center  495 is at  -3.401809  4.077484  1.047432
      ESP Fit Center  496 is at  -4.058547  3.600335  1.047432
      ESP Fit Center  497 is at  -1.545652  3.589453  0.373804
      ESP Fit Center  498 is at  -2.065501  4.176241  0.373804
      ESP Fit Center  499 is at  -2.798497  4.454230  0.373804
      ESP Fit Center  500 is at  -3.576722  4.359736  0.373804
      ESP Fit Center  501 is at  -4.221892  3.914408  0.373804
      ESP Fit Center  502 is at  -4.586207  3.220263  0.373804
      ESP Fit Center  503 is at  -1.545652  3.589453 -0.373866
      ESP Fit Center  504 is at  -2.065501  4.176241 -0.373866
      ESP Fit Center  505 is at  -2.798497  4.454230 -0.373866
      ESP Fit Center  506 is at  -3.576722  4.359736 -0.373866
      ESP Fit Center  507 is at  -4.221892  3.914408 -0.373866
      ESP Fit Center  508 is at  -4.586207  3.220263 -0.373866
      ESP Fit Center  509 is at  -1.933297  3.600335 -1.047494
      ESP Fit Center  510 is at  -2.590035  4.077484 -1.047494
      ESP Fit Center  511 is at  -3.401809  4.077484 -1.047494
      ESP Fit Center  512 is at  -4.058547  3.600335 -1.047494
      ESP Fit Center  513 is at  -2.631460  3.459560 -1.513659
      ESP Fit Center  514 is at  -3.360384  3.459560 -1.513659
      ESP Fit Center  515 is at  -6.462315  0.227904  1.515594
      ESP Fit Center  516 is at  -6.826778 -0.403363  1.515594
      ESP Fit Center  517 is at  -6.503740  0.845828  1.049429
      ESP Fit Center  518 is at  -7.160478  0.368679  1.049429
      ESP Fit Center  519 is at  -7.411330 -0.403363  1.049429
      ESP Fit Center  520 is at  -7.160478 -1.175405  1.049429
      ESP Fit Center  521 is at  -6.678653  1.128080  0.375801
      ESP Fit Center  522 is at  -7.323823  0.682752  0.375801
      ESP Fit Center  523 is at  -7.688138 -0.011393  0.375801
      ESP Fit Center  524 is at  -7.688138 -0.795333  0.375801
      ESP Fit Center  525 is at  -7.323823 -1.489478  0.375801
      ESP Fit Center  526 is at  -6.678653  1.128080 -0.371869
      ESP Fit Center  527 is at  -7.323823  0.682752 -0.371869
      ESP Fit Center  528 is at  -7.688138 -0.011393 -0.371869
      ESP Fit Center  529 is at  -7.688138 -0.795333 -0.371869
      ESP Fit Center  530 is at  -7.323823 -1.489478 -0.371869
      ESP Fit Center  531 is at  -6.503740  0.845828 -1.045497
      ESP Fit Center  532 is at  -7.160478  0.368679 -1.045497
      ESP Fit Center  533 is at  -7.411330 -0.403363 -1.045497
      ESP Fit Center  534 is at  -7.160478 -1.175405 -1.045497
      ESP Fit Center  535 is at  -6.462315  0.227904 -1.511662
      ESP Fit Center  536 is at  -6.826778 -0.403363 -1.511662
      ESP Fit Center  537 is at  -5.580123 -2.548456  1.515640
      ESP Fit Center  538 is at  -4.851199 -2.548456  1.515640
      ESP Fit Center  539 is at  -6.278286 -2.689231  1.049475
      ESP Fit Center  540 is at  -5.621548 -3.166380  1.049475
      ESP Fit Center  541 is at  -4.809774 -3.166380  1.049475
      ESP Fit Center  542 is at  -4.153036 -2.689231  1.049475
      ESP Fit Center  543 is at  -6.805946 -2.309159  0.375847
      ESP Fit Center  544 is at  -6.441631 -3.003304  0.375847
      ESP Fit Center  545 is at  -5.796461 -3.448632  0.375847
      ESP Fit Center  546 is at  -5.018236 -3.543126  0.375847
      ESP Fit Center  547 is at  -4.285240 -3.265137  0.375847
      ESP Fit Center  548 is at  -6.805946 -2.309159 -0.371823
      ESP Fit Center  549 is at  -6.441631 -3.003304 -0.371823
      ESP Fit Center  550 is at  -5.796461 -3.448632 -0.371823
      ESP Fit Center  551 is at  -5.018236 -3.543126 -0.371823
      ESP Fit Center  552 is at  -4.285240 -3.265137 -0.371823
      ESP Fit Center  553 is at  -6.278286 -2.689231 -1.045451
      ESP Fit Center  554 is at  -5.621548 -3.166380 -1.045451
      ESP Fit Center  555 is at  -4.809774 -3.166380 -1.045451
      ESP Fit Center  556 is at  -4.153036 -2.689231 -1.045451
      ESP Fit Center  557 is at  -5.580123 -2.548456 -1.511616
      ESP Fit Center  558 is at  -4.851199 -2.548456 -1.511616
      ESP Fit Center  559 is at   1.160532  0.803914  2.368406
      ESP Fit Center  560 is at   1.526459  1.437718  2.252492
      ESP Fit Center  561 is at   0.794605  1.437718  2.252492
      ESP Fit Center  562 is at   0.428678  0.803914  2.252492
      ESP Fit Center  563 is at   1.526459  0.170110  2.252492
      ESP Fit Center  564 is at   0.962420  2.181813  1.916096
      ESP Fit Center  565 is at   0.248921  1.855969  1.916096
      ESP Fit Center  566 is at  -0.175148  1.196105  1.916096
      ESP Fit Center  567 is at   1.160532  2.719932  1.392146
      ESP Fit Center  568 is at   1.160532  2.719932 -1.391990
      ESP Fit Center  569 is at   0.962420  2.181813 -1.915940
      ESP Fit Center  570 is at   0.248921  1.855969 -1.915940
      ESP Fit Center  571 is at  -0.175148  1.196105 -1.915940
      ESP Fit Center  572 is at   1.526459  1.437718 -2.252336
      ESP Fit Center  573 is at   0.794605  1.437718 -2.252336
      ESP Fit Center  574 is at   0.428678  0.803914 -2.252336
      ESP Fit Center  575 is at   1.526459  0.170110 -2.252336
      ESP Fit Center  576 is at   1.160532  0.803914 -2.368250
      ESP Fit Center  577 is at   2.529170  1.069323  2.368406
      ESP Fit Center  578 is at   3.261024  1.069323  2.252492
      ESP Fit Center  579 is at   2.895097  1.703127  2.252492
      ESP Fit Center  580 is at   2.163243  1.703127  2.252492
      ESP Fit Center  581 is at   2.163243  0.435519  2.252492
      ESP Fit Center  582 is at   3.700253  1.821932  1.916096
      ESP Fit Center  583 is at   3.107456  2.335593  1.916096
      ESP Fit Center  584 is at   2.331058  2.447222  1.916096
      ESP Fit Center  585 is at   1.617559  2.121378  1.916096
      ESP Fit Center  586 is at   1.795942  2.839493  1.392146
      ESP Fit Center  587 is at   1.795942  2.839493 -1.391990
      ESP Fit Center  588 is at   3.700253  1.821932 -1.915940
      ESP Fit Center  589 is at   3.107456  2.335593 -1.915940
      ESP Fit Center  590 is at   2.331058  2.447222 -1.915940
      ESP Fit Center  591 is at   1.617559  2.121378 -1.915940
      ESP Fit Center  592 is at   3.261024  1.069323 -2.252336
      ESP Fit Center  593 is at   2.895097  1.703127 -2.252336
      ESP Fit Center  594 is at   2.163243  1.703127 -2.252336
      ESP Fit Center  595 is at   2.163243  0.435519 -2.252336
      ESP Fit Center  596 is at   2.529170  1.069323 -2.368250
      ESP Fit Center  597 is at   3.449019  0.023688  2.368326
      ESP Fit Center  598 is at   2.717165  0.023688  2.252412
      ESP Fit Center  599 is at   3.814946 -0.610116  2.252412
      ESP Fit Center  600 is at   2.717165  0.023688 -2.252416
      ESP Fit Center  601 is at   3.814946 -0.610116 -2.252416
      ESP Fit Center  602 is at   3.449019  0.023688 -2.368330
      ESP Fit Center  603 is at   3.012686 -1.300051  2.368195
      ESP Fit Center  604 is at   3.744540 -1.300051  2.252281
      ESP Fit Center  605 is at   2.646759 -0.666247  2.252281
      ESP Fit Center  606 is at   2.646759 -1.933855  2.252281
      ESP Fit Center  607 is at   3.378613 -1.933855  2.252281
      ESP Fit Center  608 is at   2.814574 -2.677950  1.915885
      ESP Fit Center  609 is at   3.590972 -2.566321  1.915885
      ESP Fit Center  610 is at   4.183768 -2.052660  1.915885
      ESP Fit Center  611 is at   3.012686 -3.216069  1.391935
      ESP Fit Center  612 is at   3.012686 -3.216069 -1.392201
      ESP Fit Center  613 is at   2.814574 -2.677950 -1.916151
      ESP Fit Center  614 is at   3.590972 -2.566321 -1.916151
      ESP Fit Center  615 is at   4.183768 -2.052660 -1.916151
      ESP Fit Center  616 is at   3.744540 -1.300051 -2.252547
      ESP Fit Center  617 is at   2.646759 -0.666247 -2.252547
[...]
 2624 Fit       0.006708
 2625 Fit       0.005983
 2626 Fit       0.004296
 2627 Fit       0.002075
 2628 Fit       0.000030
 2629 Fit       0.001321
 2630 Fit       0.000405
 2631 Fit      -0.001966
 2632 Fit      -0.008804
 2633 Fit      -0.010968
 2634 Fit      -0.009387
 2635 Fit      -0.005549
 2636 Fit      -0.003291
 2637 Fit      -0.004937
 2638 Fit      -0.007332
 2639 Fit      -0.008684
 2640 Fit      -0.011042
 2641 Fit      -0.011422
 2642 Fit      -0.009376
 2643 Fit      -0.006850
 2644 Fit      -0.005703
 2645 Fit      -0.007940
 2646 Fit      -0.011051
 2647 Fit      -0.011433
 2648 Fit      -0.009390
 2649 Fit      -0.006866
 2650 Fit      -0.005717
 2651 Fit      -0.007950
 2652 Fit      -0.008696
 2653 Fit      -0.004092
 2654 Fit      -0.005815
 2655 Fit      -0.006615
 2656 Fit      -0.004667
 2657 Fit      -0.003037
 2658 Fit      -0.001864
 2659 Fit      -0.002572
 2660 Fit       0.000230
 2661 Fit       0.001865
 2662 Fit       0.000182
 2663 Fit       0.005212
 2664 Fit       0.007030
 2665 Fit       0.005189
 2666 Fit       0.007016
 2667 Fit       0.000202
 2668 Fit       0.001846
 2669 Fit       0.000169
 2670 Fit      -0.005830
 2671 Fit      -0.006633
 2672 Fit      -0.004691
 2673 Fit      -0.003066
 2674 Fit      -0.001888
 2675 Fit      -0.002590
 2676 Fit      -0.004113
 2677 Fit      -0.003036
 2678 Fit      -0.004603
 2679 Fit      -0.004890
 2680 Fit      -0.002961
 2681 Fit      -0.002153
 2682 Fit      -0.002710
 2683 Fit      -0.003057
 2684 Fit      -0.004629
 2685 Fit      -0.004919
 2686 Fit      -0.003000
 2687 Fit      -0.002202
 2688 Fit      -0.002754
 2689 Fit      -0.003088
 2690 Fit      -0.003071
 2691 Fit      -0.005189
 2692 Fit      -0.007556
 2693 Fit      -0.006722
 2694 Fit      -0.004283
 2695 Fit      -0.003123
 2696 Fit      -0.003245
 2697 Fit      -0.005301
 2698 Fit      -0.010065
 2699 Fit      -0.009541
 2700 Fit      -0.007443
 2701 Fit      -0.004563
 2702 Fit      -0.008191
 2703 Fit      -0.009178
 2704 Fit      -0.006652
 2705 Fit      -0.006711
 2706 Fit      -0.004363
 2707 Fit      -0.001630
 2708 Fit      -0.000962
 2709 Fit      -0.000504
 2710 Fit      -0.000966
 2711 Fit      -0.001637
 2712 Fit      -0.006722
 2713 Fit      -0.004374
 2714 Fit      -0.009192
 2715 Fit      -0.006667
 2716 Fit      -0.010082
 2717 Fit      -0.009559
 2718 Fit      -0.007461
 2719 Fit      -0.004584
 2720 Fit      -0.008210
 2721 Fit      -0.007579
 2722 Fit      -0.006746
 2723 Fit      -0.004312
 2724 Fit      -0.003161
 2725 Fit      -0.003283
 2726 Fit      -0.005330
 2727 Fit      -0.005219
 2728 Fit      -0.002527
 2729 Fit      -0.003805
 2730 Fit      -0.002241
 2731 Fit      -0.002112
 2732 Fit      -0.003419
 2733 Fit      -0.002548
 2734 Fit      -0.002761
 2735 Fit      -0.001621
 2736 Fit      -0.000234
 2737 Fit      -0.001537
 2738 Fit       0.000000
 2739 Fit       0.001868
 2740 Fit       0.001143
 2741 Fit      -0.001996
 2742 Fit      -0.001196
 2743 Fit       0.000385
 2744 Fit      -0.001208
 2745 Fit       0.000365
 2746 Fit      -0.000016
 2747 Fit       0.001849
 2748 Fit       0.001121
 2749 Fit      -0.002024
 2750 Fit      -0.001642
 2751 Fit      -0.000259
 2752 Fit      -0.001568
 2753 Fit      -0.003835
 2754 Fit      -0.002270
 2755 Fit      -0.002148
 2756 Fit      -0.003469
 2757 Fit      -0.002602
 2758 Fit      -0.002802
 2759 Fit      -0.002566
 2760 Fit      -0.003973
 2761 Fit      -0.002721
 2762 Fit      -0.003728
 2763 Fit      -0.005400
 2764 Fit      -0.004997
 2765 Fit      -0.003327
 2766 Fit      -0.002424
 2767 Fit      -0.004244
 2768 Fit      -0.006511
 2769 Fit      -0.006856
 2770 Fit      -0.005102
 2771 Fit      -0.005395
 2772 Fit      -0.007847
 2773 Fit      -0.007861
 2774 Fit      -0.005340
 2775 Fit      -0.003804
 2776 Fit      -0.007660
 2777 Fit      -0.009099
 2778 Fit      -0.007489
 2779 Fit      -0.002834
 2780 Fit      -0.006579
 2781 Fit      -0.009374
 2782 Fit      -0.009313
 2783 Fit      -0.005899
 2784 Fit      -0.007798
 2785 Fit      -0.010021
 2786 Fit      -0.009102
 2787 Fit      -0.004352
 2788 Fit      -0.006380
 2789 Fit      -0.009663
 2790 Fit      -0.009981
 2791 Fit      -0.006783
 2792 Fit      -0.007809
 2793 Fit      -0.010036
 2794 Fit      -0.009124
 2795 Fit      -0.004389
 2796 Fit      -0.006599
 2797 Fit      -0.009401
 2798 Fit      -0.009352
 2799 Fit      -0.005961
 2800 Fit      -0.003829
 2801 Fit      -0.007694
 2802 Fit      -0.009146
 2803 Fit      -0.007561
 2804 Fit      -0.002951
 2805 Fit      -0.005431
 2806 Fit      -0.007897
 2807 Fit      -0.007932
 2808 Fit      -0.005450
 2809 Fit      -0.004286
 2810 Fit      -0.006566
 2811 Fit      -0.006935
 2812 Fit      -0.005219
 2813 Fit      -0.002778
 2814 Fit      -0.003780
 2815 Fit      -0.005465
 2816 Fit      -0.005091
 2817 Fit      -0.003436
 2818 Fit      -0.002505
 2819 Fit      -0.004047
 2820 Fit      -0.001745
 2821 Fit      -0.001798
 2822 Fit      -0.002109
 2823 Fit      -0.002925
 2824 Fit      -0.001839
 2825 Fit      -0.001377
 2826 Fit      -0.002067
 2827 Fit      -0.001876
 2828 Fit      -0.002189
 2829 Fit      -0.003035
 2830 Fit      -0.001992
 2831 Fit      -0.001529
 2832 Fit      -0.002174
 2833 Fit      -0.001856
 2834 Fit      -0.002684
 2835 Fit      -0.002790
 2836 Fit      -0.002224
 2837 Fit      -0.001907
 2838 Fit      -0.002221
 2839 Fit      -0.002755
 2840 Fit      -0.002971
 2841 Fit      -0.001871
 2842 Fit      -0.002423
 2843 Fit      -0.002088
 2844 Fit      -0.000482
 2845 Fit      -0.000926
 2846 Fit       0.000463
 2847 Fit       0.001844
 2848 Fit       0.001206
 2849 Fit       0.004077
 2850 Fit       0.004239
 2851 Fit       0.003456
 2852 Fit       0.004883
 2853 Fit       0.007098
 2854 Fit       0.008126
 2855 Fit       0.005463
 2856 Fit       0.004855
 2857 Fit       0.007082
 2858 Fit       0.004173
 2859 Fit       0.003417
 2860 Fit       0.001756
 2861 Fit       0.001153
 2862 Fit       0.004045
 2863 Fit      -0.000582
 2864 Fit      -0.000988
 2865 Fit       0.000423
 2866 Fit      -0.001984
 2867 Fit      -0.002496
 2868 Fit      -0.002136
 2869 Fit      -0.002836
 2870 Fit      -0.002276
 2871 Fit      -0.001984
 2872 Fit      -0.002326
 2873 Fit      -0.002844
 2874 Fit      -0.003030
 2875 Fit      -0.002753
 2876 Fit      -0.000009
 2877 Fit      -0.001216
 2878 Fit      -0.001676
 2879 Fit      -0.000399
 2880 Fit       0.002063
 2881 Fit       0.002513
 2882 Fit       0.000574
 2883 Fit      -0.000766
 2884 Fit       0.002949
 2885 Fit       0.005246
 2886 Fit       0.006147
 2887 Fit       0.006080
 2888 Fit       0.004599
 2889 Fit       0.001418
 2890 Fit       0.000730
 2891 Fit       0.005847
 2892 Fit       0.008693
 2893 Fit       0.009818
 2894 Fit       0.010283
 2895 Fit       0.010551
 2896 Fit       0.010101
 2897 Fit       0.007896
 2898 Fit       0.003425
 2899 Fit       0.014200
 2900 Fit       0.014324
 2901 Fit       0.014782
 2902 Fit       0.015403
 2903 Fit       0.018298
 2904 Fit       0.017926
 2905 Fit       0.018176
 2906 Fit       0.019153
 2907 Fit       0.020464
 2908 Fit       0.020502
 2909 Fit       0.021565
 2910 Fit       0.021194
 2911 Fit       0.021672
 2912 Fit       0.020391
 2913 Fit       0.020429
 2914 Fit       0.021489
 2915 Fit       0.018155
 2916 Fit       0.017790
 2917 Fit       0.018041
 2918 Fit       0.019012
 2919 Fit       0.013497
 2920 Fit       0.014015
 2921 Fit       0.014143
 2922 Fit       0.014599
 2923 Fit       0.015213
 2924 Fit       0.000553
 2925 Fit       0.005647
 2926 Fit       0.008485
 2927 Fit       0.009610
 2928 Fit       0.010077
 2929 Fit       0.010343
 2930 Fit       0.009893
 2931 Fit       0.007700
 2932 Fit       0.003257
 2933 Fit      -0.000943
 2934 Fit       0.002748
 2935 Fit       0.005034
 2936 Fit       0.005933
 2937 Fit       0.005868
 2938 Fit       0.004398
 2939 Fit       0.001243
 2940 Fit      -0.001374
 2941 Fit      -0.001836
 2942 Fit      -0.000583
 2943 Fit       0.001861
 2944 Fit       0.002310
 2945 Fit       0.000392
 2946 Fit      -0.000194
 2947 Fit      -0.012255
 2948 Fit      -0.012223
 2949 Fit      -0.012346
 2950 Fit      -0.012252
 2951 Fit      -0.012276
 2952 Fit      -0.011777
 2953 Fit      -0.011820
 2954 Fit      -0.011885
 2955 Fit      -0.012061
 2956 Fit      -0.012102
 2957 Fit      -0.011846
 2958 Fit      -0.011674
 2959 Fit      -0.012253
 2960 Fit      -0.012857
 2961 Fit      -0.012198
 2962 Fit      -0.010863
 2963 Fit      -0.010466
 2964 Fit      -0.011035
 2965 Fit      -0.011603
 2966 Fit      -0.011176
 2967 Fit      -0.011320
 2968 Fit      -0.011531
 2969 Fit      -0.011604
 2970 Fit      -0.011288
 2971 Fit      -0.010624
 2972 Fit      -0.010272
 2973 Fit      -0.008303
 2974 Fit      -0.008893
 2975 Fit      -0.009989
 2976 Fit      -0.010758
 2977 Fit      -0.011072
 2978 Fit      -0.010202
 2979 Fit      -0.010288
 2980 Fit      -0.010557
 2981 Fit      -0.010869
 2982 Fit      -0.010951
 2983 Fit      -0.010515
 2984 Fit      -0.009447
 2985 Fit      -0.008095
 2986 Fit      -0.005049
 2987 Fit      -0.006759
 2988 Fit      -0.008548
 2989 Fit      -0.009704
 2990 Fit      -0.010184
 2991 Fit      -0.010243
 2992 Fit      -0.009166
 2993 Fit      -0.009201
 2994 Fit      -0.009501
 2995 Fit      -0.009953
 2996 Fit      -0.010293
 2997 Fit      -0.010169
 2998 Fit      -0.009234
 2999 Fit      -0.007267
 3000 Fit      -0.002816
 3001 Fit      -0.006056
 3002 Fit      -0.008172
 3003 Fit      -0.009201
 3004 Fit      -0.009458
 3005 Fit      -0.009330
 3006 Fit      -0.008304
 3007 Fit      -0.008291
 3008 Fit      -0.008578
 3009 Fit      -0.009085
 3010 Fit      -0.009596
 3011 Fit      -0.009797
 3012 Fit      -0.009312
 3013 Fit      -0.007731
 3014 Fit      -0.004595
 3015 Fit      -0.002735
 3016 Fit      -0.006204
 3017 Fit      -0.008055
 3018 Fit      -0.008778
 3019 Fit      -0.008812
 3020 Fit      -0.008548
 3021 Fit      -0.007816
 3022 Fit      -0.007780
 3023 Fit      -0.008070
 3024 Fit      -0.008611
 3025 Fit      -0.009197
 3026 Fit      -0.009511
 3027 Fit      -0.009163
 3028 Fit      -0.007682
 3029 Fit      -0.004423
 3030 Fit      -0.002380
 3031 Fit      -0.006044
 3032 Fit      -0.007859
 3033 Fit      -0.008493
 3034 Fit      -0.008439
 3035 Fit      -0.008106
 3036 Fit      -0.007817
 3037 Fit      -0.007780
 3038 Fit      -0.008070
 3039 Fit      -0.008612
 3040 Fit      -0.009197
 3041 Fit      -0.009512
 3042 Fit      -0.009164
 3043 Fit      -0.007683
 3044 Fit      -0.004424
 3045 Fit      -0.002380
 3046 Fit      -0.006044
 3047 Fit      -0.007859
 3048 Fit      -0.008493
 3049 Fit      -0.008439
 3050 Fit      -0.008106
 3051 Fit      -0.008305
 3052 Fit      -0.008292
 3053 Fit      -0.008579
 3054 Fit      -0.009085
 3055 Fit      -0.009597
 3056 Fit      -0.009798
 3057 Fit      -0.009314
 3058 Fit      -0.007732
 3059 Fit      -0.004597
 3060 Fit      -0.002734
 3061 Fit      -0.006203
 3062 Fit      -0.008055
 3063 Fit      -0.008779
 3064 Fit      -0.008813
 3065 Fit      -0.008548
 3066 Fit      -0.009167
 3067 Fit      -0.009202
 3068 Fit      -0.009502
 3069 Fit      -0.009954
 3070 Fit      -0.010294
 3071 Fit      -0.010171
 3072 Fit      -0.009236
 3073 Fit      -0.007271
 3074 Fit      -0.002813
 3075 Fit      -0.006055
 3076 Fit      -0.008172
 3077 Fit      -0.009201
 3078 Fit      -0.009459
 3079 Fit      -0.009331
 3080 Fit      -0.010203
 3081 Fit      -0.010290
 3082 Fit      -0.010558
 3083 Fit      -0.010871
 3084 Fit      -0.010953
 3085 Fit      -0.010518
 3086 Fit      -0.009451
 3087 Fit      -0.008100
 3088 Fit      -0.005047
 3089 Fit      -0.006758
 3090 Fit      -0.008548
 3091 Fit      -0.009704
 3092 Fit      -0.010185
 3093 Fit      -0.010245
 3094 Fit      -0.011178
 3095 Fit      -0.011322
 3096 Fit      -0.011533
 3097 Fit      -0.011607
 3098 Fit      -0.011292
 3099 Fit      -0.010629
 3100 Fit      -0.010277
 3101 Fit      -0.008303
 3102 Fit      -0.008893
 3103 Fit      -0.009990
 3104 Fit      -0.010759
 3105 Fit      -0.011073
 3106 Fit      -0.011887
 3107 Fit      -0.012064
 3108 Fit      -0.012105
 3109 Fit      -0.011850
 3110 Fit      -0.011679
 3111 Fit      -0.012258
 3112 Fit      -0.012862
 3113 Fit      -0.012202
 3114 Fit      -0.010865
 3115 Fit      -0.010468
 3116 Fit      -0.011037
 3117 Fit      -0.011605
 3118 Fit      -0.012225
 3119 Fit      -0.012349
 3120 Fit      -0.012256
 3121 Fit      -0.012281
 3122 Fit      -0.011780
 3123 Fit      -0.011822
 3124 Fit      -0.012259
 3125 Fit      -0.006370
 3126 Fit      -0.002744
 3127 Fit       0.001654
 3128 Fit      -0.000289
 3129 Fit      -0.002210
 3130 Fit       0.001554
 3131 Fit      -0.000244
 3132 Fit       0.001552
 3133 Fit      -0.000246
 3134 Fit       0.001650
 3135 Fit      -0.000294
 3136 Fit      -0.002216
 3137 Fit      -0.002752
 3138 Fit      -0.006381
 3139 Fit      -0.003353
 3140 Fit      -0.002058
 3141 Fit      -0.004414
 3142 Fit      -0.001202
 3143 Fit       0.000320
 3144 Fit       0.000515
 3145 Fit      -0.001908
 3146 Fit       0.000645
 3147 Fit       0.001992
 3148 Fit       0.002475
 3149 Fit       0.002306
 3150 Fit      -0.001955
 3151 Fit       0.000952
 3152 Fit       0.002573
 3153 Fit       0.003345
 3154 Fit       0.003591
 3155 Fit      -0.001955
 3156 Fit       0.000951
 3157 Fit       0.002572
 3158 Fit       0.003344
 3159 Fit       0.003590
 3160 Fit      -0.001910
 3161 Fit       0.000643
 3162 Fit       0.001989
 3163 Fit       0.002472
 3164 Fit       0.002303
 3165 Fit      -0.004418
 3166 Fit      -0.001206
 3167 Fit       0.000316
 3168 Fit       0.000510
 3169 Fit      -0.003358
 3170 Fit      -0.002063
 3171 Fit       0.002257
 3172 Fit      -0.000897
 3173 Fit       0.006824
 3174 Fit       0.005056
 3175 Fit       0.002474
 3176 Fit      -0.001492
 3177 Fit       0.011486
 3178 Fit       0.009231
 3179 Fit       0.007313
 3180 Fit       0.005126
 3181 Fit       0.002147
 3182 Fit       0.012520
 3183 Fit       0.009909
 3184 Fit       0.007816
 3185 Fit       0.005479
 3186 Fit       0.002306
 3187 Fit       0.012520
 3188 Fit       0.009909
 3189 Fit       0.007816
 3190 Fit       0.005479
 3191 Fit       0.002306
 3192 Fit       0.011486
 3193 Fit       0.009231
 3194 Fit       0.007313
 3195 Fit       0.005126
 3196 Fit       0.002148
 3197 Fit       0.006823
 3198 Fit       0.005056
 3199 Fit       0.002475
 3200 Fit      -0.001491
 3201 Fit       0.002257
 3202 Fit      -0.000896
 3203 Fit       0.010978
 3204 Fit       0.009448
 3205 Fit       0.015913
 3206 Fit       0.013667
 3207 Fit       0.011820
 3208 Fit       0.010218
 3209 Fit       0.018006
 3210 Fit       0.015445
 3211 Fit       0.013680
 3212 Fit       0.012447
 3213 Fit       0.011871
 3214 Fit       0.018415
 3215 Fit       0.015890
 3216 Fit       0.014248
 3217 Fit       0.013300
 3218 Fit       0.013448
 3219 Fit       0.018413
 3220 Fit       0.015889
 3221 Fit       0.014247
 3222 Fit       0.013300
 3223 Fit       0.013448
 3224 Fit       0.017998
 3225 Fit       0.015440
 3226 Fit       0.013677
 3227 Fit       0.012446
 3228 Fit       0.011870
 3229 Fit       0.015900
 3230 Fit       0.013660
 3231 Fit       0.011815
 3232 Fit       0.010215
 3233 Fit       0.010967
 3234 Fit       0.009441
 3235 Fit       0.010023
 3236 Fit       0.010766
 3237 Fit       0.015108
 3238 Fit       0.014053
 3239 Fit       0.018296
 3240 Fit       0.010865
 3241 Fit       0.016723
 3242 Fit       0.021030
 3243 Fit       0.010858
 3244 Fit       0.016719
 3245 Fit       0.021028
 3246 Fit       0.014040
 3247 Fit       0.018289
 3248 Fit       0.010746
 3249 Fit       0.015096
 3250 Fit       0.010005
 3251 Fit       0.003117
 3252 Fit       0.003535
 3253 Fit       0.002211
 3254 Fit       0.004479
 3255 Fit       0.005045
 3256 Fit       0.004023
 3257 Fit       0.001126
 3258 Fit       0.001238
 3259 Fit       0.004213
 3260 Fit       0.005715
 3261 Fit       0.006052
 3262 Fit       0.005228
 3263 Fit       0.003018
 3264 Fit      -0.001175
 3265 Fit       0.001405
 3266 Fit       0.004405
 3267 Fit       0.006053
 3268 Fit       0.006605
 3269 Fit       0.006074
 3270 Fit       0.004280
 3271 Fit       0.000732
 3272 Fit       0.001403
 3273 Fit       0.004403
 3274 Fit       0.006051
 3275 Fit       0.006604
 3276 Fit       0.006072
 3277 Fit       0.004277
 3278 Fit       0.000728
 3279 Fit       0.001232
 3280 Fit       0.004208
 3281 Fit       0.005710
 3282 Fit       0.006047
 3283 Fit       0.005221
 3284 Fit       0.003010
 3285 Fit      -0.001187
 3286 Fit       0.002202
 3287 Fit       0.004470
 3288 Fit       0.005035
 3289 Fit       0.004012
 3290 Fit       0.001110
 3291 Fit       0.003104
 3292 Fit       0.003520
 3293 Fit       0.005922
 3294 Fit       0.010647
 3295 Fit       0.008276
 3296 Fit       0.012949
 3297 Fit       0.015511
 3298 Fit       0.005879
 3299 Fit       0.011969
 3300 Fit       0.015681
 3301 Fit       0.017909
 3302 Fit       0.019292
 3303 Fit       0.002733
 3304 Fit       0.010560
 3305 Fit       0.015249
 3306 Fit       0.018104
 3307 Fit       0.019886
 3308 Fit       0.021261
 3309 Fit       0.002710
 3310 Fit       0.010540
 3311 Fit       0.015230
 3312 Fit       0.018085
 3313 Fit       0.019865
 3314 Fit       0.021237
 3315 Fit       0.005814
 3316 Fit       0.011910
 3317 Fit       0.015622
 3318 Fit       0.017847
 3319 Fit       0.019222
 3320 Fit       0.008173
 3321 Fit       0.012848
 3322 Fit       0.015404
 3323 Fit       0.010497
 3324 Fit       0.012797
 3325 Fit       0.017883
 3326 Fit       0.017263
 3327 Fit       0.015362
 3328 Fit       0.011466
 3329 Fit       0.020759
 3330 Fit       0.020294
 3331 Fit       0.019390
 3332 Fit       0.017564
 3333 Fit       0.014258
 3334 Fit       0.008438
 3335 Fit       0.021938
 3336 Fit       0.021286
 3337 Fit       0.020140
 3338 Fit       0.018014
 3339 Fit       0.014282
 3340 Fit       0.021915
 3341 Fit       0.021266
 3342 Fit       0.020122
 3343 Fit       0.017996
 3344 Fit       0.014263
 3345 Fit       0.020686
 3346 Fit       0.020231
 3347 Fit       0.019332
 3348 Fit       0.017509
 3349 Fit       0.014202
 3350 Fit       0.008375
 3351 Fit       0.017767
 3352 Fit       0.017162
 3353 Fit       0.015267
 3354 Fit       0.011368
 3355 Fit       0.012652
 -----------------------------------------------------------------
 Leave Link  602 at Thu Jan 16 21:49:34 2014, MaxMem=   235929600 cpu:         1.2

 Test job not archived.
 1\1\GINC-G42\SP\RHF\Gen\C9H8Cl1N5\KOLAR\16-Jan-2014\0\\# hf/gen pop=mk
  iop(6/33=2,6/41=5,6/42=2)\\na resp\\0,1\C,0,-1.160532,-0.803914,0.000
 078\C,0,-2.52917,-1.069323,0.000078\C,0,-3.449019,-0.023688,-0.000002\
 C,0,-3.012686,1.300051,-0.000133\C,0,-1.648063,1.566529,-0.000124\C,0,
 -0.704959,0.524037,-0.000002\N,0,0.64876,0.900063,0.000058\C,0,1.80863
 1,0.174236,0.000029\N,0,1.769651,-1.171519,-0.000109\C,0,2.979593,-1.7
 39009,-0.000098\N,0,4.158609,-1.131633,-0.000049\C,0,4.063794,0.2223,-
 0.000045\N,0,2.924571,0.926178,0.000135\N,0,5.227078,0.909954,-0.00050
 2\Cl,0,-5.174448,-0.372439,0.000051\H,0,-0.443464,-1.61244,0.000065\H,
 0,-2.877376,-2.096893,0.000182\H,0,-3.729999,2.113678,-0.00026\H,0,-1.
 309166,2.600332,-0.00026\H,0,0.829976,1.895915,0.000039\H,0,2.995922,-
 2.828293,-0.000031\H,0,6.097853,0.403363,0.001966\H,0,5.215661,1.91718
 9,0.002012\\Version=AM64L-G09RevD.01\State=1-A\HF=-1077.2380128\RMSD=7
 .898e-09\Dipole=1.4247474,0.8627856,0.0034624\Quadrupole=-0.0868912,5.
 961695,-5.8748039,3.3432668,0.0400206,0.0075674\PG=C01 [X(C9H8Cl1N5)]\
 \@


 WHEN HAVING A MEETING OF THE MINDS,
 MAKE SURE YOU HAVE THE EQUIPMENT FOR IT.
 Job cpu time:       0 days  0 hours  2 minutes 41.7 seconds.
 File lengths (MBytes):  RWF=     30 Int=      0 D2E=      0 Chk=      3 Scr=      1
 Normal termination of Gaussian 09 at Thu Jan 16 21:49:35 2014.
161.24user 0.50system 2:47.99elapsed 96%CPU (0avgtext+0avgdata 603344maxresident)k
49736inputs+136240outputs (8major+170439minor)pagefaults 0swaps
