Linux g42 2.6.38.6-client #1 SMP Tue Jun 12 11:27:21 CEST 2012 x86_64 GNU/Linux
Fri Jan 17 11:54:32 CET 2014

 Entering Gaussian System, Link 0=/usr/local/programs/common/gaussian/gaussian09_d01/arch/amd64-pgi_10.4.0-acml/g09/g09
 Initial command:
 /usr/local/programs/common/gaussian/gaussian09_d01/arch/amd64-pgi_10.4.0-acml/g09/l1.exe "/scratch/kolar/g09_20220/Gau-20687.inp" -scrdir="/scratch/kolar/g09_20220/"
 Entering Link 1 = /usr/local/programs/common/gaussian/gaussian09_d01/arch/amd64-pgi_10.4.0-acml/g09/l1.exe PID=     20692.
  
 Copyright (c) 1988,1990,1992,1993,1995,1998,2003,2009,2013,
            Gaussian, Inc.  All Rights Reserved.
  
 This is part of the Gaussian(R) 09 program.  It is based on
 the Gaussian(R) 03 system (copyright 2003, Gaussian, Inc.),
 the Gaussian(R) 98 system (copyright 1998, Gaussian, Inc.),
 the Gaussian(R) 94 system (copyright 1995, Gaussian, Inc.),
 the Gaussian 92(TM) system (copyright 1992, Gaussian, Inc.),
 the Gaussian 90(TM) system (copyright 1990, Gaussian, Inc.),
 the Gaussian 88(TM) system (copyright 1988, Gaussian, Inc.),
 the Gaussian 86(TM) system (copyright 1986, Carnegie Mellon
 University), and the Gaussian 82(TM) system (copyright 1983,
 Carnegie Mellon University). Gaussian is a federally registered
 trademark of Gaussian, Inc.
  
 This software contains proprietary and confidential information,
 including trade secrets, belonging to Gaussian, Inc.
  
 This software is provided under written license and may be
 used, copied, transmitted, or stored only in accord with that
 written license.
  
 The following legend is applicable only to US Government
 contracts under FAR:
  
                    RESTRICTED RIGHTS LEGEND
  
 Use, reproduction and disclosure by the US Government is
 subject to restrictions as set forth in subparagraphs (a)
 and (c) of the Commercial Computer Software - Restricted
 Rights clause in FAR 52.227-19.
  
 Gaussian, Inc.
 340 Quinnipiac St., Bldg. 40, Wallingford CT 06492
  
  
 ---------------------------------------------------------------
 Warning -- This program may not be used in any manner that
 competes with the business of Gaussian, Inc. or will provide
 assistance to any competitor of Gaussian, Inc.  The licensee
 of this program is prohibited from giving any competitor of
 Gaussian, Inc. access to this program.  By using this program,
 the user acknowledges that Gaussian, Inc. is engaged in the
 business of creating and licensing software in the field of
 computational chemistry and represents and warrants to the
 licensee that it is not a competitor of Gaussian, Inc. and that
 it will not use this program in any manner prohibited above.
 ---------------------------------------------------------------
  

 Cite this work as:
 Gaussian 09, Revision D.01,
 M. J. Frisch, G. W. Trucks, H. B. Schlegel, G. E. Scuseria, 
 M. A. Robb, J. R. Cheeseman, G. Scalmani, V. Barone, B. Mennucci, 
 G. A. Petersson, H. Nakatsuji, M. Caricato, X. Li, H. P. Hratchian, 
 A. F. Izmaylov, J. Bloino, G. Zheng, J. L. Sonnenberg, M. Hada, 
 M. Ehara, K. Toyota, R. Fukuda, J. Hasegawa, M. Ishida, T. Nakajima, 
 Y. Honda, O. Kitao, H. Nakai, T. Vreven, J. A. Montgomery, Jr., 
 J. E. Peralta, F. Ogliaro, M. Bearpark, J. J. Heyd, E. Brothers, 
 K. N. Kudin, V. N. Staroverov, T. Keith, R. Kobayashi, J. Normand, 
 K. Raghavachari, A. Rendell, J. C. Burant, S. S. Iyengar, J. Tomasi, 
 M. Cossi, N. Rega, J. M. Millam, M. Klene, J. E. Knox, J. B. Cross, 
 V. Bakken, C. Adamo, J. Jaramillo, R. Gomperts, R. E. Stratmann, 
 O. Yazyev, A. J. Austin, R. Cammi, C. Pomelli, J. W. Ochterski, 
 R. L. Martin, K. Morokuma, V. G. Zakrzewski, G. A. Voth, 
 P. Salvador, J. J. Dannenberg, S. Dapprich, A. D. Daniels, 
 O. Farkas, J. B. Foresman, J. V. Ortiz, J. Cioslowski, 
 and D. J. Fox, Gaussian, Inc., Wallingford CT, 2013.
 
 ******************************************
 Gaussian 09:  AM64L-G09RevD.01 24-Apr-2013
                17-Jan-2014 
 ******************************************
 %mem=1800mb
 ------------------------------------------------------------------
 # hf/gen pseudo=read pop=(mk, readradii) iop(6/33=2,6/41=5,6/42=2)
 ------------------------------------------------------------------
 1/38=1/1;
 2/12=2,17=6,18=5,40=1/2;
 3/5=7,11=9,16=1,17=8,25=1,30=1/1,2,3;
 4//1;
 5/5=2,38=5/2;
 6/7=2,8=2,9=2,10=2,15=8,20=101,28=1,33=2,41=5,42=2/1,2;
 99/5=1,9=1/99;
 -------
 na resp
 -------
 Symbolic Z-matrix:
 Charge =  0 Multiplicity = 1
 6                    -0.49793   2.2102    0.75317 
 6                     0.58828   1.38065   0.48831 
 6                     0.37865   0.07269   0.03112 
 6                    -0.92898  -0.39112  -0.14947 
 6                    -2.00678   0.45087   0.1239 
 6                    -1.80814   1.75312   0.57398 
 53                   -4.00332  -0.28191  -0.16136 
 6                     1.53751  -0.85885  -0.26149 
 1                     1.13853  -1.79396  -0.67586 
 6                     3.93704  -0.6111   -0.84079 
 1                     4.47096  -0.97748  -1.7266 
 6                     3.95126  -1.67469   0.26315 
 16                    2.47894  -1.27441   1.27488 
 6                     4.68543   0.66803  -0.38783 
 8                     4.01681   1.80083  -0.6429 
 1                    -0.33115   3.22351   1.10767 
 1                     1.60013   1.74203   0.64246 
 1                    -1.09943  -1.40384  -0.50086 
 1                    -2.64974   2.40399   0.78389 
 1                     3.87355  -2.68585  -0.14854 
 1                     4.85457  -1.5948    0.87041 
 7                     2.53797  -0.28141  -1.19642 
 1                     3.14505   1.49579  -1.00379 
 1                     2.31982  -0.57288  -2.14554 
 8                     5.78404   0.63249   0.11305 
 
                          Input orientation:                          
 ---------------------------------------------------------------------
 Center     Atomic      Atomic             Coordinates (Angstroms)
 Number     Number       Type             X           Y           Z
 ---------------------------------------------------------------------
      1          6           0       -0.497927    2.210195    0.753168
      2          6           0        0.588283    1.380648    0.488311
      3          6           0        0.378654    0.072689    0.031117
      4          6           0       -0.928975   -0.391116   -0.149469
      5          6           0       -2.006781    0.450868    0.123901
      6          6           0       -1.808138    1.753115    0.573982
      7         53           0       -4.003321   -0.281912   -0.161355
      8          6           0        1.537506   -0.858848   -0.261494
      9          1           0        1.138532   -1.793957   -0.675858
     10          6           0        3.937035   -0.611104   -0.840786
     11          1           0        4.470963   -0.977477   -1.726601
     12          6           0        3.951260   -1.674687    0.263147
     13         16           0        2.478943   -1.274411    1.274876
     14          6           0        4.685431    0.668026   -0.387826
     15          8           0        4.016807    1.800829   -0.642900
     16          1           0       -0.331153    3.223509    1.107669
     17          1           0        1.600134    1.742031    0.642455
     18          1           0       -1.099434   -1.403838   -0.500863
     19          1           0       -2.649735    2.403986    0.783887
     20          1           0        3.873547   -2.685848   -0.148539
     21          1           0        4.854574   -1.594799    0.870406
     22          7           0        2.537970   -0.281410   -1.196416
     23          1           0        3.145054    1.495789   -1.003790
     24          1           0        2.319819   -0.572879   -2.145544
     25          8           0        5.784039    0.632487    0.113050
 ---------------------------------------------------------------------
                    Distance matrix (angstroms):
                    1          2          3          4          5
     1  C    0.000000
     2  C    1.392174   0.000000
     3  C    2.420472   1.401331   0.000000
     4  C    2.787001   2.418260   1.399150   0.000000
     5  C    2.401635   2.780583   2.417008   1.394752   0.000000
     6  C    1.399172   2.426707   2.810799   2.427763   1.392077
     7  I    4.397128   4.926358   4.400510   3.076308   2.145812
     8  C    3.819889   2.545304   1.515361   2.512937   3.798138
     9  H    4.555584   3.425811   2.135789   2.553357   3.946118
    10  C    5.492659   4.116760   3.726911   4.919793   6.114520
    11  H    6.403154   5.053889   4.575960   5.656014   6.886632
    12  C    5.926862   4.549218   3.983802   5.063052   6.327371
    13  S    4.612636   3.353001   2.787979   3.797746   4.941968
    14  C    5.526966   4.249949   4.367868   5.718405   6.715260
    15  O    4.743354   3.634689   4.083739   5.432206   6.220449
    16  H    1.086411   2.150605   3.404476   3.873409   3.385715
    17  H    2.152509   1.085449   2.156954   3.402036   3.865984
    18  H    3.872420   3.402972   2.155894   1.085422   2.157207
    19  H    2.160735   3.408716   3.895221   3.412442   2.159547
    20  H    6.625262   5.266396   4.456016   5.322595   6.670193
    21  H    6.568180   5.215412   4.849617   5.994868   7.198626
    22  N    4.384706   3.066272   2.508958   3.623236   4.788970
    23  H    4.107139   2.962550   3.278600   4.570338   5.376332
    24  H    4.907925   3.708325   2.987094   3.817331   4.991784
    25  O    6.508610   5.262741   5.434912   6.795678   7.792944
                    6          7          8          9         10
     6  C    0.000000
     7  I    3.082350   0.000000
     8  C    4.325934   5.571683   0.000000
     9  H    4.777728   5.384203   1.097865   0.000000
    10  C    6.371665   7.976167   2.480866   3.042690   0.000000
    11  H    7.223290   8.645652   3.281125   3.588286   1.097259
    12  C    6.709479   8.086741   2.601355   2.967725   1.532997
    13  S    5.294925   6.713238   1.849170   2.423220   2.653683
    14  C    6.653490   8.743459   3.500962   4.327218   1.549659
    15  O    5.950888   8.300129   3.655993   4.605219   2.421352
    16  H    2.151364   5.232897   4.693840   5.524121   6.059551
    17  H    3.408978   6.011752   2.754200   3.801873   3.632954
    18  H    3.409385   3.131540   2.703288   2.278444   5.109794
    19  H    1.084426   3.152733   5.410351   5.839910   7.424006
    20  H    7.246239   8.235540   2.967790   2.924695   2.188104
    21  H    7.462448   9.013906   3.581307   4.029834   2.176629
    22  N    5.114905   6.622676   1.486083   2.125372   1.480727
    23  H    5.204776   7.414120   2.946104   3.867312   2.256724
    24  H    5.463158   6.633534   2.059960   2.246430   2.078279
    25  O    7.688265   9.833811   4.516349   5.300070   2.422343
                   11         12         13         14         15
    11  H    0.000000
    12  C    2.171472   0.000000
    13  S    3.614578   1.830719   0.000000
    14  C    2.132134   2.539897   3.377311   0.000000
    15  O    3.016563   3.592274   3.937003   1.339912   0.000000
    16  H    6.981525   6.560839   5.306212   5.825214   4.898292
    17  H    4.609752   4.164809   3.204869   3.425496   2.737865
    18  H    5.719575   5.115328   3.996847   6.145735   6.038707
    19  H    8.272919   7.776881   6.330483   7.628311   6.844144
    20  H    2.401191   1.094519   2.441963   3.459029   4.516103
    21  H    2.696792   1.091385   2.431022   2.594636   3.810805
    22  N    2.121808   2.463521   2.663986   2.483311   2.613247
    23  H    2.897850   3.508136   3.648291   1.854013   0.991587
    24  H    2.228594   3.110848   3.495245   3.197740   3.282103
    25  O    2.774972   2.950366   3.988704   1.207924   2.249354
                   16         17         18         19         20
    16  H    0.000000
    17  H    2.478118   0.000000
    18  H    4.958828   4.300155   0.000000
    19  H    2.480378   4.303437   4.307382   0.000000
    20  H    7.360575   5.039860   5.147642   8.326406   0.000000
    21  H    7.082665   4.666666   6.112860   8.503671   1.786351
    22  N    5.081843   2.890553   3.869670   6.168082   2.943320
    23  H    4.418969   2.271021   5.164925   6.131899   4.329924
    24  H    5.658941   3.694549   3.884168   6.491514   3.296474
    25  O    6.715522   4.360782   7.204562   8.643887   3.837936
                   21         22         23         24         25
    21  H    0.000000
    22  N    3.370964   0.000000
    23  H    3.998350   1.887880   0.000000
    24  H    4.070044   1.016557   2.502799   0.000000
    25  O    2.529485   3.617578   2.992802   4.307549   0.000000
 Stoichiometry    C10H10INO2S
 Framework group  C1[X(C10H10INO2S)]
 Deg. of freedom    69
 Full point group                 C1      NOp   1
 Largest Abelian subgroup         C1      NOp   1
 Largest concise Abelian subgroup C1      NOp   1
                         Standard orientation:                         
 ---------------------------------------------------------------------
 Center     Atomic      Atomic             Coordinates (Angstroms)
 Number     Number       Type             X           Y           Z
 ---------------------------------------------------------------------
      1          6           0       -0.497927    2.210195    0.753168
      2          6           0        0.588283    1.380648    0.488311
      3          6           0        0.378654    0.072689    0.031117
      4          6           0       -0.928975   -0.391116   -0.149469
      5          6           0       -2.006781    0.450868    0.123901
      6          6           0       -1.808138    1.753115    0.573982
      7         53           0       -4.003321   -0.281912   -0.161355
      8          6           0        1.537506   -0.858848   -0.261494
      9          1           0        1.138532   -1.793957   -0.675858
     10          6           0        3.937035   -0.611104   -0.840786
     11          1           0        4.470963   -0.977477   -1.726601
     12          6           0        3.951260   -1.674687    0.263147
     13         16           0        2.478943   -1.274411    1.274876
     14          6           0        4.685431    0.668026   -0.387826
     15          8           0        4.016807    1.800829   -0.642900
     16          1           0       -0.331153    3.223509    1.107669
     17          1           0        1.600134    1.742031    0.642455
     18          1           0       -1.099434   -1.403838   -0.500863
     19          1           0       -2.649735    2.403986    0.783887
     20          1           0        3.873547   -2.685848   -0.148539
     21          1           0        4.854574   -1.594799    0.870406
     22          7           0        2.537970   -0.281410   -1.196416
     23          1           0        3.145054    1.495789   -1.003790
     24          1           0        2.319819   -0.572879   -2.145544
     25          8           0        5.784039    0.632487    0.113050
 ---------------------------------------------------------------------
 Rotational constants (GHZ):      1.1128666      0.1243955      0.1181719
 General basis read from cards:  (5D, 7F)
 ======================================================================================================
                                       Pseudopotential Parameters
 ======================================================================================================
  Center     Atomic      Valence      Angular      Power
  Number     Number     Electrons     Momentum     of R      Exponent        Coefficient   SO-Coeffient
 ======================================================================================================
    1          6
                                   No pseudopotential on this center.
    2          6
                                   No pseudopotential on this center.
    3          6
                                   No pseudopotential on this center.
    4          6
                                   No pseudopotential on this center.
    5          6
                                   No pseudopotential on this center.
    6          6
                                   No pseudopotential on this center.
    7         53            7
                                      F and up 
                                                     0        1.0715702       -0.07476210    0.00000000
                                                     1       44.1936028      -30.08112240    0.00000000
                                                     2       12.9367609      -75.37227210    0.00000000
                                                     2        3.1956412      -22.05637580    0.00000000
                                                     2        0.8589806       -1.69795850    0.00000000
                                      S - F
                                                     0      127.9202670        2.93800360    0.00000000
                                                     1       78.6211465       41.24712670    0.00000000
                                                     2       36.5146237      287.86800950    0.00000000
                                                     2        9.9065681      114.37585060    0.00000000
                                                     2        1.9420086       37.65477140    0.00000000
                                      P - F
                                                     0       13.0035304        2.22226300    0.00000000
                                                     1       76.0331404       39.40908310    0.00000000
                                                     2       24.1961684      177.40750020    0.00000000
                                                     2        6.4053433       77.98894620    0.00000000
                                                     2        1.5851786       25.75476410    0.00000000
                                      D - F
                                                     0       40.4278108        7.05243600    0.00000000
                                                     1       28.9084375       33.30416350    0.00000000
                                                     2       15.6268936      186.94538750    0.00000000
                                                     2        4.1442856       71.96883610    0.00000000
                                                     2        0.9377235        9.36306570    0.00000000
    8          6
                                   No pseudopotential on this center.
    9          1
                                   No pseudopotential on this center.
   10          6
                                   No pseudopotential on this center.
   11          1
                                   No pseudopotential on this center.
   12          6
                                   No pseudopotential on this center.
   13         16
                                   No pseudopotential on this center.
   14          6
                                   No pseudopotential on this center.
   15          8
                                   No pseudopotential on this center.
   16          1
                                   No pseudopotential on this center.
   17          1
                                   No pseudopotential on this center.
   18          1
                                   No pseudopotential on this center.
   19          1
                                   No pseudopotential on this center.
   20          1
                                   No pseudopotential on this center.
   21          1
                                   No pseudopotential on this center.
   22          7
                                   No pseudopotential on this center.
   23          1
                                   No pseudopotential on this center.
   24          1
                                   No pseudopotential on this center.
   25          8
                                   No pseudopotential on this center.
 ======================================================================================================
 There are   242 symmetry adapted cartesian basis functions of A   symmetry.
 There are   228 symmetry adapted basis functions of A   symmetry.
   228 basis functions,   468 primitive gaussians,   242 cartesian basis functions
    58 alpha electrons       58 beta electrons
       nuclear repulsion energy      1050.5688166678 Hartrees.
 NAtoms=   25 NActive=   25 NUniq=   25 SFac= 1.00D+00 NAtFMM=   60 NAOKFM=F Big=F
 Integral buffers will be    131072 words long.
 Raffenetti 1 integral format.
 Two-electron integral symmetry is turned on.
 One-electron integrals computed using PRISM.
   1 Symmetry operations used in ECPInt.
 ECPInt:  NShTT=    3321 NPrTT=   21620 LenC2=    3084 LenP2D=   12505.
 LDataN:  DoStor=T MaxTD1= 5 Len=  102
 NBasis=   228 RedAO= T EigKep=  4.79D-04  NBF=   228
 NBsUse=   228 1.00D-06 EigRej= -1.00D+00 NBFU=   228
 ExpMin= 1.05D-01 ExpMax= 2.19D+04 ExpMxC= 3.30D+03 IAcc=1 IRadAn=         1 AccDes= 0.00D+00
 Harris functional with IExCor=  205 and IRadAn=       1 diagonalized for initial guess.
 HarFok:  IExCor=  205 AccDes= 0.00D+00 IRadAn=         1 IDoV= 1 UseB2=F ITyADJ=14
 ICtDFT=  3500011 ScaDFX=  1.000000  1.000000  1.000000  1.000000
 Defaulting to unpruned grid for atomic number  53.
 FoFCou: FMM=F IPFlag=           0 FMFlag=      100000 FMFlg1=           0
         NFxFlg=           0 DoJE=T BraDBF=F KetDBF=T FulRan=T
         wScrn=  0.000000 ICntrl=     500 IOpCl=  0 I1Cent=   200000004 NGrid=           0
         NMat0=    1 NMatS0=      1 NMatT0=    0 NMatD0=    1 NMtDS0=    0 NMtDT0=    0
 Petite list used in FoFCou.
 Requested convergence on RMS density matrix=1.00D-08 within 128 cycles.
 Requested convergence on MAX density matrix=1.00D-06.
 Requested convergence on             energy=1.00D-06.
 No special actions if energy rises.
 Integral accuracy reduced to 1.0D-05 until final iterations.
 Initial convergence to 1.0D-05 achieved.  Increase integral accuracy.
 SCF Done:  E(RHF) =  -997.339132512     A.U. after   16 cycles
            NFock= 16  Conv=0.44D-08     -V/T= 2.0088

 **********************************************************************

            Population analysis using the SCF density.

 **********************************************************************

 Orbital symmetries:
 BldTbl:  Degeneracy threshold= 1.00D-02
       Occupied  (A) (A) (A) (A) (A) (A) (A) (A) (A) (A) (A) (A)
                 (A) (A) (A) (A) (A) (A) (A) (A) (A) (A) (A) (A)
                 (A) (A) (A) (A) (A) (A) (A) (A) (A) (A) (A) (A)
                 (A) (A) (A) (A) (A) (A) (A) (A) (A) (A) (A) (A)
                 (A) (A) (A) (A) (A) (A) (A) (A) (A) (A)
       Virtual   (A) (A) (A) (A) (A) (A) (A) (A) (A) (A) (A) (A)
                 (A) (A) (A) (A) (A) (A) (A) (A) (A) (A) (A) (A)
                 (A) (A) (A) (A) (A) (A) (A) (A) (A) (A) (A) (A)
                 (A) (A) (A) (A) (A) (A) (A) (A) (A) (A) (A) (A)
                 (A) (A) (A) (A) (A) (A) (A) (A) (A) (A) (A) (A)
                 (A) (A) (A) (A) (A) (A) (A) (A) (A) (A) (A) (A)
                 (A) (A) (A) (A) (A) (A) (A) (A) (A) (A) (A) (A)
                 (A) (A) (A) (A) (A) (A) (A) (A) (A) (A) (A) (A)
                 (A) (A) (A) (A) (A) (A) (A) (A) (A) (A) (A) (A)
                 (A) (A) (A) (A) (A) (A) (A) (A) (A) (A) (A) (A)
                 (A) (A) (A) (A) (A) (A) (A) (A) (A) (A) (A) (A)
                 (A) (A) (A) (A) (A) (A) (A) (A) (A) (A) (A) (A)
                 (A) (A) (A) (A) (A) (A) (A) (A) (A) (A) (A) (A)
                 (A) (A) (A) (A) (A) (A) (A) (A) (A) (A) (A) (A)
                 (A) (A)
 The electronic state is 1-A.
 Alpha  occ. eigenvalues --  -91.95417 -20.60494 -20.54833 -15.60644 -11.38707
 Alpha  occ. eigenvalues --  -11.32838 -11.31012 -11.30714 -11.28283 -11.27111
 Alpha  occ. eigenvalues --  -11.26688 -11.26401 -11.25855 -11.25675  -8.96925
 Alpha  occ. eigenvalues --   -6.65099  -6.64999  -6.64764  -1.45368  -1.35827
 Alpha  occ. eigenvalues --   -1.27056  -1.18020  -1.08081  -1.07185  -1.04338
 Alpha  occ. eigenvalues --   -1.00713  -0.90033  -0.89178  -0.85498  -0.83851
 Alpha  occ. eigenvalues --   -0.80312  -0.78284  -0.74384  -0.72642  -0.70975
 Alpha  occ. eigenvalues --   -0.67171  -0.66127  -0.64145  -0.63078  -0.61799
 Alpha  occ. eigenvalues --   -0.61139  -0.58633  -0.56870  -0.56603  -0.54935
 Alpha  occ. eigenvalues --   -0.54806  -0.52710  -0.50828  -0.46980  -0.46796
 Alpha  occ. eigenvalues --   -0.46368  -0.45395  -0.41824  -0.40178  -0.37600
 Alpha  occ. eigenvalues --   -0.36772  -0.35513  -0.33140
 Alpha virt. eigenvalues --    0.10105   0.10297   0.11617   0.15362   0.16226
 Alpha virt. eigenvalues --    0.20267   0.23015   0.24512   0.24757   0.26313
 Alpha virt. eigenvalues --    0.26771   0.28856   0.29789   0.30548   0.31547
 Alpha virt. eigenvalues --    0.33219   0.33655   0.36572   0.37716   0.39204
 Alpha virt. eigenvalues --    0.41947   0.44089   0.45279   0.46600   0.47625
 Alpha virt. eigenvalues --    0.48187   0.50036   0.52577   0.54464   0.55363
 Alpha virt. eigenvalues --    0.56026   0.57185   0.57411   0.58401   0.60783
 Alpha virt. eigenvalues --    0.67649   0.70719   0.71330   0.73470   0.74224
 Alpha virt. eigenvalues --    0.75848   0.77031   0.77901   0.78862   0.80927
 Alpha virt. eigenvalues --    0.81717   0.82165   0.82851   0.83635   0.84314
 Alpha virt. eigenvalues --    0.85739   0.86784   0.87563   0.88285   0.90280
 Alpha virt. eigenvalues --    0.91266   0.92581   0.93328   0.94383   0.97656
 Alpha virt. eigenvalues --    1.00603   1.03870   1.04016   1.05932   1.07784
 Alpha virt. eigenvalues --    1.09032   1.09805   1.10635   1.10980   1.12052
 Alpha virt. eigenvalues --    1.13470   1.14301   1.14903   1.15289   1.17429
 Alpha virt. eigenvalues --    1.18357   1.19519   1.20617   1.24022   1.25076
 Alpha virt. eigenvalues --    1.26401   1.26504   1.29072   1.30755   1.32131
 Alpha virt. eigenvalues --    1.33115   1.36000   1.36854   1.38457   1.39894
 Alpha virt. eigenvalues --    1.42705   1.43613   1.45348   1.49453   1.51990
 Alpha virt. eigenvalues --    1.55307   1.59564   1.60311   1.62620   1.64402
 Alpha virt. eigenvalues --    1.68198   1.69956   1.72730   1.73212   1.74182
 Alpha virt. eigenvalues --    1.76588   1.78538   1.81539   1.83421   1.94192
 Alpha virt. eigenvalues --    1.95552   1.97515   1.99768   2.00489   2.06114
 Alpha virt. eigenvalues --    2.06927   2.07120   2.08547   2.10842   2.12219
 Alpha virt. eigenvalues --    2.13759   2.15131   2.17475   2.18367   2.21187
 Alpha virt. eigenvalues --    2.24135   2.26101   2.28184   2.31915   2.32510
 Alpha virt. eigenvalues --    2.34216   2.35707   2.38037   2.41509   2.42633
 Alpha virt. eigenvalues --    2.43212   2.44624   2.46627   2.48320   2.54610
 Alpha virt. eigenvalues --    2.58241   2.60555   2.61070   2.61402   2.63942
 Alpha virt. eigenvalues --    2.65978   2.69935   2.74655   2.79605   2.82932
 Alpha virt. eigenvalues --    2.84551   2.86706   2.90584   2.92434   2.96472
 Alpha virt. eigenvalues --    2.99558   3.01099   3.02449   3.06565   3.08156
 Alpha virt. eigenvalues --    3.08836   3.12633   3.16414   3.20628   3.26539
 Alpha virt. eigenvalues --    3.38230   3.41686   3.47164   3.72528  10.26044
          Condensed to atoms (all electrons):
               1          2          3          4          5          6
     1  C    4.924824   0.524195  -0.023881  -0.052635  -0.008452   0.504867
     2  C    0.524195   4.950914   0.520550  -0.016185  -0.061232  -0.022466
     3  C   -0.023881   0.520550   4.919794   0.517811  -0.004186  -0.045962
     4  C   -0.052635  -0.016185   0.517811   4.990144   0.444217  -0.014462
     5  C   -0.008452  -0.061232  -0.004186   0.444217   5.346094   0.470906
     6  C    0.504867  -0.022466  -0.045962  -0.014462   0.470906   4.947099
     7  I    0.000048   0.001028  -0.000428  -0.057687   0.254146  -0.053596
     8  C    0.002484  -0.044945   0.316266  -0.040910   0.003997   0.000040
     9  H   -0.000012   0.003425  -0.064298   0.000545   0.000504  -0.000038
    10  C   -0.000005  -0.000586   0.004697  -0.000007   0.000000   0.000000
    11  H    0.000000   0.000016  -0.000211  -0.000001   0.000000   0.000000
    12  C    0.000001   0.000212   0.002344  -0.000026   0.000001   0.000000
    13  S    0.000121  -0.000297  -0.070365   0.000285  -0.000191  -0.000004
    14  C   -0.000001  -0.000052   0.000321   0.000000   0.000000   0.000000
    15  O    0.000064  -0.002421  -0.000224  -0.000003   0.000000   0.000000
    16  H    0.383964  -0.028399   0.002031   0.000014   0.003855  -0.032825
    17  H   -0.024650   0.370151  -0.031851   0.003301  -0.000481   0.003037
    18  H   -0.000079   0.002881  -0.031631   0.381133  -0.025649   0.002334
    19  H   -0.026969   0.002581   0.000066   0.002335  -0.028272   0.383736
    20  H    0.000000  -0.000003  -0.000194   0.000002   0.000000   0.000000
    21  H    0.000000  -0.000003   0.000020   0.000000   0.000000   0.000000
    22  N    0.000088   0.000195  -0.053508   0.000146  -0.000049   0.000001
    23  H    0.000085   0.003405  -0.001105  -0.000013  -0.000001  -0.000004
    24  H    0.000003   0.000254   0.000780   0.000149  -0.000002  -0.000002
    25  O    0.000000   0.000008  -0.000001   0.000000   0.000000   0.000000
               7          8          9         10         11         12
     1  C    0.000048   0.002484  -0.000012  -0.000005   0.000000   0.000001
     2  C    0.001028  -0.044945   0.003425  -0.000586   0.000016   0.000212
     3  C   -0.000428   0.316266  -0.064298   0.004697  -0.000211   0.002344
     4  C   -0.057687  -0.040910   0.000545  -0.000007  -0.000001  -0.000026
     5  C    0.254146   0.003997   0.000504   0.000000   0.000000   0.000001
     6  C   -0.053596   0.000040  -0.000038   0.000000   0.000000   0.000000
     7  I    6.661904  -0.000144  -0.000035   0.000000   0.000000   0.000000
     8  C   -0.000144   5.183369   0.409266  -0.050727   0.003608  -0.040267
     9  H   -0.000035   0.409266   0.530384   0.000714   0.000257  -0.001395
    10  C    0.000000  -0.050727   0.000714   5.240758   0.389612   0.301489
    11  H    0.000000   0.003608   0.000257   0.389612   0.468792  -0.024057
    12  C    0.000000  -0.040267  -0.001395   0.301489  -0.024057   5.392571
    13  S    0.000008   0.287122  -0.043252  -0.057538   0.005697   0.230251
    14  C    0.000000  -0.000876  -0.000074   0.351569  -0.034661  -0.051388
    15  O    0.000000   0.000584  -0.000028  -0.088722   0.001079   0.001367
    16  H   -0.000156  -0.000107   0.000002   0.000000   0.000000   0.000000
    17  H    0.000017  -0.003018  -0.000027   0.000341   0.000004  -0.000247
    18  H    0.000264  -0.003000   0.003101  -0.000001   0.000000  -0.000004
    19  H    0.000130   0.000004   0.000000   0.000000   0.000000   0.000000
    20  H    0.000000  -0.002962   0.003024  -0.042992  -0.003165   0.378855
    21  H    0.000000   0.002695  -0.000175  -0.031217  -0.000033   0.383441
    22  N    0.000002   0.181189  -0.050116   0.184504  -0.034534  -0.058178
    23  H    0.000000  -0.000488   0.000124  -0.007412   0.000597   0.000978
    24  H    0.000000  -0.027148  -0.003212  -0.028085  -0.003724   0.002774
    25  O    0.000000  -0.000033   0.000001  -0.079995   0.001639  -0.000529
              13         14         15         16         17         18
     1  C    0.000121  -0.000001   0.000064   0.383964  -0.024650  -0.000079
     2  C   -0.000297  -0.000052  -0.002421  -0.028399   0.370151   0.002881
     3  C   -0.070365   0.000321  -0.000224   0.002031  -0.031851  -0.031631
     4  C    0.000285   0.000000  -0.000003   0.000014   0.003301   0.381133
     5  C   -0.000191   0.000000   0.000000   0.003855  -0.000481  -0.025649
     6  C   -0.000004   0.000000   0.000000  -0.032825   0.003037   0.002334
     7  I    0.000008   0.000000   0.000000  -0.000156   0.000017   0.000264
     8  C    0.287122  -0.000876   0.000584  -0.000107  -0.003018  -0.003000
     9  H   -0.043252  -0.000074  -0.000028   0.000002  -0.000027   0.003101
    10  C   -0.057538   0.351569  -0.088722   0.000000   0.000341  -0.000001
    11  H    0.005697  -0.034661   0.001079   0.000000   0.000004   0.000000
    12  C    0.230251  -0.051388   0.001367   0.000000  -0.000247  -0.000004
    13  S   15.611785  -0.003529  -0.000148   0.000002   0.000335   0.000184
    14  C   -0.003529   4.082872   0.281305   0.000000  -0.000067   0.000000
    15  O   -0.000148   0.281305   8.422963  -0.000004   0.008202   0.000000
    16  H    0.000002   0.000000  -0.000004   0.449948  -0.001393   0.000007
    17  H    0.000335  -0.000067   0.008202  -0.001393   0.433746  -0.000083
    18  H    0.000184   0.000000   0.000000   0.000007  -0.000083   0.443935
    19  H    0.000000   0.000000   0.000000  -0.001613  -0.000078  -0.000080
    20  H   -0.042684   0.003460  -0.000060   0.000000   0.000000  -0.000001
    21  H   -0.029757  -0.000672   0.000282   0.000000   0.000003   0.000000
    22  N   -0.072551  -0.052072  -0.024836   0.000002  -0.000672   0.000011
    23  H    0.000188  -0.027552   0.231449   0.000007  -0.000878   0.000000
    24  H    0.003759   0.002372   0.000134   0.000000   0.000018  -0.000027
    25  O    0.000714   0.591716  -0.060638   0.000000  -0.000063   0.000000
              19         20         21         22         23         24
     1  C   -0.026969   0.000000   0.000000   0.000088   0.000085   0.000003
     2  C    0.002581  -0.000003  -0.000003   0.000195   0.003405   0.000254
     3  C    0.000066  -0.000194   0.000020  -0.053508  -0.001105   0.000780
     4  C    0.002335   0.000002   0.000000   0.000146  -0.000013   0.000149
     5  C   -0.028272   0.000000   0.000000  -0.000049  -0.000001  -0.000002
     6  C    0.383736   0.000000   0.000000   0.000001  -0.000004  -0.000002
     7  I    0.000130   0.000000   0.000000   0.000002   0.000000   0.000000
     8  C    0.000004  -0.002962   0.002695   0.181189  -0.000488  -0.027148
     9  H    0.000000   0.003024  -0.000175  -0.050116   0.000124  -0.003212
    10  C    0.000000  -0.042992  -0.031217   0.184504  -0.007412  -0.028085
    11  H    0.000000  -0.003165  -0.000033  -0.034534   0.000597  -0.003724
    12  C    0.000000   0.378855   0.383441  -0.058178   0.000978   0.002774
    13  S    0.000000  -0.042684  -0.029757  -0.072551   0.000188   0.003759
    14  C    0.000000   0.003460  -0.000672  -0.052072  -0.027552   0.002372
    15  O    0.000000  -0.000060   0.000282  -0.024836   0.231449   0.000134
    16  H   -0.001613   0.000000   0.000000   0.000002   0.000007   0.000000
    17  H   -0.000078   0.000000   0.000003  -0.000672  -0.000878   0.000018
    18  H   -0.000080  -0.000001   0.000000   0.000011   0.000000  -0.000027
    19  H    0.436262   0.000000   0.000000   0.000000   0.000000   0.000000
    20  H    0.000000   0.516477  -0.021537   0.000512  -0.000012   0.000098
    21  H    0.000000  -0.021537   0.422519   0.002940  -0.000050  -0.000059
    22  N    0.000000   0.000512   0.002940   7.410971   0.036800   0.323711
    23  H    0.000000  -0.000012  -0.000050   0.036800   0.232212  -0.000382
    24  H    0.000000   0.000098  -0.000059   0.323711  -0.000382   0.347687
    25  O    0.000000  -0.000040   0.008244   0.002015   0.002604  -0.000041
              25
     1  C    0.000000
     2  C    0.000008
     3  C   -0.000001
     4  C    0.000000
     5  C    0.000000
     6  C    0.000000
     7  I    0.000000
     8  C   -0.000033
     9  H    0.000001
    10  C   -0.079995
    11  H    0.001639
    12  C   -0.000529
    13  S    0.000714
    14  C    0.591716
    15  O   -0.060638
    16  H    0.000000
    17  H   -0.000063
    18  H    0.000000
    19  H    0.000000
    20  H   -0.000040
    21  H    0.008244
    22  N    0.002015
    23  H    0.002604
    24  H   -0.000041
    25  O    8.111435
 Mulliken charges:
               1
     1  C   -0.204062
     2  C   -0.203226
     3  C    0.043167
     4  C   -0.158153
     5  C   -0.395204
     6  C   -0.142662
     7  I    0.194499
     8  C   -0.175999
     9  H    0.211313
    10  C   -0.086396
    11  H    0.229085
    12  C   -0.518193
    13  S    0.179867
    14  C    0.857328
    15  O   -0.770345
    16  H    0.224665
    17  H    0.244352
    18  H    0.226703
    19  H    0.231897
    20  H    0.211224
    21  H    0.263359
    22  N   -0.796571
    23  H    0.529447
    24  H    0.380942
    25  O   -0.577036
 Sum of Mulliken charges =   0.00000
 Mulliken charges with hydrogens summed into heavy atoms:
               1
     1  C    0.020603
     2  C    0.041126
     3  C    0.043167
     4  C    0.068550
     5  C   -0.395204
     6  C    0.089235
     7  I    0.194499
     8  C    0.035315
    10  C    0.142689
    12  C   -0.043610
    13  S    0.179867
    14  C    0.857328
    15  O   -0.240898
    22  N   -0.415629
    25  O   -0.577036
 DipInt: DoE/N= T F RetVal/Mat= T F Init=T NMatP=  1 IDeriv=0 Min/MaxMlt=  0  4
 Entering OneElI...
 OneElI was handed   235777134 working-precision words.
 Multipole integrals L=0 to 4 MinM= 0 MaxM= 0.
 Requested accuracy = 0.1000D-12
 ShPair: Thresh= 1.00D-13 NBox=     0 BxSize= 0.00D+00 RnKept= 1.86D+01
         NSMCal=                 3321 NSMKep=                2889
 PrsmSu:  NPrtUS=   1 ThrOK=F IAlg=1 NPAlg=1 LenDen=           0.
 Prism:   IPart=     0 DynPar=F LinDyn=F Incr=          28.
 PRISM was handed   235511434 working-precision words and  2889 shell-pairs
 IPart=  0 NShTot=        2889 NBatch=         112 AvBLen=        25.8
 PrSmSu:  NxtVal=             29.
 Electronic moments (au):
       -116.00000000       -348.85941668        -25.46727425        -15.26045854
      -4119.71529361       -726.01854218       -312.15507423        171.80419642
         98.18689698         12.43294818     -24622.29856485       -822.67411888
        -86.26616670      -1998.72592974       -640.73769075        780.58054643
      -1105.59253947        127.43033481       -449.01672597        778.77303535
    -290544.25703144     -10590.07052586      -2352.43202706     -10248.76330197
       6462.77434940       2789.17449714       -545.57136709        268.30978807
        241.59346909     -21467.23985928      -9484.17900161      -2042.06271865
       3265.80498688        406.61215020       1464.87536516
 Electronic spatial extent (au):  <R**2>=           5157.8889
 DipInt: DoE/N= F T RetVal/Mat= T F Init=T NMatP=  1 IDeriv=0 Min/MaxMlt=  0  4
 Nuclear    moments (au):
        116.00000000        347.99830644         24.50586247         14.02618009
       4014.97339230        647.93734810        231.98401561       -185.39127476
       -106.11076265         -7.47223537      23983.35984270        808.27164313
         39.05829584       1865.52995905        510.47542799       -837.05591209
       1021.11741688       -137.72838180        445.63485957       -775.72920410
     268968.99422188       8054.43999573       1250.92652834       9429.58010397
      -6718.55672405      -2686.77725328        664.14675475       -285.17594240
       -221.10269749      17967.85640013       6430.54434276       1414.84775619
      -3204.08093340       -398.55163852      -1396.25173101
 Total      moments (au):
          0.00000000         -0.86111024         -0.96141178         -1.23427845
       -104.74190131        -78.08119409        -80.17105862        -13.58707834
         -7.92386567          4.96071281       -638.93872216        -14.40247575
        -47.20787086       -133.19597069       -130.26226276        -56.47536566
        -84.47512260        -10.29804699         -3.38186640          3.04383125
     -21575.26280956      -2535.63053013      -1101.50549872       -819.18319800
       -255.78237465        102.39724386        118.57538766        -16.86615433
         20.49077160      -3499.38345915      -3053.63465885       -627.21496246
         61.72405348          8.06051167         68.62363415
 Traceless Quadrup. (au):
        -17.07718331          9.58352392          7.49365939        -13.58707834
         -7.92386567          4.96071281
 Charge=              0.0000 electrons
 Dipole moment (field-independent basis, Debye):
    X=             -2.1887    Y=             -2.4437    Z=             -3.1372  Tot=              4.5392
 Quadrupole moment (field-independent basis, Debye-Ang):
   XX=           -140.8814   YY=           -105.0219   ZZ=           -107.8328
   XY=            -18.2751   XZ=            -10.6579   YZ=              6.6723
 Traceless Quadrupole moment (field-independent basis, Debye-Ang):
   XX=            -22.9694   YY=             12.8902   ZZ=             10.0792
   XY=            -18.2751   XZ=            -10.6579   YZ=              6.6723
 Octapole moment (field-independent basis, Debye-Ang**2):
  XXX=           -454.7719  YYY=            -10.2511  ZZZ=            -33.6007  XYY=            -94.8038
  XXY=            -92.7157  XXZ=            -40.1970  XZZ=            -60.1261  YZZ=             -7.3298
  YYZ=             -2.4071  XYZ=              2.1665
 Hexadecapole moment (field-independent basis, Debye-Ang**3):
 XXXX=          -8126.2780 YYYY=           -955.0400 ZZZZ=           -414.8798 XXXY=           -308.5437
 XXXZ=            -96.3399 YYYX=             38.5677 YYYZ=             44.6612 ZZZX=             -6.3526
 ZZZY=              7.7178 XXYY=          -1318.0355 XXZZ=          -1150.1452 YYZZ=           -236.2392
 XXYZ=             23.2482 YYXZ=              3.0360 ZZXY=             25.8469
 N-N= 1.050568816668D+03 E-N=-4.446253870902D+03  KE= 9.885902943989D+02
 Entering OneElI...
 OneElI was handed   235812264 working-precision words.
 Calculate electrostatic properties
    NBasis =   228  MinDer = 0  MaxDer = 0
    NGrid  =    25  NMatD  =   1
 Requested accuracy = 0.1000D-12
 ShPair: Thresh= 1.00D-13 NBox=     0 BxSize= 0.00D+00 RnKept= 1.86D+01
         NSMCal=                 3321 NSMKep=                2643
 PrsmSu:  NPrtUS=   1 ThrOK=F IAlg=1 NPAlg=1 LenDen=           0.
 Prism:   IPart=     0 DynPar=F LinDyn=F Incr=         512.
 PRISM was handed   235570282 working-precision words and  2643 shell-pairs
 IPart=  0 NShTot=       66075 NBatch=        2724 AvBLen=        24.3
 PrSmSu:  NxtVal=            513.
 --------------------------------------------------------
       Center         ----      EFG at Nuclei      ----
                      3XX-RR        3YY-RR        3ZZ-RR
 --------------------------------------------------------
     1   Atom        0.182802      0.104428     -0.287230
     2   Atom        0.173965      0.118144     -0.292109
     3   Atom        0.122633      0.111079     -0.233712
     4   Atom        0.162180      0.089899     -0.252079
     5   Atom       -0.188802      0.249645     -0.060843
     6   Atom        0.192103      0.084463     -0.276566
     7   Atom       -0.070637      0.027826      0.042811
     8   Atom        0.019145      0.133817     -0.152962
     9   Atom        0.081318     -0.161644      0.080325
    10   Atom       -0.178665      0.071561      0.107104
    11   Atom        0.039885      0.096755     -0.136640
    12   Atom       -0.036783      0.083904     -0.047120
    13   Atom       -1.734209      2.353682     -0.619473
    14   Atom        0.217660      0.153545     -0.371205
    15   Atom       -0.713685     -0.096584      0.810268
    16   Atom        0.131579     -0.246560      0.114980
    17   Atom       -0.245673      0.094256      0.151418
    18   Atom        0.127522     -0.245390      0.117868
    19   Atom       -0.128241     -0.018693      0.146934
    20   Atom        0.146047     -0.226484      0.080437
    21   Atom       -0.150604      0.146495      0.004109
    22   Atom       -0.613174      1.097226     -0.484053
    23   Atom       -0.231972      0.114696      0.117275
    24   Atom        0.136964      0.174690     -0.311654
    25   Atom       -0.824975      1.687370     -0.862395
 --------------------------------------------------------
                        XY            XZ            YZ
 --------------------------------------------------------
     1   Atom       -0.018537      0.003940      0.152010
     2   Atom       -0.017799      0.006118      0.157801
     3   Atom        0.061067      0.016447      0.143633
     4   Atom        0.013453      0.010745      0.136316
     5   Atom       -0.202573     -0.070157      0.115902
     6   Atom       -0.000317      0.009267      0.140041
     7   Atom       -0.041785     -0.016296     -0.006846
     8   Atom       -0.040344      0.034917      0.154448
     9   Atom       -0.128889     -0.051351     -0.137103
    10   Atom        0.044613     -0.091990      0.022933
    11   Atom        0.068677      0.162237     -0.116745
    12   Atom        0.048485      0.197346      0.026182
    13   Atom        1.595648     -0.431906      0.298643
    14   Atom        0.116593      0.347025      0.084079
    15   Atom        0.628713     -0.735481      0.240650
    16   Atom       -0.063820     -0.022604     -0.143787
    17   Atom       -0.138360     -0.055276     -0.028836
    18   Atom       -0.062545     -0.021886     -0.144472
    19   Atom        0.209537      0.067097     -0.060144
    20   Atom       -0.032592     -0.010958     -0.151737
    21   Atom       -0.021534     -0.200417     -0.014015
    22   Atom       -0.154439      0.041677      0.123333
    23   Atom       -0.098882     -0.174781     -0.045595
    24   Atom       -0.044836     -0.105329     -0.161653
    25   Atom        0.065329      0.025827      0.165878
 --------------------------------------------------------


 ---------------------------------------------------------------------------------
              Nuclear Quadrupole Coupling Constant in Principal Axis System
 ---------------------------------------------------------------------------------

       Atom             a.u.   MegaHertz   Gauss  10(-4) cm-1        Axes

              Baa    -0.0884   -14.740    -5.260    -4.917  0.9301  0.3424  0.1334
     7 I(127) Bbb     0.0429     7.155     2.553     2.387 -0.3674  0.8709  0.3263
              Bcc     0.0455     7.585     2.707     2.530 -0.0045 -0.3525  0.9358
 
              Baa    -0.6450     3.098     1.105     1.033  0.9398  0.1063 -0.3247
    22 N(14)  Bbb    -0.4749     2.281     0.814     0.761  0.3305 -0.0415  0.9429
              Bcc     1.1199    -5.379    -1.919    -1.794 -0.0867  0.9935  0.0741
 

 ---------------------------------------------------------------------------------

 No NMR shielding tensors so no spin-rotation constants.
 Leave Link  601 at Fri Jan 17 11:57:34 2014, MaxMem=   235929600 cpu:         0.3
 FitSet:  NAtFit=    25 NAtPot=    25 NAtFrz=     0 MDM=    29 TotChg=   0.00000
 Merz-Kollman atomic radii used.
 Read replacement radii for each type of atom:
 Rad(53) =   2.700000000000D+00
 Atom Element Radius
    1     6    1.50
    2     6    1.50
    3     6    1.50
    4     6    1.50
    5     6    1.50
    6     6    1.50
    7    53    2.70
    8     6    1.50
    9     1    1.20
   10     6    1.50
   11     1    1.20
   12     6    1.50
   13    16    1.75
   14     6    1.50
   15     8    1.40
   16     1    1.20
   17     1    1.20
   18     1    1.20
   19     1    1.20
   20     1    1.20
   21     1    1.20
   22     7    1.50
   23     1    1.20
   24     1    1.20
   25     8    1.40
 Generate VDW surfaces: Layer= 5 Dens= 2 Start= 1.400 Inc= 0.179

 **********************************************************************

            Electrostatic Properties Using The SCF Density

 **********************************************************************

       Atomic Center    1 is at  -0.497927  2.210195  0.753168
       Atomic Center    2 is at   0.588283  1.380648  0.488311
       Atomic Center    3 is at   0.378654  0.072689  0.031117
       Atomic Center    4 is at  -0.928975 -0.391116 -0.149469
       Atomic Center    5 is at  -2.006781  0.450868  0.123901
       Atomic Center    6 is at  -1.808138  1.753115  0.573982
       Atomic Center    7 is at  -4.003321 -0.281912 -0.161355
       Atomic Center    8 is at   1.537506 -0.858848 -0.261494
       Atomic Center    9 is at   1.138532 -1.793957 -0.675858
       Atomic Center   10 is at   3.937035 -0.611104 -0.840786
       Atomic Center   11 is at   4.470963 -0.977477 -1.726601
       Atomic Center   12 is at   3.951260 -1.674687  0.263147
       Atomic Center   13 is at   2.478943 -1.274411  1.274876
       Atomic Center   14 is at   4.685431  0.668026 -0.387826
       Atomic Center   15 is at   4.016807  1.800829 -0.642900
       Atomic Center   16 is at  -0.331153  3.223509  1.107669
       Atomic Center   17 is at   1.600134  1.742031  0.642455
       Atomic Center   18 is at  -1.099434 -1.403838 -0.500863
       Atomic Center   19 is at  -2.649735  2.403986  0.783887
       Atomic Center   20 is at   3.873547 -2.685848 -0.148539
       Atomic Center   21 is at   4.854574 -1.594799  0.870406
       Atomic Center   22 is at   2.537970 -0.281410 -1.196416
       Atomic Center   23 is at   3.145054  1.495789 -1.003790
       Atomic Center   24 is at   2.319819 -0.572879 -2.145544
       Atomic Center   25 is at   5.784039  0.632487  0.113050
      ESP Fit Center   26 is at  -0.497927  2.210195  2.853168
      ESP Fit Center   27 is at   0.220315  2.210195  2.726522
      ESP Fit Center   28 is at  -0.857048  2.832211  2.726522
      ESP Fit Center   29 is at  -1.216169  2.210195  2.726522
      ESP Fit Center   30 is at  -0.857048  1.588179  2.726522
      ESP Fit Center   31 is at  -0.138806  1.588179  2.726522
      ESP Fit Center   32 is at  -0.690031  0.874081  2.361861
      ESP Fit Center   33 is at  -1.744234  3.860572  0.388507
      ESP Fit Center   34 is at   0.718990  3.561718 -0.296832
      ESP Fit Center   35 is at  -1.407254  3.785195 -0.296832
      ESP Fit Center   36 is at   0.062822  3.438066 -0.855525
      ESP Fit Center   37 is at  -0.690031  3.546310 -0.855525
      ESP Fit Center   38 is at  -0.138806  2.832211 -1.220187
      ESP Fit Center   39 is at  -0.857048  2.832211 -1.220187
      ESP Fit Center   40 is at  -0.497927  2.210195 -1.346832
      ESP Fit Center   41 is at   0.588283  1.380648  2.588311
      ESP Fit Center   42 is at   1.306525  1.380648  2.461665
      ESP Fit Center   43 is at   0.947404  2.002664  2.461665
      ESP Fit Center   44 is at   0.229162  0.758632  2.461665
      ESP Fit Center   45 is at   0.947404  0.758632  2.461665
      ESP Fit Center   46 is at   1.149032  2.608518  2.097004
      ESP Fit Center   47 is at  -0.295683  0.360497  2.097004
      ESP Fit Center   48 is at   1.150278  3.110290 -0.561689
      ESP Fit Center   49 is at   1.149032  2.608518 -1.120382
      ESP Fit Center   50 is at   0.396179  2.716763 -1.120382
      ESP Fit Center   51 is at   0.947404  2.002664 -1.485044
      ESP Fit Center   52 is at   0.229162  2.002664 -1.485044
      ESP Fit Center   53 is at   0.588283  1.380648 -1.611689
      ESP Fit Center   54 is at   0.378654  0.072689  2.131117
      ESP Fit Center   55 is at  -0.339588  0.072689  2.004471
      ESP Fit Center   56 is at   0.019533 -0.549327  2.004471
      ESP Fit Center   57 is at   0.186550  1.408804 -1.577576
      ESP Fit Center   58 is at  -0.505313  1.092841 -1.577576
      ESP Fit Center   59 is at   0.737775  0.694705 -1.942238
      ESP Fit Center   60 is at   0.019533  0.694705 -1.942238
      ESP Fit Center   61 is at   0.378654  0.072689 -2.068883
      ESP Fit Center   62 is at  -0.569854 -1.013132  1.823885
      ESP Fit Center   63 is at  -0.368226 -1.618986  1.459224
      ESP Fit Center   64 is at  -0.366980 -2.120758  0.900531
      ESP Fit Center   65 is at  -0.210733 -0.391116 -2.122824
      ESP Fit Center   66 is at  -0.569854  0.230900 -2.122824
      ESP Fit Center   67 is at  -0.569854 -1.013132 -2.122824
      ESP Fit Center   68 is at  -1.808138  1.753115  2.673982
      ESP Fit Center   69 is at  -2.167259  2.375131  2.547336
      ESP Fit Center   70 is at  -1.449017  1.131099  2.547336
      ESP Fit Center   71 is at  -2.000242  3.089230  2.182675
      ESP Fit Center   72 is at  -1.998239  3.561806 -0.476018
      ESP Fit Center   73 is at  -2.000242  3.089230 -1.034711
      ESP Fit Center   74 is at  -1.449017  2.375131 -1.399373
      ESP Fit Center   75 is at  -4.003321 -0.281912  3.618645
      ESP Fit Center   76 is at  -3.265880 -0.281912  3.546013
      ESP Fit Center   77 is at  -3.634600  0.356731  3.546013
      ESP Fit Center   78 is at  -4.372042  0.356731  3.546013
      ESP Fit Center   79 is at  -4.740763 -0.281912  3.546013
      ESP Fit Center   80 is at  -4.372042 -0.920555  3.546013
      ESP Fit Center   81 is at  -3.634600 -0.920555  3.546013
      ESP Fit Center   82 is at  -2.556778 -0.281912  3.330910
      ESP Fit Center   83 is at  -2.750578  0.441360  3.330910
      ESP Fit Center   84 is at  -3.280049  0.970831  3.330910
      ESP Fit Center   85 is at  -4.003321  1.164632  3.330910
      ESP Fit Center   86 is at  -4.726593  0.970831  3.330910
      ESP Fit Center   87 is at  -5.256064  0.441360  3.330910
      ESP Fit Center   88 is at  -5.449865 -0.281912  3.330910
      ESP Fit Center   89 is at  -5.256064 -1.005184  3.330910
      ESP Fit Center   90 is at  -4.726593 -1.534655  3.330910
      ESP Fit Center   91 is at  -4.003321 -1.728455  3.330910
      ESP Fit Center   92 is at  -3.280049 -1.534655  3.330910
      ESP Fit Center   93 is at  -2.750578 -1.005184  3.330910
      ESP Fit Center   94 is at  -1.903266 -0.281912  2.981600
      ESP Fit Center   95 is at  -2.029915  0.436349  2.981600
      ESP Fit Center   96 is at  -2.394585  1.067978  2.981600
      ESP Fit Center   97 is at  -2.953293  1.536790  2.981600
      ESP Fit Center   98 is at  -3.638650  1.786239  2.981600
      ESP Fit Center   99 is at  -4.367992  1.786239  2.981600
      ESP Fit Center  100 is at  -5.053349  1.536790  2.981600
      ESP Fit Center  101 is at  -5.612057  1.067978  2.981600
      ESP Fit Center  102 is at  -5.976728  0.436349  2.981600
      ESP Fit Center  103 is at  -6.103377 -0.281912  2.981600
      ESP Fit Center  104 is at  -5.976728 -1.000173  2.981600
      ESP Fit Center  105 is at  -5.612057 -1.631801  2.981600
      ESP Fit Center  106 is at  -5.053349 -2.100613  2.981600
      ESP Fit Center  107 is at  -4.367992 -2.350063  2.981600
      ESP Fit Center  108 is at  -3.638650 -2.350063  2.981600
      ESP Fit Center  109 is at  -2.953293 -2.100613  2.981600
      ESP Fit Center  110 is at  -2.394585 -1.631801  2.981600
      ESP Fit Center  111 is at  -2.029915 -1.000173  2.981600
      ESP Fit Center  112 is at  -1.330458 -0.281912  2.511509
      ESP Fit Center  113 is at  -1.429575  0.439218  2.511509
      ESP Fit Center  114 is at  -2.773630  2.091284  2.511509
      ESP Fit Center  115 is at  -3.459511  2.335046  2.511509
      ESP Fit Center  116 is at  -4.185724  2.384721  2.511509
      ESP Fit Center  117 is at  -4.898409  2.236623  2.511509
      ESP Fit Center  118 is at  -5.544709  1.901737  2.511509
      ESP Fit Center  119 is at  -6.076692  1.404900  2.511509
      ESP Fit Center  120 is at  -6.454902  0.782960  2.511509
      ESP Fit Center  121 is at  -6.651290  0.082043  2.511509
      ESP Fit Center  122 is at  -6.651290 -0.645867  2.511509
      ESP Fit Center  123 is at  -6.454902 -1.346784  2.511509
      ESP Fit Center  124 is at  -6.076692 -1.968724  2.511509
      ESP Fit Center  125 is at  -5.544709 -2.465561  2.511509
      ESP Fit Center  126 is at  -4.898409 -2.800447  2.511509
      ESP Fit Center  127 is at  -4.185724 -2.948544  2.511509
      ESP Fit Center  128 is at  -3.459511 -2.898870  2.511509
      ESP Fit Center  129 is at  -2.773630 -2.655108  2.511509
      ESP Fit Center  130 is at  -2.178950 -2.235337  2.511509
      ESP Fit Center  131 is at  -1.719575 -1.670689  2.511509
      ESP Fit Center  132 is at  -1.429575 -1.003042  2.511509
      ESP Fit Center  133 is at  -4.186068  2.855726  1.938700
      ESP Fit Center  134 is at  -4.904731  2.729006  1.938700
      ESP Fit Center  135 is at  -5.574799  2.439967  1.938700
      ESP Fit Center  136 is at  -6.160148  2.004191  1.938700
      ESP Fit Center  137 is at  -6.629222  1.445170  1.938700
      ESP Fit Center  138 is at  -6.956733  0.793042  1.938700
      ESP Fit Center  139 is at  -7.125025  0.082963  1.938700
      ESP Fit Center  140 is at  -7.125025 -0.646787  1.938700
      ESP Fit Center  141 is at  -6.956733 -1.356866  1.938700
      ESP Fit Center  142 is at  -6.629222 -2.008994  1.938700
      ESP Fit Center  143 is at  -6.160148 -2.568015  1.938700
      ESP Fit Center  144 is at  -5.574799 -3.003791  1.938700
      ESP Fit Center  145 is at  -4.904731 -3.292830  1.938700
      ESP Fit Center  146 is at  -4.186068 -3.419550  1.938700
      ESP Fit Center  147 is at  -3.457553 -3.377118  1.938700
      ESP Fit Center  148 is at  -2.758460 -3.167824  1.938700
      ESP Fit Center  149 is at  -2.126478 -2.802949  1.938700
      ESP Fit Center  150 is at  -1.595678 -2.302164  1.938700
      ESP Fit Center  151 is at  -1.194674 -1.692468  1.938700
      ESP Fit Center  152 is at  -0.945085 -1.006727  1.938700
      ESP Fit Center  153 is at  -4.368362  3.191222  1.285188
      ESP Fit Center  154 is at  -5.082490  3.039429  1.285188
      ESP Fit Center  155 is at  -5.749453  2.742478  1.285188
      ESP Fit Center  156 is at  -6.340102  2.313347  1.285188
      ESP Fit Center  157 is at  -6.828623  1.770790  1.285188
      ESP Fit Center  158 is at  -7.193664  1.138520  1.285188
      ESP Fit Center  159 is at  -7.419271  0.444171  1.285188
      ESP Fit Center  160 is at  -7.495586 -0.281912  1.285188
      ESP Fit Center  161 is at  -7.419271 -1.007994  1.285188
      ESP Fit Center  162 is at  -7.193664 -1.702344  1.285188
      ESP Fit Center  163 is at  -6.828623 -2.334613  1.285188
      ESP Fit Center  164 is at  -6.340102 -2.877170  1.285188
      ESP Fit Center  165 is at  -5.749453 -3.306302  1.285188
      ESP Fit Center  166 is at  -5.082490 -3.603253  1.285188
      ESP Fit Center  167 is at  -4.368362 -3.755045  1.285188
      ESP Fit Center  168 is at  -3.638280 -3.755045  1.285188
      ESP Fit Center  169 is at  -2.924152 -3.603253  1.285188
      ESP Fit Center  170 is at  -2.257189 -3.306302  1.285188
      ESP Fit Center  171 is at  -1.666540 -2.877170  1.285188
      ESP Fit Center  172 is at  -1.178020 -2.334613  1.285188
      ESP Fit Center  173 is at  -4.003321  3.425457  0.576086
      ESP Fit Center  174 is at  -4.726593  3.354220  0.576086
      ESP Fit Center  175 is at  -5.422070  3.143250  0.576086
      ESP Fit Center  176 is at  -6.063025  2.800652  0.576086
      ESP Fit Center  177 is at  -6.624826  2.339593  0.576086
      ESP Fit Center  178 is at  -7.085885  1.777792  0.576086
      ESP Fit Center  179 is at  -7.428483  1.136837  0.576086
      ESP Fit Center  180 is at  -7.639453  0.441360  0.576086
      ESP Fit Center  181 is at  -7.710689 -0.281912  0.576086
      ESP Fit Center  182 is at  -7.639453 -1.005184  0.576086
      ESP Fit Center  183 is at  -7.428483 -1.700660  0.576086
      ESP Fit Center  184 is at  -7.085885 -2.341615  0.576086
      ESP Fit Center  185 is at  -6.624826 -2.903417  0.576086
      ESP Fit Center  186 is at  -6.063025 -3.364476  0.576086
      ESP Fit Center  187 is at  -5.422070 -3.707074  0.576086
      ESP Fit Center  188 is at  -4.726593 -3.918044  0.576086
      ESP Fit Center  189 is at  -4.003321 -3.989280  0.576086
      ESP Fit Center  190 is at  -3.280049 -3.918044  0.576086
      ESP Fit Center  191 is at  -2.584573 -3.707074  0.576086
      ESP Fit Center  192 is at  -1.943618 -3.364476  0.576086
      ESP Fit Center  193 is at  -1.381816 -2.903417  0.576086
      ESP Fit Center  194 is at  -3.823461  3.493807 -0.161355
      ESP Fit Center  195 is at  -4.541271  3.459613 -0.161355
      ESP Fit Center  196 is at  -5.239638  3.290191 -0.161355
      ESP Fit Center  197 is at  -5.893321  2.991664 -0.161355
      ESP Fit Center  198 is at  -6.478695  2.574822 -0.161355
      ESP Fit Center  199 is at  -6.974602  2.054729 -0.161355
      ESP Fit Center  200 is at  -7.363119  1.450184 -0.161355
      ESP Fit Center  201 is at  -7.630205  0.783037 -0.161355
      ESP Fit Center  202 is at  -7.766205  0.077400 -0.161355
      ESP Fit Center  203 is at  -7.766205 -0.641224 -0.161355
      ESP Fit Center  204 is at  -7.630205 -1.346861 -0.161355
      ESP Fit Center  205 is at  -7.363119 -2.014008 -0.161355
      ESP Fit Center  206 is at  -6.974602 -2.618553 -0.161355
      ESP Fit Center  207 is at  -6.478695 -3.138645 -0.161355
      ESP Fit Center  208 is at  -5.893321 -3.555488 -0.161355
      ESP Fit Center  209 is at  -5.239638 -3.854015 -0.161355
      ESP Fit Center  210 is at  -4.541271 -4.023437 -0.161355
      ESP Fit Center  211 is at  -3.823461 -4.057630 -0.161355
      ESP Fit Center  212 is at  -3.112152 -3.955360 -0.161355
      ESP Fit Center  213 is at  -2.433052 -3.720321 -0.161355
      ESP Fit Center  214 is at  -1.810706 -3.361009 -0.161355
      ESP Fit Center  215 is at  -2.584573  3.143250 -0.898797
      ESP Fit Center  216 is at  -3.280049  3.354220 -0.898797
      ESP Fit Center  217 is at  -4.003321  3.425457 -0.898797
      ESP Fit Center  218 is at  -4.726593  3.354220 -0.898797
      ESP Fit Center  219 is at  -5.422070  3.143250 -0.898797
      ESP Fit Center  220 is at  -6.063025  2.800652 -0.898797
      ESP Fit Center  221 is at  -6.624826  2.339593 -0.898797
      ESP Fit Center  222 is at  -7.085885  1.777792 -0.898797
      ESP Fit Center  223 is at  -7.428483  1.136837 -0.898797
      ESP Fit Center  224 is at  -7.639453  0.441360 -0.898797
      ESP Fit Center  225 is at  -7.710689 -0.281912 -0.898797
      ESP Fit Center  226 is at  -7.639453 -1.005184 -0.898797
      ESP Fit Center  227 is at  -7.428483 -1.700660 -0.898797
      ESP Fit Center  228 is at  -7.085885 -2.341615 -0.898797
      ESP Fit Center  229 is at  -6.624826 -2.903417 -0.898797
      ESP Fit Center  230 is at  -6.063025 -3.364476 -0.898797
      ESP Fit Center  231 is at  -5.422070 -3.707074 -0.898797
      ESP Fit Center  232 is at  -4.726593 -3.918044 -0.898797
      ESP Fit Center  233 is at  -4.003321 -3.989280 -0.898797
      ESP Fit Center  234 is at  -3.280049 -3.918044 -0.898797
      ESP Fit Center  235 is at  -2.584573 -3.707074 -0.898797
      ESP Fit Center  236 is at  -1.943618 -3.364476 -0.898797
      ESP Fit Center  237 is at  -0.812979  1.138520 -1.607898
      ESP Fit Center  238 is at  -1.178020  1.770790 -1.607898
      ESP Fit Center  239 is at  -1.666540  2.313347 -1.607898
      ESP Fit Center  240 is at  -2.257189  2.742478 -1.607898
      ESP Fit Center  241 is at  -2.924152  3.039429 -1.607898
      ESP Fit Center  242 is at  -3.638280  3.191222 -1.607898
      ESP Fit Center  243 is at  -4.368362  3.191222 -1.607898
      ESP Fit Center  244 is at  -5.082490  3.039429 -1.607898
      ESP Fit Center  245 is at  -5.749453  2.742478 -1.607898
      ESP Fit Center  246 is at  -6.340102  2.313347 -1.607898
      ESP Fit Center  247 is at  -6.828623  1.770790 -1.607898
      ESP Fit Center  248 is at  -7.193664  1.138520 -1.607898
      ESP Fit Center  249 is at  -7.419271  0.444171 -1.607898
      ESP Fit Center  250 is at  -7.495586 -0.281912 -1.607898
      ESP Fit Center  251 is at  -7.419271 -1.007994 -1.607898
      ESP Fit Center  252 is at  -7.193664 -1.702344 -1.607898
      ESP Fit Center  253 is at  -6.828623 -2.334613 -1.607898
      ESP Fit Center  254 is at  -6.340102 -2.877170 -1.607898
      ESP Fit Center  255 is at  -5.749453 -3.306302 -1.607898
      ESP Fit Center  256 is at  -5.082490 -3.603253 -1.607898
      ESP Fit Center  257 is at  -4.368362 -3.755045 -1.607898
      ESP Fit Center  258 is at  -3.638280 -3.755045 -1.607898
      ESP Fit Center  259 is at  -2.924152 -3.603253 -1.607898
      ESP Fit Center  260 is at  -2.257189 -3.306302 -1.607898
      ESP Fit Center  261 is at  -1.666540 -2.877170 -1.607898
      ESP Fit Center  262 is at  -0.860366 -0.281912 -2.261411
      ESP Fit Center  263 is at  -0.945085  0.442904 -2.261411
      ESP Fit Center  264 is at  -1.194674  1.128644 -2.261411
      ESP Fit Center  265 is at  -1.595678  1.738341 -2.261411
      ESP Fit Center  266 is at  -2.126478  2.239125 -2.261411
      ESP Fit Center  267 is at  -2.758460  2.604000 -2.261411
      ESP Fit Center  268 is at  -3.457553  2.813295 -2.261411
      ESP Fit Center  269 is at  -4.186068  2.855726 -2.261411
      ESP Fit Center  270 is at  -4.904731  2.729006 -2.261411
      ESP Fit Center  271 is at  -5.574799  2.439967 -2.261411
      ESP Fit Center  272 is at  -6.160148  2.004191 -2.261411
      ESP Fit Center  273 is at  -6.629222  1.445170 -2.261411
      ESP Fit Center  274 is at  -6.956733  0.793042 -2.261411
      ESP Fit Center  275 is at  -7.125025  0.082963 -2.261411
      ESP Fit Center  276 is at  -7.125025 -0.646787 -2.261411
      ESP Fit Center  277 is at  -6.956733 -1.356866 -2.261411
      ESP Fit Center  278 is at  -6.629222 -2.008994 -2.261411
      ESP Fit Center  279 is at  -6.160148 -2.568015 -2.261411
      ESP Fit Center  280 is at  -5.574799 -3.003791 -2.261411
      ESP Fit Center  281 is at  -4.904731 -3.292830 -2.261411
      ESP Fit Center  282 is at  -4.186068 -3.419550 -2.261411
      ESP Fit Center  283 is at  -3.457553 -3.377118 -2.261411
      ESP Fit Center  284 is at  -2.758460 -3.167824 -2.261411
      ESP Fit Center  285 is at  -2.126478 -2.802949 -2.261411
      ESP Fit Center  286 is at  -1.595678 -2.302164 -2.261411
      ESP Fit Center  287 is at  -1.194674 -1.692468 -2.261411
      ESP Fit Center  288 is at  -0.945085 -1.006727 -2.261411
      ESP Fit Center  289 is at  -1.330458 -0.281912 -2.834219
      ESP Fit Center  290 is at  -1.429575  0.439218 -2.834219
      ESP Fit Center  291 is at  -1.719575  1.106865 -2.834219
      ESP Fit Center  292 is at  -2.178950  1.671513 -2.834219
      ESP Fit Center  293 is at  -2.773630  2.091284 -2.834219
      ESP Fit Center  294 is at  -3.459511  2.335046 -2.834219
      ESP Fit Center  295 is at  -4.185724  2.384721 -2.834219
      ESP Fit Center  296 is at  -4.898409  2.236623 -2.834219
      ESP Fit Center  297 is at  -5.544709  1.901737 -2.834219
      ESP Fit Center  298 is at  -6.076692  1.404900 -2.834219
      ESP Fit Center  299 is at  -6.454902  0.782960 -2.834219
      ESP Fit Center  300 is at  -6.651290  0.082043 -2.834219
      ESP Fit Center  301 is at  -6.651290 -0.645867 -2.834219
      ESP Fit Center  302 is at  -6.454902 -1.346784 -2.834219
      ESP Fit Center  303 is at  -6.076692 -1.968724 -2.834219
      ESP Fit Center  304 is at  -5.544709 -2.465561 -2.834219
      ESP Fit Center  305 is at  -4.898409 -2.800447 -2.834219
      ESP Fit Center  306 is at  -4.185724 -2.948544 -2.834219
      ESP Fit Center  307 is at  -3.459511 -2.898870 -2.834219
      ESP Fit Center  308 is at  -2.773630 -2.655108 -2.834219
      ESP Fit Center  309 is at  -2.178950 -2.235337 -2.834219
      ESP Fit Center  310 is at  -1.719575 -1.670689 -2.834219
      ESP Fit Center  311 is at  -1.429575 -1.003042 -2.834219
      ESP Fit Center  312 is at  -1.903266 -0.281912 -3.304310
      ESP Fit Center  313 is at  -2.029915  0.436349 -3.304310
      ESP Fit Center  314 is at  -2.394585  1.067978 -3.304310
      ESP Fit Center  315 is at  -2.953293  1.536790 -3.304310
      ESP Fit Center  316 is at  -3.638650  1.786239 -3.304310
      ESP Fit Center  317 is at  -4.367992  1.786239 -3.304310
      ESP Fit Center  318 is at  -5.053349  1.536790 -3.304310
      ESP Fit Center  319 is at  -5.612057  1.067978 -3.304310
      ESP Fit Center  320 is at  -5.976728  0.436349 -3.304310
      ESP Fit Center  321 is at  -6.103377 -0.281912 -3.304310
      ESP Fit Center  322 is at  -5.976728 -1.000173 -3.304310
      ESP Fit Center  323 is at  -5.612057 -1.631801 -3.304310
      ESP Fit Center  324 is at  -5.053349 -2.100613 -3.304310
      ESP Fit Center  325 is at  -4.367992 -2.350063 -3.304310
      ESP Fit Center  326 is at  -3.638650 -2.350063 -3.304310
      ESP Fit Center  327 is at  -2.953293 -2.100613 -3.304310
      ESP Fit Center  328 is at  -2.394585 -1.631801 -3.304310
      ESP Fit Center  329 is at  -2.029915 -1.000173 -3.304310
      ESP Fit Center  330 is at  -2.556778 -0.281912 -3.653620
      ESP Fit Center  331 is at  -2.750578  0.441360 -3.653620
      ESP Fit Center  332 is at  -3.280049  0.970831 -3.653620
      ESP Fit Center  333 is at  -4.003321  1.164632 -3.653620
      ESP Fit Center  334 is at  -4.726593  0.970831 -3.653620
      ESP Fit Center  335 is at  -5.256064  0.441360 -3.653620
      ESP Fit Center  336 is at  -5.449865 -0.281912 -3.653620
      ESP Fit Center  337 is at  -5.256064 -1.005184 -3.653620
      ESP Fit Center  338 is at  -4.726593 -1.534655 -3.653620
      ESP Fit Center  339 is at  -4.003321 -1.728455 -3.653620
      ESP Fit Center  340 is at  -3.280049 -1.534655 -3.653620
      ESP Fit Center  341 is at  -2.750578 -1.005184 -3.653620
      ESP Fit Center  342 is at  -3.265880 -0.281912 -3.868723
      ESP Fit Center  343 is at  -3.634600  0.356731 -3.868723
      ESP Fit Center  344 is at  -4.372042  0.356731 -3.868723
      ESP Fit Center  345 is at  -4.740763 -0.281912 -3.868723
      ESP Fit Center  346 is at  -4.372042 -0.920555 -3.868723
      ESP Fit Center  347 is at  -3.634600 -0.920555 -3.868723
      ESP Fit Center  348 is at  -4.003321 -0.281912 -3.941355
      ESP Fit Center  349 is at   0.075907 -2.565999  0.371605
      ESP Fit Center  350 is at   0.732645 -3.043148  0.371605
      ESP Fit Center  351 is at  -0.087438 -2.880071 -0.302023
      ESP Fit Center  352 is at   0.557732 -3.325400 -0.302023
      ESP Fit Center  353 is at   1.335956 -3.419894 -0.302023
      ESP Fit Center  354 is at   2.068953 -3.141905 -0.302023
      ESP Fit Center  355 is at  -0.087438 -2.880071 -1.049693
      ESP Fit Center  356 is at   0.557732 -3.325400 -1.049693
      ESP Fit Center  357 is at   1.335956 -3.419894 -1.049693
      ESP Fit Center  358 is at   2.068953 -3.141905 -1.049693
      ESP Fit Center  359 is at   0.075907 -2.565999 -1.723321
      ESP Fit Center  360 is at   0.732645 -3.043148 -1.723321
      ESP Fit Center  361 is at   1.544419 -3.043148 -1.723321
      ESP Fit Center  362 is at   2.201157 -2.565999 -1.723321
      ESP Fit Center  363 is at   0.409607 -1.793957 -2.189486
      ESP Fit Center  364 is at   0.774070 -2.425224 -2.189486
      ESP Fit Center  365 is at   1.502994 -2.425224 -2.189486
      ESP Fit Center  366 is at   1.138532 -1.793957 -2.355858
      ESP Fit Center  367 is at   6.108842 -0.977477 -1.352766
      ESP Fit Center  368 is at   5.401384 -2.325425 -1.352766
      ESP Fit Center  369 is at   5.921233 -1.738637 -1.352766
      ESP Fit Center  370 is at   6.108842 -0.977477 -2.100436
      ESP Fit Center  371 is at   5.921233 -0.216317 -2.100436
      ESP Fit Center  372 is at   3.890163 -2.508920 -2.100436
      ESP Fit Center  373 is at   4.668387 -2.603414 -2.100436
      ESP Fit Center  374 is at   5.401384 -2.325425 -2.100436
      ESP Fit Center  375 is at   5.921233 -1.738637 -2.100436
      ESP Fit Center  376 is at   5.784440 -0.977477 -2.774064
      ESP Fit Center  377 is at   5.533588 -0.205435 -2.774064
      ESP Fit Center  378 is at   4.876850  0.271714 -2.774064
      ESP Fit Center  379 is at   4.065076  0.271714 -2.774064
      ESP Fit Center  380 is at   3.408338 -1.749519 -2.774064
      ESP Fit Center  381 is at   4.065076 -2.226668 -2.774064
      ESP Fit Center  382 is at   4.876850 -2.226668 -2.774064
      ESP Fit Center  383 is at   5.533588 -1.749519 -2.774064
      ESP Fit Center  384 is at   5.199888 -0.977477 -3.240229
      ESP Fit Center  385 is at   4.835425 -0.346210 -3.240229
      ESP Fit Center  386 is at   4.106501 -0.346210 -3.240229
      ESP Fit Center  387 is at   3.742038 -0.977477 -3.240229
      ESP Fit Center  388 is at   4.106501 -1.608744 -3.240229
      ESP Fit Center  389 is at   4.835425 -1.608744 -3.240229
      ESP Fit Center  390 is at   4.470963 -0.977477 -3.406601
      ESP Fit Center  391 is at   4.512009 -2.902557  1.871840
      ESP Fit Center  392 is at   4.513255 -3.404329  1.313147
      ESP Fit Center  393 is at   5.769913 -1.674687 -0.786853
      ESP Fit Center  394 is at   5.612682 -2.414400 -0.786853
      ESP Fit Center  395 is at   2.478943 -1.274411  3.724876
      ESP Fit Center  396 is at   3.236034 -1.274411  3.604964
      ESP Fit Center  397 is at   2.857489 -0.618750  3.604964
      ESP Fit Center  398 is at   2.100397 -0.618750  3.604964
      ESP Fit Center  399 is at   1.721851 -1.274411  3.604964
      ESP Fit Center  400 is at   2.100397 -1.930071  3.604964
      ESP Fit Center  401 is at   2.857489 -1.930071  3.604964
      ESP Fit Center  402 is at   3.919017 -1.274411  3.256968
      ESP Fit Center  403 is at   3.726083 -0.554374  3.256968
      ESP Fit Center  404 is at   3.198980 -0.027270  3.256968
      ESP Fit Center  405 is at   2.478943  0.165663  3.256968
      ESP Fit Center  406 is at   1.758906 -0.027270  3.256968
      ESP Fit Center  407 is at   1.231802 -0.554374  3.256968
      ESP Fit Center  408 is at   1.038869 -1.274411  3.256968
      ESP Fit Center  409 is at   1.231802 -1.994448  3.256968
      ESP Fit Center  410 is at   1.758906 -2.521551  3.256968
      ESP Fit Center  411 is at   2.478943 -2.714485  3.256968
      ESP Fit Center  412 is at   3.198980 -2.521551  3.256968
      ESP Fit Center  413 is at   3.726083 -1.994448  3.256968
      ESP Fit Center  414 is at   4.461034 -1.274411  2.714950
      ESP Fit Center  415 is at   4.310157 -0.515897  2.714950
      ESP Fit Center  416 is at   3.880493  0.127140  2.714950
      ESP Fit Center  417 is at   3.237456  0.556803  2.714950
      ESP Fit Center  418 is at   2.478943  0.707681  2.714950
      ESP Fit Center  419 is at   1.720429  0.556803  2.714950
      ESP Fit Center  420 is at   1.077392  0.127140  2.714950
      ESP Fit Center  421 is at   0.647729 -0.515897  2.714950
      ESP Fit Center  422 is at   0.496851 -1.274411  2.714950
      ESP Fit Center  423 is at   0.647729 -2.032925  2.714950
      ESP Fit Center  424 is at   1.077392 -2.675961  2.714950
      ESP Fit Center  425 is at   1.720429 -3.105625  2.714950
      ESP Fit Center  426 is at   2.478943 -3.256503  2.714950
      ESP Fit Center  427 is at   3.237456 -3.105625  2.714950
      ESP Fit Center  428 is at   3.880493 -2.675961  2.714950
      ESP Fit Center  429 is at   4.310157 -2.032925  2.714950
      ESP Fit Center  430 is at   4.317710  0.156759  2.031968
      ESP Fit Center  431 is at   3.753380  0.676261  2.031968
      ESP Fit Center  432 is at   3.050946  0.984377  2.031968
      ESP Fit Center  433 is at   2.286526  1.047719  2.031968
      ESP Fit Center  434 is at   0.180634 -0.890891  2.031968
      ESP Fit Center  435 is at   0.180634 -1.657931  2.031968
      ESP Fit Center  436 is at   0.429691 -2.383410  2.031968
      ESP Fit Center  437 is at   0.900817 -2.988713  2.031968
      ESP Fit Center  438 is at   1.542957 -3.408244  2.031968
      ESP Fit Center  439 is at   2.286526 -3.596541  2.031968
      ESP Fit Center  440 is at   3.050946 -3.533199  2.031968
      ESP Fit Center  441 is at   3.753380 -3.225083  2.031968
      ESP Fit Center  442 is at   3.374028  1.006230  1.274876
      ESP Fit Center  443 is at   0.056307 -1.639564  1.274876
      ESP Fit Center  444 is at   0.271569 -2.337426  1.274876
      ESP Fit Center  445 is at   0.682966 -2.940834  1.274876
      ESP Fit Center  446 is at   1.253943 -3.396173  1.274876
      ESP Fit Center  447 is at   1.933767 -3.662984  1.274876
      ESP Fit Center  448 is at   2.662032 -3.717560  1.274876
      ESP Fit Center  449 is at   3.374028 -3.555052  1.274876
      ESP Fit Center  450 is at   0.900817 -2.988713  0.517784
      ESP Fit Center  451 is at   1.542957 -3.408244  0.517784
      ESP Fit Center  452 is at   2.286526 -3.596541  0.517784
      ESP Fit Center  453 is at   4.326310  1.290042  1.585528
      ESP Fit Center  454 is at   3.967189  0.668026  1.585528
      ESP Fit Center  455 is at   3.390255  1.048324  1.220867
      ESP Fit Center  456 is at   5.902347  2.019549 -1.437826
      ESP Fit Center  457 is at   6.035285  0.668026 -1.996519
      ESP Fit Center  458 is at   5.821000  1.397812 -1.996519
      ESP Fit Center  459 is at   5.403673  0.668026 -2.361181
      ESP Fit Center  460 is at   5.044552  1.290042 -2.361181
      ESP Fit Center  461 is at   4.685431  0.668026 -2.487826
      ESP Fit Center  462 is at   4.016807  1.800829  1.317100
      ESP Fit Center  463 is at   4.391837  2.450400  1.167904
      ESP Fit Center  464 is at   3.641777  2.450400  1.167904
      ESP Fit Center  465 is at   3.266747  1.800829  1.167904
      ESP Fit Center  466 is at   5.217057  2.493794  0.743029
      ESP Fit Center  467 is at   4.709772  3.001079  0.743029
      ESP Fit Center  468 is at   4.016807  3.186758  0.743029
      ESP Fit Center  469 is at   3.323842  3.001079  0.743029
      ESP Fit Center  470 is at   5.228471  3.146519  0.107159
      ESP Fit Center  471 is at   4.576376  3.523006  0.107159
      ESP Fit Center  472 is at   3.827526  3.601713  0.107159
      ESP Fit Center  473 is at   3.111405  3.369031  0.107159
      ESP Fit Center  474 is at   5.844452  2.508863 -0.642900
      ESP Fit Center  475 is at   5.465264  3.121273 -0.642900
      ESP Fit Center  476 is at   4.890454  3.555349 -0.642900
      ESP Fit Center  477 is at   4.197653  3.752468 -0.642900
      ESP Fit Center  478 is at   3.480427  3.686007 -0.642900
      ESP Fit Center  479 is at   2.835643  3.364943 -0.642900
      ESP Fit Center  480 is at   5.671059  2.537349 -1.392960
      ESP Fit Center  481 is at   5.228471  3.146519 -1.392960
      ESP Fit Center  482 is at   4.576376  3.523006 -1.392960
      ESP Fit Center  483 is at   3.827526  3.601713 -1.392960
      ESP Fit Center  484 is at   3.111405  3.369031 -1.392960
      ESP Fit Center  485 is at   5.402736  1.800829 -2.028829
      ESP Fit Center  486 is at   5.217057  2.493794 -2.028829
      ESP Fit Center  487 is at   4.709772  3.001079 -2.028829
      ESP Fit Center  488 is at   4.016807  3.186758 -2.028829
      ESP Fit Center  489 is at   3.323842  3.001079 -2.028829
      ESP Fit Center  490 is at   4.766866  1.800829 -2.453704
      ESP Fit Center  491 is at   4.391837  2.450400 -2.453704
      ESP Fit Center  492 is at   3.641777  2.450400 -2.453704
      ESP Fit Center  493 is at   4.391837  1.151258 -2.453704
      ESP Fit Center  494 is at   4.016807  1.800829 -2.602900
      ESP Fit Center  495 is at  -0.331153  3.223509  2.787669
      ESP Fit Center  496 is at   0.397772  3.223509  2.621297
      ESP Fit Center  497 is at   0.033309  3.854776  2.621297
      ESP Fit Center  498 is at  -0.695615  3.854776  2.621297
      ESP Fit Center  499 is at  -1.060078  3.223509  2.621297
      ESP Fit Center  500 is at   0.982324  3.223509  2.155132
      ESP Fit Center  501 is at   0.731472  3.995551  2.155132
      ESP Fit Center  502 is at   0.074734  4.472700  2.155132
      ESP Fit Center  503 is at  -0.737040  4.472700  2.155132
      ESP Fit Center  504 is at  -1.393778  3.995551  2.155132
      ESP Fit Center  505 is at   1.306726  3.223509  1.481504
      ESP Fit Center  506 is at   1.119117  3.984669  1.481504
      ESP Fit Center  507 is at   0.599268  4.571457  1.481504
      ESP Fit Center  508 is at  -0.133729  4.849446  1.481504
      ESP Fit Center  509 is at  -0.911953  4.754953  1.481504
      ESP Fit Center  510 is at  -1.557123  4.309624  1.481504
[...]
 3804 Fit      -0.000059
 3805 Fit       0.000056
 3806 Fit       0.000242
 3807 Fit       0.000470
 3808 Fit       0.000710
 3809 Fit       0.000935
 3810 Fit       0.001126
 3811 Fit       0.001271
 3812 Fit       0.001368
 3813 Fit       0.001425
 3814 Fit       0.001459
 3815 Fit       0.001497
 3816 Fit       0.001576
 3817 Fit       0.001741
 3818 Fit       0.002042
 3819 Fit       0.002541
 3820 Fit       0.003302
 3821 Fit       0.004406
 3822 Fit       0.005948
 3823 Fit       0.008053
 3824 Fit       0.010894
 3825 Fit       0.014723
 3826 Fit       0.019934
 3827 Fit       0.005023
 3828 Fit       0.002905
 3829 Fit       0.002163
 3830 Fit       0.002162
 3831 Fit       0.002345
 3832 Fit       0.002408
 3833 Fit       0.002258
 3834 Fit       0.001918
 3835 Fit       0.001465
 3836 Fit       0.000984
 3837 Fit       0.000547
 3838 Fit       0.000204
 3839 Fit      -0.000019
 3840 Fit      -0.000116
 3841 Fit      -0.000096
 3842 Fit       0.000023
 3843 Fit       0.000214
 3844 Fit       0.000447
 3845 Fit       0.000692
 3846 Fit       0.000925
 3847 Fit       0.001125
 3848 Fit       0.001283
 3849 Fit       0.001397
 3850 Fit       0.001479
 3851 Fit       0.001549
 3852 Fit       0.001638
 3853 Fit       0.001789
 3854 Fit       0.002051
 3855 Fit       0.002482
 3856 Fit       0.003148
 3857 Fit       0.004124
 3858 Fit       0.005499
 3859 Fit       0.007380
 3860 Fit       0.009903
 3861 Fit       0.013243
 3862 Fit       0.017625
 3863 Fit       0.023320
 3864 Fit       0.008896
 3865 Fit       0.005317
 3866 Fit       0.003314
 3867 Fit       0.002380
 3868 Fit       0.002023
 3869 Fit       0.001858
 3870 Fit       0.001673
 3871 Fit       0.001396
 3872 Fit       0.001040
 3873 Fit       0.000660
 3874 Fit       0.000313
 3875 Fit       0.000046
 3876 Fit      -0.000114
 3877 Fit      -0.000158
 3878 Fit      -0.000095
 3879 Fit       0.000056
 3880 Fit       0.000268
 3881 Fit       0.000511
 3882 Fit       0.000757
 3883 Fit       0.000983
 3884 Fit       0.001174
 3885 Fit       0.001327
 3886 Fit       0.001450
 3887 Fit       0.001564
 3888 Fit       0.001703
 3889 Fit       0.001909
 3890 Fit       0.002239
 3891 Fit       0.002754
 3892 Fit       0.003526
 3893 Fit       0.004635
 3894 Fit       0.006169
 3895 Fit       0.008230
 3896 Fit       0.010931
 3897 Fit       0.014389
 3898 Fit       0.018700
 3899 Fit       0.023901
 3900 Fit       0.029939
 3901 Fit       0.024669
 3902 Fit       0.018487
 3903 Fit       0.012271
 3904 Fit       0.007763
 3905 Fit       0.004867
 3906 Fit       0.003166
 3907 Fit       0.002243
 3908 Fit       0.001731
 3909 Fit       0.001373
 3910 Fit       0.001039
 3911 Fit       0.000696
 3912 Fit       0.000367
 3913 Fit       0.000093
 3914 Fit      -0.000092
 3915 Fit      -0.000168
 3916 Fit      -0.000135
 3917 Fit      -0.000005
 3918 Fit       0.000194
 3919 Fit       0.000434
 3920 Fit       0.000683
 3921 Fit       0.000919
 3922 Fit       0.001126
 3923 Fit       0.001304
 3924 Fit       0.001467
 3925 Fit       0.001647
 3926 Fit       0.001886
 3927 Fit       0.002242
 3928 Fit       0.002783
 3929 Fit       0.003583
 3930 Fit       0.004722
 3931 Fit       0.006282
 3932 Fit       0.008344
 3933 Fit       0.010967
 3934 Fit       0.014170
 3935 Fit       0.017878
 3936 Fit       0.021849
 3937 Fit       0.025478
 3938 Fit       0.027197
 3939 Fit       0.017058
 3940 Fit       0.013494
 3941 Fit       0.009566
 3942 Fit       0.006378
 3943 Fit       0.004169
 3944 Fit       0.002769
 3945 Fit       0.001907
 3946 Fit       0.001337
 3947 Fit       0.000902
 3948 Fit       0.000535
 3949 Fit       0.000230
 3950 Fit       0.000006
 3951 Fit      -0.000115
 3952 Fit      -0.000124
 3953 Fit      -0.000031
 3954 Fit       0.000144
 3955 Fit       0.000371
 3956 Fit       0.000618
 3957 Fit       0.000860
 3958 Fit       0.001087
 3959 Fit       0.001300
 3960 Fit       0.001524
 3961 Fit       0.001799
 3962 Fit       0.002181
 3963 Fit       0.002738
 3964 Fit       0.003546
 3965 Fit       0.004678
 3966 Fit       0.006199
 3967 Fit       0.008148
 3968 Fit       0.010509
 3969 Fit       0.013168
 3970 Fit       0.015847
 3971 Fit       0.017994
 3972 Fit       0.018689
 3973 Fit       0.012154
 3974 Fit       0.009822
 3975 Fit       0.007145
 3976 Fit       0.004865
 3977 Fit       0.003215
 3978 Fit       0.002109
 3979 Fit       0.001364
 3980 Fit       0.000834
 3981 Fit       0.000440
 3982 Fit       0.000162
 3983 Fit       0.000006
 3984 Fit      -0.000025
 3985 Fit       0.000060
 3986 Fit       0.000234
 3987 Fit       0.000464
 3988 Fit       0.000719
 3989 Fit       0.000978
 3990 Fit       0.001243
 3991 Fit       0.001539
 3992 Fit       0.001913
 3993 Fit       0.002435
 3994 Fit       0.003180
 3995 Fit       0.004220
 3996 Fit       0.005605
 3997 Fit       0.007332
 3998 Fit       0.009301
 3999 Fit       0.011268
 4000 Fit       0.012783
 4001 Fit       0.013232
 4002 Fit       0.008779
 4003 Fit       0.007160
 4004 Fit       0.005251
 4005 Fit       0.003581
 4006 Fit       0.002337
 4007 Fit       0.001470
 4008 Fit       0.000873
 4009 Fit       0.000472
 4010 Fit       0.000239
 4011 Fit       0.000163
 4012 Fit       0.000225
 4013 Fit       0.000394
 4014 Fit       0.000633
 4015 Fit       0.000912
 4016 Fit       0.001226
 4017 Fit       0.001600
 4018 Fit       0.002090
 4019 Fit       0.002768
 4020 Fit       0.003704
 4021 Fit       0.004928
 4022 Fit       0.006388
 4023 Fit       0.007893
 4024 Fit       0.009082
 4025 Fit       0.009483
 4026 Fit       0.006351
 4027 Fit       0.005111
 4028 Fit       0.003628
 4029 Fit       0.002364
 4030 Fit       0.001456
 4031 Fit       0.000870
 4032 Fit       0.000549
 4033 Fit       0.000457
 4034 Fit       0.000551
 4035 Fit       0.000782
 4036 Fit       0.001111
 4037 Fit       0.001539
 4038 Fit       0.002115
 4039 Fit       0.002911
 4040 Fit       0.003963
 4041 Fit       0.005182
 4042 Fit       0.006276
 4043 Fit       0.006785
 4044 Fit       0.004560
 4045 Fit       0.003542
 4046 Fit       0.002348
 4047 Fit       0.001458
 4048 Fit       0.000982
 4049 Fit       0.000880
 4050 Fit       0.001075
 4051 Fit       0.001498
 4052 Fit       0.002149
 4053 Fit       0.003052
 4054 Fit       0.004074
 4055 Fit       0.004755
 4056 Fit       0.003229
 4057 Fit       0.002305
 4058 Fit       0.001547
 4059 Fit       0.001549
 4060 Fit       0.002194
 4061 Fit       0.003093
 4062 Fit       0.002249
 4063 Fit       0.018004
 4064 Fit       0.021848
 4065 Fit       0.022983
 4066 Fit       0.024666
 4067 Fit       0.025782
 4068 Fit       0.028585
 4069 Fit       0.027131
 4070 Fit       0.028764
 4071 Fit       0.032356
 4072 Fit       0.031377
 4073 Fit       0.036136
 4074 Fit       0.034863
 4075 Fit       0.036236
 4076 Fit       0.002922
 4077 Fit       0.001637
 4078 Fit       0.023963
 4079 Fit       0.019154
 4080 Fit       0.014072
 4081 Fit       0.008234
 4082 Fit       0.008942
 4083 Fit       0.005994
 4084 Fit       0.033534
 4085 Fit       0.028895
 4086 Fit       0.024799
 4087 Fit       0.020902
 4088 Fit       0.016973
 4089 Fit       0.012901
 4090 Fit       0.014318
 4091 Fit       0.012717
 4092 Fit       0.013365
 4093 Fit       0.033685
 4094 Fit       0.028558
 4095 Fit       0.024446
 4096 Fit       0.020736
 4097 Fit       0.017264
 4098 Fit       0.018718
 4099 Fit       0.018110
 4100 Fit       0.020452
 4101 Fit       0.026062
 4102 Fit       0.036171
 4103 Fit       0.029803
 4104 Fit       0.025107
 4105 Fit       0.021367
 4106 Fit       0.022901
 4107 Fit       0.023973
 4108 Fit       0.029757
 4109 Fit       0.031042
 4110 Fit       0.025922
 4111 Fit       0.027708
 4112 Fit       0.007762
 4113 Fit       0.009767
 4114 Fit       0.009432
 4115 Fit       0.010686
 4116 Fit       0.012260
 4117 Fit       0.009751
 4118 Fit       0.012158
 4119 Fit       0.008480
 4120 Fit       0.002620
 4121 Fit       0.015968
 4122 Fit       0.012743
 4123 Fit       0.008195
 4124 Fit       0.018888
 4125 Fit      -0.007474
 4126 Fit      -0.006938
 4127 Fit      -0.008386
 4128 Fit      -0.008414
 4129 Fit      -0.007726
 4130 Fit      -0.006956
 4131 Fit      -0.006223
 4132 Fit      -0.006196
 4133 Fit      -0.008382
 4134 Fit      -0.009718
 4135 Fit      -0.009693
 4136 Fit      -0.008973
 4137 Fit      -0.008229
 4138 Fit      -0.007680
 4139 Fit      -0.007287
 4140 Fit      -0.006717
 4141 Fit      -0.005716
 4142 Fit      -0.004713
 4143 Fit      -0.004694
 4144 Fit      -0.005367
 4145 Fit      -0.008427
 4146 Fit      -0.010742
 4147 Fit      -0.011450
 4148 Fit      -0.010810
 4149 Fit      -0.009709
 4150 Fit      -0.008824
 4151 Fit      -0.008159
 4152 Fit      -0.007607
 4153 Fit      -0.007246
 4154 Fit      -0.007058
 4155 Fit      -0.006750
 4156 Fit      -0.005950
 4157 Fit      -0.004606
 4158 Fit      -0.003164
 4159 Fit      -0.002404
 4160 Fit      -0.003072
 4161 Fit      -0.004572
 4162 Fit      -0.008751
 4163 Fit      -0.012157
 4164 Fit      -0.013641
 4165 Fit      -0.013234
 4166 Fit      -0.011636
 4167 Fit      -0.009881
 4168 Fit      -0.008877
 4169 Fit      -0.008577
 4170 Fit      -0.008235
 4171 Fit      -0.006626
 4172 Fit      -0.006516
 4173 Fit      -0.006423
 4174 Fit      -0.005952
 4175 Fit      -0.004865
 4176 Fit      -0.003245
 4177 Fit      -0.001486
 4178 Fit      -0.000169
 4179 Fit       0.000075
 4180 Fit      -0.001333
 4181 Fit      -0.003864
 4182 Fit      -0.010068
 4183 Fit      -0.015187
 4184 Fit      -0.017344
 4185 Fit      -0.016731
 4186 Fit      -0.014373
 4187 Fit      -0.011141
 4188 Fit      -0.008344
 4189 Fit      -0.005396
 4190 Fit      -0.005356
 4191 Fit      -0.004843
 4192 Fit      -0.003664
 4193 Fit      -0.001906
 4194 Fit       0.000101
 4195 Fit       0.001899
 4196 Fit       0.003015
 4197 Fit       0.002912
 4198 Fit       0.000812
 4199 Fit      -0.018622
 4200 Fit      -0.013444
 4201 Fit      -0.003345
 4202 Fit      -0.003497
 4203 Fit      -0.003174
 4204 Fit      -0.002141
 4205 Fit      -0.000434
 4206 Fit       0.001676
 4207 Fit       0.003786
 4208 Fit       0.005509
 4209 Fit       0.006584
 4210 Fit      -0.000317
 4211 Fit      -0.000480
 4212 Fit       0.000098
 4213 Fit       0.001487
 4214 Fit       0.003506
 4215 Fit       0.005770
 4216 Fit       0.007816
 4217 Fit       0.004055
 4218 Fit       0.003726
 4219 Fit       0.004358
 4220 Fit       0.005932
 4221 Fit       0.008188
 4222 Fit       0.010703
 4223 Fit       0.009349
 4224 Fit       0.009316
 4225 Fit       0.010616
 4226 Fit       0.015869
 4227 Fit       0.016019
 4228 Fit      -0.027735
 4229 Fit      -0.015664
 4230 Fit      -0.000597
 4231 Fit      -0.004912
 4232 Fit      -0.007434
 4233 Fit       0.007934
 4234 Fit       0.002980
 4235 Fit       0.015310
 4236 Fit       0.011276
 4237 Fit      -0.015792
 4238 Fit      -0.025829
 4239 Fit      -0.019266
 4240 Fit      -0.026714
 4241 Fit      -0.020814
 4242 Fit      -0.013931
 4243 Fit      -0.031182
 4244 Fit      -0.025748
 4245 Fit      -0.020471
 4246 Fit      -0.014117
 4247 Fit      -0.032932
 4248 Fit      -0.027846
 4249 Fit      -0.023410
 4250 Fit      -0.018471
 4251 Fit      -0.012348
 4252 Fit      -0.004502
 4253 Fit      -0.031274
 4254 Fit      -0.027030
 4255 Fit      -0.023149
 4256 Fit      -0.018718
 4257 Fit      -0.013256
 4258 Fit      -0.006534
 4259 Fit       0.001333
 4260 Fit      -0.027706
 4261 Fit      -0.024581
 4262 Fit      -0.021232
 4263 Fit      -0.017091
 4264 Fit      -0.011900
 4265 Fit      -0.005666
 4266 Fit       0.001151
 4267 Fit      -0.024798
 4268 Fit      -0.023046
 4269 Fit      -0.020853
 4270 Fit      -0.017813
 4271 Fit      -0.013685
 4272 Fit      -0.008435
 4273 Fit      -0.002290
 4274 Fit       0.004070
 4275 Fit      -0.018215
 4276 Fit      -0.017569
 4277 Fit      -0.015463
 4278 Fit      -0.011859
 4279 Fit      -0.006823
 4280 Fit      -0.000648
 4281 Fit      -0.010172
 4282 Fit      -0.012014
 4283 Fit      -0.011177
 4284 Fit      -0.008019
 4285 Fit      -0.002861
 4286 Fit       0.003743
 4287 Fit      -0.004110
 4288 Fit      -0.005068
 4289 Fit      -0.002036
 4290 Fit       0.004008
 4291 Fit       0.006957
 4292 Fit       0.002673
 4293 Fit       0.007351
 4294 Fit       0.017827
 4295 Fit       0.011847
 4296 Fit       0.004832
 4297 Fit       0.005779
 4298 Fit       0.004559
 4299 Fit       0.006593
 4300 Fit       0.007904
 4301 Fit       0.008337
 4302 Fit       0.004218
 4303 Fit       0.006055
 4304 Fit       0.007745
 4305 Fit       0.009049
 4306 Fit       0.009990
 4307 Fit       0.010733
 4308 Fit       0.004171
 4309 Fit       0.005456
 4310 Fit       0.007120
 4311 Fit       0.008619
 4312 Fit       0.009824
 4313 Fit       0.010835
 4314 Fit       0.011928
 4315 Fit       0.005156
 4316 Fit       0.006848
 4317 Fit       0.008437
 4318 Fit       0.009730
 4319 Fit       0.010825
 4320 Fit       0.012033
 4321 Fit       0.014019
 4322 Fit       0.005045
 4323 Fit       0.006620
 4324 Fit       0.008140
 4325 Fit       0.009380
 4326 Fit       0.010444
 4327 Fit       0.011665
 4328 Fit       0.005396
 4329 Fit       0.006531
 4330 Fit       0.007753
 4331 Fit       0.008778
 4332 Fit       0.009687
 4333 Fit       0.010815
 4334 Fit       0.006581
 4335 Fit       0.007399
 4336 Fit      -0.007064
 4337 Fit      -0.001590
 4338 Fit      -0.012313
 4339 Fit      -0.006763
 4340 Fit      -0.000343
 4341 Fit      -0.006742
 4342 Fit       0.001027
 4343 Fit      -0.001769
 4344 Fit       0.011803
 4345 Fit       0.012114
 4346 Fit       0.011948
 4347 Fit       0.014305
 4348 Fit       0.014496
 4349 Fit       0.014419
 4350 Fit       0.014032
 4351 Fit       0.013355
 4352 Fit       0.018698
 4353 Fit       0.017656
 4354 Fit       0.016901
 4355 Fit       0.016136
 4356 Fit       0.015251
 4357 Fit       0.014211
 4358 Fit       0.023429
 4359 Fit       0.021150
 4360 Fit       0.019753
 4361 Fit       0.018708
 4362 Fit       0.017805
 4363 Fit       0.017012
 4364 Fit       0.028936
 4365 Fit       0.024947
 4366 Fit       0.022727
 4367 Fit       0.021413
 4368 Fit       0.020755
 4369 Fit       0.021054
 4370 Fit       0.031449
 4371 Fit       0.027102
 4372 Fit       0.025314
 4373 Fit       0.025839
 4374 Fit       0.033982
 4375 Fit      -0.001527
 4376 Fit      -0.003643
 4377 Fit      -0.009592
 4378 Fit       0.004635
 4379 Fit       0.001545
 4380 Fit      -0.006407
 4381 Fit      -0.014624
 4382 Fit       0.006524
 4383 Fit       0.004057
 4384 Fit      -0.000119
 4385 Fit      -0.009613
 4386 Fit       0.006582
 4387 Fit       0.003218
 4388 Fit      -0.001905
 4389 Fit       0.007561
 4390 Fit       0.003466
 4391 Fit      -0.002745
 4392 Fit       0.004619
 4393 Fit      -0.002436
 4394 Fit       0.000160
 4395 Fit       0.011565
 4396 Fit       0.037527
 4397 Fit       0.015220
 4398 Fit       0.013759
 4399 Fit       0.013409
 4400 Fit       0.021450
 4401 Fit       0.018856
 4402 Fit       0.018305
 4403 Fit       0.018051
 4404 Fit       0.018416
 4405 Fit       0.027479
 4406 Fit       0.024008
 4407 Fit       0.022770
 4408 Fit       0.007650
 4409 Fit       0.006816
 4410 Fit       0.010690
 4411 Fit       0.012621
 4412 Fit       0.014908
 4413 Fit       0.035440
 4414 Fit       0.036154
 4415 Fit       0.036651
 4416 Fit       0.037596
 4417 Fit       0.020787
 4418 Fit       0.022926
 4419 Fit       0.026389
 4420 Fit       0.030059
 4421 Fit       0.032751
 4422 Fit       0.034259
 4423 Fit       0.035139
 4424 Fit       0.035991
 4425 Fit       0.032093
 4426 Fit       0.028499
 4427 Fit       0.025373
 4428 Fit       0.023900
 4429 Fit       0.024192
 4430 Fit       0.026258
 4431 Fit       0.029298
 4432 Fit       0.031884
 4433 Fit       0.033390
 4434 Fit       0.034122
 4435 Fit       0.034029
 4436 Fit       0.030632
 4437 Fit       0.027899
 4438 Fit       0.027021
 4439 Fit       0.028824
 4440 Fit       0.031202
 4441 Fit       0.032044
 4442 Fit       0.029709
 4443 Fit      -0.022339
 4444 Fit      -0.024601
 4445 Fit      -0.026201
 4446 Fit      -0.024073
 4447 Fit      -0.019781
 4448 Fit      -0.026500
 4449 Fit      -0.028650
 4450 Fit      -0.029154
 4451 Fit      -0.027905
 4452 Fit      -0.025024
 4453 Fit      -0.016656
 4454 Fit      -0.022591
 4455 Fit      -0.027841
 4456 Fit      -0.029987
 4457 Fit      -0.031183
 4458 Fit      -0.031378
 4459 Fit      -0.030438
 4460 Fit      -0.028185
 4461 Fit      -0.019569
 4462 Fit      -0.024556
 4463 Fit      -0.028548
 4464 Fit      -0.030619
 4465 Fit      -0.032055
 4466 Fit      -0.032857
 4467 Fit      -0.032976
 4468 Fit      -0.032398
 4469 Fit      -0.031050
 4470 Fit      -0.015215
 4471 Fit      -0.021526
 4472 Fit      -0.025669
 4473 Fit      -0.028574
 4474 Fit      -0.030572
 4475 Fit      -0.032096
 4476 Fit      -0.033173
 4477 Fit      -0.033810
 4478 Fit      -0.034114
 4479 Fit      -0.034395
 4480 Fit      -0.017121
 4481 Fit      -0.022350
 4482 Fit      -0.025951
 4483 Fit      -0.027864
 4484 Fit      -0.029884
 4485 Fit      -0.031470
 4486 Fit      -0.032675
 4487 Fit      -0.033566
 4488 Fit      -0.034399
 4489 Fit      -0.009452
 4490 Fit      -0.016765
 4491 Fit      -0.021747
 4492 Fit      -0.025261
 4493 Fit      -0.026334
 4494 Fit      -0.028405
 4495 Fit      -0.030023
 4496 Fit      -0.031278
 4497 Fit      -0.032320
 4498 Fit      -0.033624
 4499 Fit      -0.007667
 4500 Fit      -0.014915
 4501 Fit      -0.020009
 4502 Fit      -0.023643
 4503 Fit      -0.023848
 4504 Fit      -0.026016
 4505 Fit      -0.027642
 4506 Fit      -0.028877
 4507 Fit      -0.030009
 4508 Fit      -0.003265
 4509 Fit      -0.011265
 4510 Fit      -0.016921
 4511 Fit      -0.020935
 4512 Fit      -0.020206
 4513 Fit      -0.022617
 4514 Fit      -0.024246
 4515 Fit      -0.025389
 4516 Fit      -0.026715
 4517 Fit      -0.004116
 4518 Fit      -0.011600
 4519 Fit      -0.016703
 4520 Fit      -0.015130
 4521 Fit      -0.017866
 4522 Fit      -0.019326
 4523 Fit      -0.003392
 4524 Fit      -0.010587
 4525 Fit      -0.008251
 4526 Fit      -0.011281
 4527 Fit      -0.001692
 -----------------------------------------------------------------
 Leave Link  602 at Fri Jan 17 11:57:36 2014, MaxMem=   235929600 cpu:         1.8

 Test job not archived.
 1\1\GINC-G42\SP\RHF\Gen\C10H10I1N1O2S1\KOLAR\17-Jan-2014\0\\# hf/gen p
 seudo=read pop=(mk, readradii) iop(6/33=2,6/41=5,6/42=2)\\na resp\\0,1
 \C,0,-0.497927,2.210195,0.753168\C,0,0.588283,1.380648,0.488311\C,0,0.
 378654,0.072689,0.031117\C,0,-0.928975,-0.391116,-0.149469\C,0,-2.0067
 81,0.450868,0.123901\C,0,-1.808138,1.753115,0.573982\I,0,-4.003321,-0.
 281912,-0.161355\C,0,1.537506,-0.858848,-0.261494\H,0,1.138532,-1.7939
 57,-0.675858\C,0,3.937035,-0.611104,-0.840786\H,0,4.470963,-0.977477,-
 1.726601\C,0,3.95126,-1.674687,0.263147\S,0,2.478943,-1.274411,1.27487
 6\C,0,4.685431,0.668026,-0.387826\O,0,4.016807,1.800829,-0.6429\H,0,-0
 .331153,3.223509,1.107669\H,0,1.600134,1.742031,0.642455\H,0,-1.099434
 ,-1.403838,-0.500863\H,0,-2.649735,2.403986,0.783887\H,0,3.873547,-2.6
 85848,-0.148539\H,0,4.854574,-1.594799,0.870406\N,0,2.53797,-0.28141,-
 1.196416\H,0,3.145054,1.495789,-1.00379\H,0,2.319819,-0.572879,-2.1455
 44\O,0,5.784039,0.632487,0.11305\\Version=AM64L-G09RevD.01\State=1-A\H
 F=-997.3391325\RMSD=4.449e-09\Dipole=-0.8611102,-0.9614118,-1.2342784\
 Quadrupole=-17.077183,9.5835236,7.4936594,-13.5870787,-7.9238657,4.960
 7127\PG=C01 [X(C10H10I1N1O2S1)]\\@


 THERE ARE TWO THINGS THAT EVERYBODY THINKS THEY CAN DO BETTER THAN
 ANYONE ELSE - PUNCH THE FIRE, AND EDIT A DAILY PAPER.
 -- UNCLE ESEK, "CENTURY MAGAZINE", 1885
 Job cpu time:       0 days  0 hours  3 minutes  3.9 seconds.
 File lengths (MBytes):  RWF=     30 Int=      0 D2E=      0 Chk=      3 Scr=      1
 Normal termination of Gaussian 09 at Fri Jan 17 11:57:36 2014.
183.48user 0.41system 3:04.22elapsed 99%CPU (0avgtext+0avgdata 603440maxresident)k
8inputs+129496outputs (0major+171501minor)pagefaults 0swaps
