Linux g59 2.6.38.6-client #1 SMP Tue Jun 12 11:27:21 CEST 2012 x86_64 GNU/Linux
Thu Jan 16 22:36:46 CET 2014

 Entering Gaussian System, Link 0=/usr/local/programs/common/gaussian/gaussian09_d01/arch/amd64-pgi_10.4.0-acml/g09/g09
 Initial command:
 /usr/local/programs/common/gaussian/gaussian09_d01/arch/amd64-pgi_10.4.0-acml/g09/l1.exe "/scratch/kolar/g09_25742/Gau-1730.inp" -scrdir="/scratch/kolar/g09_25742/"
 Entering Link 1 = /usr/local/programs/common/gaussian/gaussian09_d01/arch/amd64-pgi_10.4.0-acml/g09/l1.exe PID=      1735.
  
 Copyright (c) 1988,1990,1992,1993,1995,1998,2003,2009,2013,
            Gaussian, Inc.  All Rights Reserved.
  
 This is part of the Gaussian(R) 09 program.  It is based on
 the Gaussian(R) 03 system (copyright 2003, Gaussian, Inc.),
 the Gaussian(R) 98 system (copyright 1998, Gaussian, Inc.),
 the Gaussian(R) 94 system (copyright 1995, Gaussian, Inc.),
 the Gaussian 92(TM) system (copyright 1992, Gaussian, Inc.),
 the Gaussian 90(TM) system (copyright 1990, Gaussian, Inc.),
 the Gaussian 88(TM) system (copyright 1988, Gaussian, Inc.),
 the Gaussian 86(TM) system (copyright 1986, Carnegie Mellon
 University), and the Gaussian 82(TM) system (copyright 1983,
 Carnegie Mellon University). Gaussian is a federally registered
 trademark of Gaussian, Inc.
  
 This software contains proprietary and confidential information,
 including trade secrets, belonging to Gaussian, Inc.
  
 This software is provided under written license and may be
 used, copied, transmitted, or stored only in accord with that
 written license.
  
 The following legend is applicable only to US Government
 contracts under FAR:
  
                    RESTRICTED RIGHTS LEGEND
  
 Use, reproduction and disclosure by the US Government is
 subject to restrictions as set forth in subparagraphs (a)
 and (c) of the Commercial Computer Software - Restricted
 Rights clause in FAR 52.227-19.
  
 Gaussian, Inc.
 340 Quinnipiac St., Bldg. 40, Wallingford CT 06492
  
  
 ---------------------------------------------------------------
 Warning -- This program may not be used in any manner that
 competes with the business of Gaussian, Inc. or will provide
 assistance to any competitor of Gaussian, Inc.  The licensee
 of this program is prohibited from giving any competitor of
 Gaussian, Inc. access to this program.  By using this program,
 the user acknowledges that Gaussian, Inc. is engaged in the
 business of creating and licensing software in the field of
 computational chemistry and represents and warrants to the
 licensee that it is not a competitor of Gaussian, Inc. and that
 it will not use this program in any manner prohibited above.
 ---------------------------------------------------------------
  

 Cite this work as:
 Gaussian 09, Revision D.01,
 M. J. Frisch, G. W. Trucks, H. B. Schlegel, G. E. Scuseria, 
 M. A. Robb, J. R. Cheeseman, G. Scalmani, V. Barone, B. Mennucci, 
 G. A. Petersson, H. Nakatsuji, M. Caricato, X. Li, H. P. Hratchian, 
 A. F. Izmaylov, J. Bloino, G. Zheng, J. L. Sonnenberg, M. Hada, 
 M. Ehara, K. Toyota, R. Fukuda, J. Hasegawa, M. Ishida, T. Nakajima, 
 Y. Honda, O. Kitao, H. Nakai, T. Vreven, J. A. Montgomery, Jr., 
 J. E. Peralta, F. Ogliaro, M. Bearpark, J. J. Heyd, E. Brothers, 
 K. N. Kudin, V. N. Staroverov, T. Keith, R. Kobayashi, J. Normand, 
 K. Raghavachari, A. Rendell, J. C. Burant, S. S. Iyengar, J. Tomasi, 
 M. Cossi, N. Rega, J. M. Millam, M. Klene, J. E. Knox, J. B. Cross, 
 V. Bakken, C. Adamo, J. Jaramillo, R. Gomperts, R. E. Stratmann, 
 O. Yazyev, A. J. Austin, R. Cammi, C. Pomelli, J. W. Ochterski, 
 R. L. Martin, K. Morokuma, V. G. Zakrzewski, G. A. Voth, 
 P. Salvador, J. J. Dannenberg, S. Dapprich, A. D. Daniels, 
 O. Farkas, J. B. Foresman, J. V. Ortiz, J. Cioslowski, 
 and D. J. Fox, Gaussian, Inc., Wallingford CT, 2013.
 
 ******************************************
 Gaussian 09:  AM64L-G09RevD.01 24-Apr-2013
                16-Jan-2014 
 ******************************************
 %mem=1800mb
 -----------------------------------------
 # hf/gen pop=mk iop(6/33=2,6/41=5,6/42=2)
 -----------------------------------------
 1/38=1/1;
 2/12=2,17=6,18=5,40=1/2;
 3/5=7,11=9,16=1,25=1,30=1/1,2,3;
 4//1;
 5/5=2,38=5/2;
 6/7=2,8=2,9=2,10=2,15=8,20=1,28=1,33=2,41=5,42=2/1,2;
 99/5=1,9=1/99;
 -------
 na resp
 -------
 Symbolic Z-matrix:
 Charge =  0 Multiplicity = 1
 6                    -1.79776   1.70687  -0.17198 
 6                    -0.56769   2.36124  -0.23604 
 6                     0.61458   1.63248  -0.15059 
 6                     0.55817   0.23534   0.00203 
 6                    -0.66415  -0.43161   0.07664 
 6                    -1.83253   0.32182  -0.01375 
 35                   -3.51739  -0.56807   0.08342 
 7                     1.80239  -0.43105   0.05552 
 6                     2.98504   0.25307   0.17641 
 7                     4.02595  -0.50603   0.09919 
 8                     3.49167  -1.81708  -0.08832 
 6                     2.11934  -1.78169  -0.12194 
 8                     1.39196  -2.72952  -0.2681 
 6                     2.9198    1.72589   0.43054 
 8                     1.81593   2.29186  -0.28316 
 1                    -2.72073   2.27107  -0.23935 
 1                    -0.51072   3.43759  -0.3599 
 1                    -0.68842  -1.50859   0.1804 
 1                     2.80312   1.91343   1.50802 
 1                     3.82185   2.22593   0.07692 
 
                          Input orientation:                          
 ---------------------------------------------------------------------
 Center     Atomic      Atomic             Coordinates (Angstroms)
 Number     Number       Type             X           Y           Z
 ---------------------------------------------------------------------
      1          6           0       -1.797760    1.706873   -0.171977
      2          6           0       -0.567689    2.361236   -0.236043
      3          6           0        0.614579    1.632482   -0.150594
      4          6           0        0.558165    0.235339    0.002025
      5          6           0       -0.664154   -0.431614    0.076641
      6          6           0       -1.832530    0.321815   -0.013753
      7         35           0       -3.517392   -0.568068    0.083419
      8          7           0        1.802393   -0.431045    0.055522
      9          6           0        2.985037    0.253067    0.176411
     10          7           0        4.025954   -0.506029    0.099188
     11          8           0        3.491667   -1.817077   -0.088319
     12          6           0        2.119336   -1.781691   -0.121942
     13          8           0        1.391959   -2.729519   -0.268096
     14          6           0        2.919804    1.725894    0.430541
     15          8           0        1.815933    2.291856   -0.283157
     16          1           0       -2.720725    2.271073   -0.239354
     17          1           0       -0.510719    3.437589   -0.359900
     18          1           0       -0.688417   -1.508591    0.180401
     19          1           0        2.803119    1.913429    1.508024
     20          1           0        3.821849    2.225926    0.076921
 ---------------------------------------------------------------------
                    Distance matrix (angstroms):
                    1          2          3          4          5
     1  C    0.000000
     2  C    1.394765   0.000000
     3  C    2.413580   1.391453   0.000000
     4  C    2.783177   2.417367   1.406586   0.000000
     5  C    2.433105   2.811954   2.438706   1.394438   0.000000
     6  C    1.394500   2.410078   2.779373   2.392311   1.393172
     7  Br   2.863166   4.169368   4.687256   4.154787   2.856507
     8  N    4.193274   3.674116   2.389881   1.412456   2.466637
     9  C    5.010995   4.151669   2.762026   2.433194   3.714207
    10  N    6.235873   5.425417   4.033993   3.547482   4.690752
    11  O    6.356356   5.827392   4.492324   3.581342   4.383785
    12  C    5.245591   4.939329   3.731178   2.553631   3.099993
    13  O    5.464899   5.455001   4.432288   3.091692   3.102710
    14  C    4.755923   3.607021   2.379182   2.825371   4.198195
    15  O    3.662423   2.385097   1.376807   2.427462   3.701024
    16  H    1.083848   2.154926   3.397047   3.866988   3.410844
    17  H    2.164987   1.084952   2.137409   3.395277   3.896773
    18  H    3.419652   3.894042   3.416679   2.151064   1.082236
    19  H    4.902362   3.821603   2.760372   3.181798   4.423807
    20  H    5.649015   4.402760   3.269636   3.823569   5.214091
                    6          7          8          9         10
     6  C    0.000000
     7  Br   1.907903   0.000000
     8  N    3.712716   5.321622   0.000000
     9  C    4.821809   6.554731   1.371594   0.000000
    10  N    5.917763   7.543618   2.225253   1.290619   0.000000
    11  O    5.738248   7.121547   2.189845   2.147615   1.428100
    12  C    4.478134   5.769554   1.398639   2.231298   2.304648
    13  O    4.446646   5.375608   2.357152   3.410470   3.466516
    14  C    4.975290   6.842532   2.457973   1.496014   2.512935
    15  O    4.155108   6.062829   2.743916   2.394717   3.585881
    16  H    2.153925   2.966409   5.277025   6.066377   7.303738
    17  H    3.402212   5.028111   4.526521   4.759109   6.028622
    18  H    2.167274   2.982799   2.716769   4.074030   4.820479
    19  H    5.132084   6.938025   2.933901   2.136139   3.055147
    20  H    5.967065   7.853082   3.337388   2.145303   2.739659
                   11         12         13         14         15
    11  O    0.000000
    12  C    1.373199   0.000000
    13  O    2.296442   1.203668   0.000000
    14  C    3.626139   3.639937   4.761629   0.000000
    15  O    4.441776   4.088010   5.039265   1.431157   0.000000
    16  H    7.438387   6.313863   6.474636   5.706273   4.536917
    17  H    6.610928   5.849333   6.454598   3.914484   2.594591
    18  H    4.200057   2.837159   2.453524   4.852187   4.574937
    19  H    4.115712   4.096127   5.167489   1.099888   2.079921
    20  H    4.059827   4.358795   5.529904   1.090305   2.039044
                   16         17         18         19         20
    16  H    0.000000
    17  H    2.501883   0.000000
    18  H    4.311882   4.978775   0.000000
    19  H    5.804661   4.098015   5.065928   0.000000
    20  H    6.550370   4.519965   5.856605   1.784242   0.000000
 Stoichiometry    C9H5BrN2O3
 Framework group  C1[X(C9H5BrN2O3)]
 Deg. of freedom    54
 Full point group                 C1      NOp   1
 Largest Abelian subgroup         C1      NOp   1
 Largest concise Abelian subgroup C1      NOp   1
                         Standard orientation:                         
 ---------------------------------------------------------------------
 Center     Atomic      Atomic             Coordinates (Angstroms)
 Number     Number       Type             X           Y           Z
 ---------------------------------------------------------------------
      1          6           0       -1.797760    1.706873   -0.171977
      2          6           0       -0.567689    2.361236   -0.236043
      3          6           0        0.614579    1.632482   -0.150594
      4          6           0        0.558165    0.235339    0.002025
      5          6           0       -0.664154   -0.431614    0.076641
      6          6           0       -1.832530    0.321815   -0.013753
      7         35           0       -3.517392   -0.568068    0.083419
      8          7           0        1.802393   -0.431045    0.055522
      9          6           0        2.985037    0.253067    0.176411
     10          7           0        4.025954   -0.506029    0.099188
     11          8           0        3.491667   -1.817077   -0.088319
     12          6           0        2.119336   -1.781691   -0.121942
     13          8           0        1.391959   -2.729519   -0.268096
     14          6           0        2.919804    1.725894    0.430541
     15          8           0        1.815933    2.291856   -0.283157
     16          1           0       -2.720725    2.271073   -0.239354
     17          1           0       -0.510719    3.437589   -0.359900
     18          1           0       -0.688417   -1.508591    0.180401
     19          1           0        2.803119    1.913429    1.508024
     20          1           0        3.821849    2.225926    0.076921
 ---------------------------------------------------------------------
 Rotational constants (GHZ):      0.9402048      0.2627070      0.2070013
 General basis read from cards:  (5D, 7F)
 There are   250 symmetry adapted cartesian basis functions of A   symmetry.
 There are   234 symmetry adapted basis functions of A   symmetry.
   234 basis functions,   495 primitive gaussians,   250 cartesian basis functions
    66 alpha electrons       66 beta electrons
       nuclear repulsion energy      1256.2101791746 Hartrees.
 NAtoms=   20 NActive=   20 NUniq=   20 SFac= 1.00D+00 NAtFMM=   60 NAOKFM=F Big=F
 Integral buffers will be    131072 words long.
 Raffenetti 1 integral format.
 Two-electron integral symmetry is turned on.
 One-electron integrals computed using PRISM.
 NBasis=   234 RedAO= T EigKep=  4.17D-04  NBF=   234
 NBsUse=   234 1.00D-06 EigRej= -1.00D+00 NBFU=   234
 ExpMin= 1.43D-01 ExpMax= 5.74D+05 ExpMxC= 5.74D+03 IAcc=2 IRadAn=         4 AccDes= 0.00D+00
 Harris functional with IExCor=  205 and IRadAn=       4 diagonalized for initial guess.
 HarFok:  IExCor=  205 AccDes= 0.00D+00 IRadAn=         4 IDoV= 1 UseB2=F ITyADJ=14
 ICtDFT=  3500011 ScaDFX=  1.000000  1.000000  1.000000  1.000000
 FoFCou: FMM=F IPFlag=           0 FMFlag=      100000 FMFlg1=           0
         NFxFlg=           0 DoJE=T BraDBF=F KetDBF=T FulRan=T
         wScrn=  0.000000 ICntrl=     500 IOpCl=  0 I1Cent=   200000004 NGrid=           0
         NMat0=    1 NMatS0=      1 NMatT0=    0 NMatD0=    1 NMtDS0=    0 NMtDT0=    0
 Petite list used in FoFCou.
 Requested convergence on RMS density matrix=1.00D-08 within 128 cycles.
 Requested convergence on MAX density matrix=1.00D-06.
 Requested convergence on             energy=1.00D-06.
 No special actions if energy rises.
 Integral accuracy reduced to 1.0D-05 until final iterations.
 Initial convergence to 1.0D-05 achieved.  Increase integral accuracy.
 SCF Done:  E(RHF) =  -3246.75365935     A.U. after   16 cycles
            NFock= 16  Conv=0.83D-08     -V/T= 1.9993

 **********************************************************************

            Population analysis using the SCF density.

 **********************************************************************

 Orbital symmetries:
 BldTbl:  Degeneracy threshold= 1.00D-02
       Occupied  (A) (A) (A) (A) (A) (A) (A) (A) (A) (A) (A) (A)
                 (A) (A) (A) (A) (A) (A) (A) (A) (A) (A) (A) (A)
                 (A) (A) (A) (A) (A) (A) (A) (A) (A) (A) (A) (A)
                 (A) (A) (A) (A) (A) (A) (A) (A) (A) (A) (A) (A)
                 (A) (A) (A) (A) (A) (A) (A) (A) (A) (A) (A) (A)
                 (A) (A) (A) (A) (A) (A)
       Virtual   (A) (A) (A) (A) (A) (A) (A) (A) (A) (A) (A) (A)
                 (A) (A) (A) (A) (A) (A) (A) (A) (A) (A) (A) (A)
                 (A) (A) (A) (A) (A) (A) (A) (A) (A) (A) (A) (A)
                 (A) (A) (A) (A) (A) (A) (A) (A) (A) (A) (A) (A)
                 (A) (A) (A) (A) (A) (A) (A) (A) (A) (A) (A) (A)
                 (A) (A) (A) (A) (A) (A) (A) (A) (A) (A) (A) (A)
                 (A) (A) (A) (A) (A) (A) (A) (A) (A) (A) (A) (A)
                 (A) (A) (A) (A) (A) (A) (A) (A) (A) (A) (A) (A)
                 (A) (A) (A) (A) (A) (A) (A) (A) (A) (A) (A) (A)
                 (A) (A) (A) (A) (A) (A) (A) (A) (A) (A) (A) (A)
                 (A) (A) (A) (A) (A) (A) (A) (A) (A) (A) (A) (A)
                 (A) (A) (A) (A) (A) (A) (A) (A) (A) (A) (A) (A)
                 (A) (A) (A) (A) (A) (A) (A) (A) (A) (A) (A) (A)
                 (A) (A) (A) (A) (A) (A) (A) (A) (A) (A) (A) (A)
 The electronic state is 1-A.
 Alpha  occ. eigenvalues -- -489.85581 -64.39956 -58.56642 -58.56462 -58.56453
 Alpha  occ. eigenvalues --  -20.66678 -20.63726 -20.57470 -15.67588 -15.66428
 Alpha  occ. eigenvalues --  -11.45014 -11.37339 -11.35288 -11.34316 -11.33268
 Alpha  occ. eigenvalues --  -11.32085 -11.27925 -11.27618 -11.27325  -9.67715
 Alpha  occ. eigenvalues --   -7.49293  -7.48389  -7.48384  -3.23617  -3.23181
 Alpha  occ. eigenvalues --   -3.23179  -3.22129  -3.22129  -1.53503  -1.45875
 Alpha  occ. eigenvalues --   -1.41190  -1.33661  -1.21291  -1.18151  -1.08886
 Alpha  occ. eigenvalues --   -1.06441  -1.03055  -0.98105  -0.92200  -0.89734
 Alpha  occ. eigenvalues --   -0.84488  -0.80621  -0.77734  -0.74252  -0.72519
 Alpha  occ. eigenvalues --   -0.70583  -0.70374  -0.67966  -0.65637  -0.64225
 Alpha  occ. eigenvalues --   -0.64057  -0.61063  -0.59403  -0.57971  -0.56695
 Alpha  occ. eigenvalues --   -0.55164  -0.54545  -0.53334  -0.52061  -0.51804
 Alpha  occ. eigenvalues --   -0.46940  -0.44160  -0.42525  -0.41682  -0.36018
 Alpha  occ. eigenvalues --   -0.33425
 Alpha virt. eigenvalues --    0.09304   0.10412   0.13494   0.15125   0.20809
 Alpha virt. eigenvalues --    0.22660   0.23113   0.24953   0.27531   0.29061
 Alpha virt. eigenvalues --    0.30102   0.32069   0.33779   0.35620   0.36780
 Alpha virt. eigenvalues --    0.38754   0.40297   0.43550   0.45215   0.45892
 Alpha virt. eigenvalues --    0.49252   0.50243   0.51833   0.56397   0.61802
 Alpha virt. eigenvalues --    0.62702   0.63340   0.63708   0.64218   0.65163
 Alpha virt. eigenvalues --    0.65371   0.67287   0.67327   0.68567   0.68700
 Alpha virt. eigenvalues --    0.69717   0.71994   0.73012   0.73556   0.75040
 Alpha virt. eigenvalues --    0.75795   0.77217   0.79747   0.80564   0.81683
 Alpha virt. eigenvalues --    0.82620   0.84712   0.85585   0.87885   0.89349
 Alpha virt. eigenvalues --    0.90807   0.92383   0.93471   0.94884   0.96585
 Alpha virt. eigenvalues --    0.97758   1.01047   1.01672   1.03025   1.03796
 Alpha virt. eigenvalues --    1.04662   1.06724   1.08183   1.09033   1.09500
 Alpha virt. eigenvalues --    1.10778   1.12184   1.13130   1.16764   1.17546
 Alpha virt. eigenvalues --    1.20929   1.22175   1.23267   1.25054   1.26635
 Alpha virt. eigenvalues --    1.29445   1.32400   1.34598   1.36051   1.37090
 Alpha virt. eigenvalues --    1.40077   1.43546   1.44118   1.45633   1.49417
 Alpha virt. eigenvalues --    1.49915   1.52833   1.55398   1.58419   1.59404
 Alpha virt. eigenvalues --    1.61865   1.63307   1.64211   1.65742   1.68254
 Alpha virt. eigenvalues --    1.69809   1.71979   1.75286   1.77048   1.78518
 Alpha virt. eigenvalues --    1.80495   1.83997   1.86813   1.93813   1.97197
 Alpha virt. eigenvalues --    1.98610   2.00758   2.02760   2.05074   2.06625
 Alpha virt. eigenvalues --    2.06753   2.08607   2.09122   2.11405   2.12529
 Alpha virt. eigenvalues --    2.16092   2.18009   2.20768   2.22192   2.25441
 Alpha virt. eigenvalues --    2.26027   2.29040   2.31034   2.31727   2.34566
 Alpha virt. eigenvalues --    2.35744   2.38490   2.41525   2.42566   2.46027
 Alpha virt. eigenvalues --    2.47089   2.49390   2.50467   2.53605   2.54010
 Alpha virt. eigenvalues --    2.58280   2.58934   2.62172   2.65213   2.67700
 Alpha virt. eigenvalues --    2.70117   2.73063   2.78381   2.82269   2.86462
 Alpha virt. eigenvalues --    2.88275   2.89379   2.90435   2.96229   2.97509
 Alpha virt. eigenvalues --    3.00001   3.02165   3.05105   3.06773   3.08746
 Alpha virt. eigenvalues --    3.11850   3.13693   3.19689   3.25011   3.26389
 Alpha virt. eigenvalues --    3.30403   3.31870   3.39782   3.48394   3.56613
 Alpha virt. eigenvalues --    3.74025   3.79242   9.16464
          Condensed to atoms (all electrons):
               1          2          3          4          5          6
     1  C    4.941538   0.514903  -0.045382  -0.025513  -0.049058   0.543426
     2  C    0.514903   4.953599   0.576646  -0.042557  -0.034508  -0.043171
     3  C   -0.045382   0.576646   4.512133   0.517773  -0.030872  -0.025739
     4  C   -0.025513  -0.042557   0.517773   4.700587   0.522337  -0.037521
     5  C   -0.049058  -0.034508  -0.030872   0.522337   5.015390   0.514279
     6  C    0.543426  -0.043171  -0.025739  -0.037521   0.514279   4.811425
     7  Br  -0.061843   0.002756   0.000455   0.002108  -0.063323   0.292629
     8  N    0.000227   0.004356  -0.039980   0.139469  -0.044996   0.002442
     9  C   -0.000017   0.000206  -0.011836  -0.031007   0.001326  -0.000008
    10  N    0.000000  -0.000007  -0.000165   0.004316  -0.000152   0.000001
    11  O    0.000000   0.000000  -0.000194   0.003244  -0.000005   0.000000
    12  C    0.000006  -0.000012   0.002091  -0.022018  -0.001363   0.000239
    13  O    0.000001  -0.000001   0.000142   0.000825  -0.002917   0.000324
    14  C   -0.000046   0.000237  -0.043359   0.003519   0.000247  -0.000015
    15  O    0.002873  -0.042944   0.207535  -0.054238   0.004173  -0.000178
    16  H    0.380433  -0.025248   0.001740   0.000067   0.002612  -0.028067
    17  H   -0.024137   0.374465  -0.027709   0.003041   0.000024   0.001929
    18  H    0.001925   0.000079   0.001371  -0.019045   0.360443  -0.020872
    19  H   -0.000017   0.000243  -0.000893   0.003819   0.000031  -0.000012
    20  H    0.000002  -0.000017   0.002601  -0.000448   0.000009   0.000000
               7          8          9         10         11         12
     1  C   -0.061843   0.000227  -0.000017   0.000000   0.000000   0.000006
     2  C    0.002756   0.004356   0.000206  -0.000007   0.000000  -0.000012
     3  C    0.000455  -0.039980  -0.011836  -0.000165  -0.000194   0.002091
     4  C    0.002108   0.139469  -0.031007   0.004316   0.003244  -0.022018
     5  C   -0.063323  -0.044996   0.001326  -0.000152  -0.000005  -0.001363
     6  C    0.292629   0.002442  -0.000008   0.000001   0.000000   0.000239
     7  Br  34.943526  -0.000072   0.000001   0.000000   0.000000  -0.000010
     8  N   -0.000072   7.587172   0.299361  -0.063464  -0.105715   0.282784
     9  C    0.000001   0.299361   4.539832   0.551370  -0.070087  -0.057926
    10  N    0.000000  -0.063464   0.551370   6.631384   0.142663  -0.054891
    11  O    0.000000  -0.105715  -0.070087   0.142663   8.364429   0.266433
    12  C   -0.000010   0.282784  -0.057926  -0.054891   0.266433   3.821278
    13  O   -0.000003  -0.073821  -0.000872   0.002328  -0.050491   0.635410
    14  C    0.000000  -0.052532   0.313988  -0.034054   0.003033   0.000973
    15  O    0.000001  -0.012710  -0.026282   0.001270  -0.000027  -0.000340
    16  H   -0.001366   0.000002   0.000000   0.000000   0.000000   0.000000
    17  H   -0.000083  -0.000083   0.000019   0.000000   0.000000   0.000001
    18  H   -0.001155  -0.004371  -0.000055  -0.000012   0.000068   0.001426
    19  H    0.000000  -0.003400  -0.052612   0.000327  -0.000032  -0.000253
    20  H    0.000000   0.003053  -0.039243   0.000399  -0.000054   0.000009
              13         14         15         16         17         18
     1  C    0.000001  -0.000046   0.002873   0.380433  -0.024137   0.001925
     2  C   -0.000001   0.000237  -0.042944  -0.025248   0.374465   0.000079
     3  C    0.000142  -0.043359   0.207535   0.001740  -0.027709   0.001371
     4  C    0.000825   0.003519  -0.054238   0.000067   0.003041  -0.019045
     5  C   -0.002917   0.000247   0.004173   0.002612   0.000024   0.360443
     6  C    0.000324  -0.000015  -0.000178  -0.028067   0.001929  -0.020872
     7  Br  -0.000003   0.000000   0.000001  -0.001366  -0.000083  -0.001155
     8  N   -0.073821  -0.052532  -0.012710   0.000002  -0.000083  -0.004371
     9  C   -0.000872   0.313988  -0.026282   0.000000   0.000019  -0.000055
    10  N    0.002328  -0.034054   0.001270   0.000000   0.000000  -0.000012
    11  O   -0.050491   0.003033  -0.000027   0.000000   0.000000   0.000068
    12  C    0.635410   0.000973  -0.000340   0.000000   0.000001   0.001426
    13  O    8.064828  -0.000055   0.000000   0.000000   0.000000   0.009930
    14  C   -0.000055   4.843400   0.200029   0.000001  -0.000030  -0.000004
    15  O    0.000000   0.200029   8.494487  -0.000032  -0.000262  -0.000018
    16  H    0.000000   0.000001  -0.000032   0.424888  -0.001519  -0.000065
    17  H    0.000000  -0.000030  -0.000262  -0.001519   0.428115   0.000006
    18  H    0.009930  -0.000004  -0.000018  -0.000065   0.000006   0.363226
    19  H    0.000000   0.396016  -0.039052   0.000000  -0.000001   0.000000
    20  H    0.000000   0.404035  -0.027038   0.000000  -0.000009   0.000000
              19         20
     1  C   -0.000017   0.000002
     2  C    0.000243  -0.000017
     3  C   -0.000893   0.002601
     4  C    0.003819  -0.000448
     5  C    0.000031   0.000009
     6  C   -0.000012   0.000000
     7  Br   0.000000   0.000000
     8  N   -0.003400   0.003053
     9  C   -0.052612  -0.039243
    10  N    0.000327   0.000399
    11  O   -0.000032  -0.000054
    12  C   -0.000253   0.000009
    13  O    0.000000   0.000000
    14  C    0.396016   0.404035
    15  O   -0.039052  -0.027038
    16  H    0.000000   0.000000
    17  H   -0.000001  -0.000009
    18  H    0.000000   0.000000
    19  H    0.495559  -0.022765
    20  H   -0.022765   0.429986
 Mulliken charges:
               1
     1  C   -0.179322
     2  C   -0.239025
     3  C    0.403643
     4  C    0.331240
     5  C   -0.193677
     6  C   -0.011111
     7  Br  -0.113622
     8  N   -0.917723
     9  C    0.583841
    10  N   -0.181311
    11  O   -0.553265
    12  C    1.126163
    13  O   -0.585630
    14  C   -0.035384
    15  O   -0.707246
    16  H    0.246553
    17  H    0.246233
    18  H    0.307122
    19  H    0.223041
    20  H    0.249479
 Sum of Mulliken charges =   0.00000
 Mulliken charges with hydrogens summed into heavy atoms:
               1
     1  C    0.067230
     2  C    0.007209
     3  C    0.403643
     4  C    0.331240
     5  C    0.113445
     6  C   -0.011111
     7  Br  -0.113622
     8  N   -0.917723
     9  C    0.583841
    10  N   -0.181311
    11  O   -0.553265
    12  C    1.126163
    13  O   -0.585630
    14  C    0.437137
    15  O   -0.707246
 DipInt: DoE/N= T F RetVal/Mat= T F Init=T NMatP=  1 IDeriv=0 Min/MaxMlt=  0  4
 Entering OneElI...
 OneElI was handed   235767238 working-precision words.
 Multipole integrals L=0 to 4 MinM= 0 MaxM= 0.
 Requested accuracy = 0.1000D-12
 ShPair: Thresh= 1.00D-13 NBox=     0 BxSize= 0.00D+00 RnKept= 1.48D+01
         NSMCal=                 3081 NSMKep=                2611
 PrsmSu:  NPrtUS=   1 ThrOK=F IAlg=1 NPAlg=1 LenDen=           0.
 Prism:   IPart=     0 DynPar=F LinDyn=F Incr=          26.
 PRISM was handed   235508726 working-precision words and  2611 shell-pairs
 IPart=  0 NShTot=        2611 NBatch=         134 AvBLen=        19.5
 PrSmSu:  NxtVal=             27.
 Electronic moments (au):
       -132.00000000         -0.14818278          2.19879198          0.54780782
      -3359.68756833      -1063.48495341        -94.48448670          7.19031784
          2.85863592          0.21418546       1597.05401602       -484.25299841
        -18.76164456      -1964.50827236       2127.85188661       -419.03498656
       -103.92440180        -66.60351267        253.48716667       -255.41863059
    -139021.06279877     -21008.46837458       -392.12090331      -3120.49409173
        -63.77963730       3463.30123590        -69.99523640       -156.91708941
        -73.44728048     -17602.89143343      -2204.72313575       -960.19390156
       -515.48505924        128.56292164       -161.79438987
 Electronic spatial extent (au):  <R**2>=           4517.6570
 DipInt: DoE/N= F T RetVal/Mat= T F Init=T NMatP=  1 IDeriv=0 Min/MaxMlt=  0  4
 Nuclear    moments (au):
        132.00000000          0.00000000          0.00000000          0.00000000
       3282.01052047        987.71709086         22.08565310          0.00000000
         -0.00010224         -0.00000002      -1782.93536483        515.64174656
         23.18846294       1891.62140599      -2070.33504092        428.89951058
         76.51657658         51.30679544       -242.84316760        265.09153195
     128463.40787172      17340.54852410         70.50858753       3760.63927484
         67.95515780      -3235.57732450         38.09104383        135.49840206
         88.53951586      15429.48041315        496.28460218        313.36993822
        542.77941730        -78.65623620        212.72276512
 Total      moments (au):
          0.00000000         -0.14818278          2.19879198          0.54780782
        -77.67704786        -75.76786255        -72.39883360          7.19031784
          2.85853368          0.21418544       -185.88134881         31.38874816
          4.42681838        -72.88686636         57.51684569          9.86452403
        -27.40782522        -15.29671723         10.64399907          9.67290137
     -10557.65492705      -3667.91985048       -321.61231579        640.14518311
          4.17552050        227.72391140        -31.90419257        -21.41868735
         15.09223538      -2173.41102028      -1708.43853357       -646.82396334
         27.29435807         49.90668544         50.92837525
 Traceless Quadrup. (au):
         -2.39579986         -0.48661455          2.88241440          7.19031784
          2.85853368          0.21418544
 Charge=              0.0000 electrons
 Dipole moment (field-independent basis, Debye):
    X=             -0.3766    Y=              5.5888    Z=              1.3924  Tot=              5.7719
 Quadrupole moment (field-independent basis, Debye-Ang):
   XX=           -104.4783   YY=           -101.9104   ZZ=            -97.3789
   XY=              9.6712   XZ=              3.8448   YZ=              0.2881
 Traceless Quadrupole moment (field-independent basis, Debye-Ang):
   XX=             -3.2224   YY=             -0.6545   ZZ=              3.8769
   XY=              9.6712   XZ=              3.8448   YZ=              0.2881
 Octapole moment (field-independent basis, Debye-Ang**2):
  XXX=           -132.3032  YYY=             22.3413  ZZZ=              3.1508  XYY=            -51.8781
  XXY=             40.9383  XXZ=              7.0212  XZZ=            -19.5078  YZZ=            -10.8876
  YYZ=              7.5760  XYZ=              6.8848
 Hexadecapole moment (field-independent basis, Debye-Ang**3):
 XXXX=          -3976.5188 YYYY=          -1381.5144 ZZZZ=           -121.1346 XXXY=            241.1094
 XXXZ=              1.5727 YYYX=             85.7717 YYYZ=            -12.0166 ZZZX=             -8.0673
 ZZZY=              5.6845 XXYY=           -818.6108 XXZZ=           -643.4798 YYZZ=           -243.6249
 XXYZ=             10.2804 YYXZ=             18.7972 ZZXY=             19.1821
 N-N= 1.256210179175D+03 E-N=-1.024912032533D+04  KE= 3.249122921900D+03
 Entering OneElI...
 OneElI was handed   235805623 working-precision words.
 Calculate electrostatic properties
    NBasis =   234  MinDer = 0  MaxDer = 0
    NGrid  =    20  NMatD  =   1
 Requested accuracy = 0.1000D-12
 ShPair: Thresh= 1.00D-13 NBox=     0 BxSize= 0.00D+00 RnKept= 1.48D+01
         NSMCal=                 3081 NSMKep=                2336
 PrsmSu:  NPrtUS=   1 ThrOK=F IAlg=1 NPAlg=1 LenDen=           0.
 Prism:   IPart=     0 DynPar=F LinDyn=F Incr=         467.
 PRISM was handed   235571552 working-precision words and  2336 shell-pairs
 IPart=  0 NShTot=       46720 NBatch=        2342 AvBLen=        19.9
 PrSmSu:  NxtVal=            468.
 --------------------------------------------------------
       Center         ----      EFG at Nuclei      ----
                      3XX-RR        3YY-RR        3ZZ-RR
 --------------------------------------------------------
     1   Atom        0.180762      0.128907     -0.309669
     2   Atom        0.144468      0.132173     -0.276640
     3   Atom       -0.039243      0.182961     -0.143718
     4   Atom       -0.046560      0.130827     -0.084267
     5   Atom        0.093357      0.199565     -0.292922
     6   Atom       -0.129895      0.216604     -0.086709
     7   Atom       -4.787878      1.262195      3.525684
     8   Atom       -0.420522     -0.438755      0.859277
     9   Atom        0.047155      0.276554     -0.323709
    10   Atom        0.970072     -1.129546      0.159474
    11   Atom       -0.938206     -0.662308      1.600514
    12   Atom        0.111765      0.247392     -0.359157
    13   Atom        0.531573     -0.084317     -0.447256
    14   Atom       -0.097996     -0.015980      0.113976
    15   Atom       -1.707565      0.662690      1.044875
    16   Atom       -0.182814      0.018194      0.164620
    17   Atom        0.141719     -0.301929      0.160209
    18   Atom        0.136625     -0.294714      0.158088
    19   Atom        0.132254      0.124762     -0.257016
    20   Atom       -0.155790      0.050272      0.105518
 --------------------------------------------------------
                        XY            XZ            YZ
 --------------------------------------------------------
     1   Atom        0.000943     -0.000954     -0.051667
     2   Atom        0.030494      0.006687     -0.051017
     3   Atom       -0.240981      0.042176     -0.024043
     4   Atom        0.231567     -0.022178     -0.042196
     5   Atom       -0.016751      0.010521     -0.047408
     6   Atom       -0.247055      0.024944     -0.033659
     7   Atom       -4.351943      0.478683      0.254212
     8   Atom        0.029347     -0.087890     -0.157639
     9   Atom       -0.139000     -0.002924      0.089506
    10   Atom       -0.321928     -0.004836     -0.191244
    11   Atom       -1.144922     -0.222466     -0.336302
    12   Atom        0.168904      0.038341      0.079980
    13   Atom       -1.205912     -0.144487      0.033351
    14   Atom        0.201484     -0.256455      0.070721
    15   Atom       -0.313528     -0.791406      0.792885
    16   Atom        0.200351     -0.024029      0.017488
    17   Atom       -0.020968      0.002208      0.053415
    18   Atom       -0.016205     -0.000328      0.047693
    19   Atom        0.013440      0.041091     -0.067286
    20   Atom       -0.160356      0.112271      0.068479
 --------------------------------------------------------


 ---------------------------------------------------------------------------------
              Nuclear Quadrupole Coupling Constant in Principal Axis System
 ---------------------------------------------------------------------------------

       Atom             a.u.   MegaHertz   Gauss  10(-4) cm-1        Axes

              Baa    -7.0905   521.466   186.072   173.942  0.8851  0.4627 -0.0510
     7 Br(79) Bbb     3.5364  -260.084   -92.805   -86.755 -0.4628  0.8628 -0.2037
              Bcc     3.5541  -261.382   -93.267   -87.188 -0.0503  0.2039  0.9777
 
              Baa    -0.4664     2.240     0.799     0.747 -0.4253  0.9016  0.0790
     8 N(14)  Bbb    -0.4180     2.008     0.716     0.670  0.9024  0.4157  0.1134
              Bcc     0.8845    -4.248    -1.516    -1.417 -0.0694 -0.1195  0.9904
 
              Baa    -1.2042     5.784     2.064     1.929  0.1454  0.9797  0.1379
    10 N(14)  Bbb     0.1852    -0.890    -0.317    -0.297 -0.0481 -0.1322  0.9901
              Bcc     1.0190    -4.894    -1.746    -1.632  0.9882 -0.1506  0.0279
 

 ---------------------------------------------------------------------------------

 No NMR shielding tensors so no spin-rotation constants.
 Leave Link  601 at Thu Jan 16 22:40:15 2014, MaxMem=   235929600 cpu:         0.3
 FitSet:  NAtFit=    20 NAtPot=    20 NAtFrz=     0 MDM=    24 TotChg=   0.00000
 Merz-Kollman atomic radii used.
 Atom Element Radius
    1     6    1.50
    2     6    1.50
    3     6    1.50
    4     6    1.50
    5     6    1.50
    6     6    1.50
    7    35    2.30
    8     7    1.50
    9     6    1.50
   10     7    1.50
   11     8    1.40
   12     6    1.50
   13     8    1.40
   14     6    1.50
   15     8    1.40
   16     1    1.20
   17     1    1.20
   18     1    1.20
   19     1    1.20
   20     1    1.20
 Generate VDW surfaces: Layer= 5 Dens= 2 Start= 1.400 Inc= 0.179

 **********************************************************************

            Electrostatic Properties Using The SCF Density

 **********************************************************************

       Atomic Center    1 is at  -1.797760  1.706873 -0.171977
       Atomic Center    2 is at  -0.567689  2.361236 -0.236043
       Atomic Center    3 is at   0.614579  1.632482 -0.150594
       Atomic Center    4 is at   0.558165  0.235339  0.002025
       Atomic Center    5 is at  -0.664154 -0.431614  0.076641
       Atomic Center    6 is at  -1.832530  0.321815 -0.013753
       Atomic Center    7 is at  -3.517392 -0.568068  0.083419
       Atomic Center    8 is at   1.802393 -0.431045  0.055522
       Atomic Center    9 is at   2.985037  0.253067  0.176411
       Atomic Center   10 is at   4.025954 -0.506029  0.099188
       Atomic Center   11 is at   3.491667 -1.817077 -0.088319
       Atomic Center   12 is at   2.119336 -1.781691 -0.121942
       Atomic Center   13 is at   1.391959 -2.729519 -0.268096
       Atomic Center   14 is at   2.919804  1.725894  0.430541
       Atomic Center   15 is at   1.815933  2.291856 -0.283157
       Atomic Center   16 is at  -2.720725  2.271073 -0.239354
       Atomic Center   17 is at  -0.510719  3.437589 -0.359900
       Atomic Center   18 is at  -0.688417 -1.508591  0.180401
       Atomic Center   19 is at   2.803119  1.913429  1.508024
       Atomic Center   20 is at   3.821849  2.225926  0.076921
      ESP Fit Center   21 is at  -1.797760  1.706873  1.928023
      ESP Fit Center   22 is at  -1.079518  1.706873  1.801377
      ESP Fit Center   23 is at  -1.438639  2.328889  1.801377
      ESP Fit Center   24 is at  -2.156881  2.328889  1.801377
      ESP Fit Center   25 is at  -1.989864  3.042987  1.436716
      ESP Fit Center   26 is at  -2.681726  2.727024  1.436716
      ESP Fit Center   27 is at  -1.987861  3.515563  0.878023
      ESP Fit Center   28 is at  -1.989864  3.042987 -1.780670
      ESP Fit Center   29 is at  -2.156881  2.328889 -2.145332
      ESP Fit Center   30 is at  -2.516002  1.706873 -2.145332
      ESP Fit Center   31 is at  -1.438639  1.084857 -2.145332
      ESP Fit Center   32 is at  -1.797760  1.706873 -2.271977
      ESP Fit Center   33 is at  -0.567689  2.361236  1.863957
      ESP Fit Center   34 is at  -0.208568  2.983252  1.737311
      ESP Fit Center   35 is at  -0.926810  2.983252  1.737311
      ESP Fit Center   36 is at   0.567880  3.091022  1.372650
      ESP Fit Center   37 is at  -0.006940  3.589106  1.372650
      ESP Fit Center   38 is at  -0.759793  3.697350  1.372650
      ESP Fit Center   39 is at  -1.451655  3.381387  1.372650
      ESP Fit Center   40 is at   0.567880  3.091022 -1.844736
      ESP Fit Center   41 is at  -1.451655  3.381387 -1.844736
      ESP Fit Center   42 is at   0.150553  2.361236 -2.209398
      ESP Fit Center   43 is at  -0.208568  2.983252 -2.209398
      ESP Fit Center   44 is at  -0.926810  2.983252 -2.209398
      ESP Fit Center   45 is at  -1.285931  2.361236 -2.209398
      ESP Fit Center   46 is at  -0.926810  1.739220 -2.209398
      ESP Fit Center   47 is at  -0.208568  1.739220 -2.209398
      ESP Fit Center   48 is at  -0.567689  2.361236 -2.336043
      ESP Fit Center   49 is at   0.614579  1.632482  1.949406
      ESP Fit Center   50 is at   0.973700  2.254498  1.822760
      ESP Fit Center   51 is at   0.255458  2.254498  1.822760
      ESP Fit Center   52 is at  -0.103663  1.632482  1.822760
      ESP Fit Center   53 is at   1.750148  0.902696 -1.759287
      ESP Fit Center   54 is at   1.332821  1.632482 -2.123949
      ESP Fit Center   55 is at   0.973700  2.254498 -2.123949
      ESP Fit Center   56 is at   0.255458  1.010466 -2.123949
      ESP Fit Center   57 is at   0.973700  1.010466 -2.123949
      ESP Fit Center   58 is at   0.614579  1.632482 -2.250594
      ESP Fit Center   59 is at   0.558165  0.235339  2.102025
      ESP Fit Center   60 is at   0.917286  0.857355  1.975379
      ESP Fit Center   61 is at   0.199044  0.857355  1.975379
      ESP Fit Center   62 is at   0.917286 -0.386677  1.975379
      ESP Fit Center   63 is at   1.276407  0.235339 -1.971330
      ESP Fit Center   64 is at  -0.160077  0.235339 -1.971330
      ESP Fit Center   65 is at   0.199044 -0.386677 -1.971330
      ESP Fit Center   66 is at   0.917286 -0.386677 -1.971330
      ESP Fit Center   67 is at   0.558165  0.235339 -2.097975
      ESP Fit Center   68 is at  -0.664154 -0.431614  2.176641
      ESP Fit Center   69 is at   0.054088 -0.431614  2.049995
      ESP Fit Center   70 is at  -0.305033  0.190402  2.049995
      ESP Fit Center   71 is at  -1.023275  0.190402  2.049995
      ESP Fit Center   72 is at  -0.305033 -1.053630  2.049995
      ESP Fit Center   73 is at   0.471415 -1.161400  1.685334
      ESP Fit Center   74 is at  -0.856258 -1.767729 -1.532052
      ESP Fit Center   75 is at  -0.103405 -1.659484 -1.532052
      ESP Fit Center   76 is at  -1.023275 -1.053630 -1.896714
      ESP Fit Center   77 is at  -0.305033 -1.053630 -1.896714
      ESP Fit Center   78 is at  -0.664154 -0.431614 -2.023359
      ESP Fit Center   79 is at  -0.696961  1.051601  1.594940
      ESP Fit Center   80 is at  -1.114288  0.321815 -1.987108
      ESP Fit Center   81 is at  -3.517392 -0.568068  3.303419
      ESP Fit Center   82 is at  -2.800875 -0.568068  3.222687
      ESP Fit Center   83 is at  -3.159133  0.052454  3.222687
      ESP Fit Center   84 is at  -3.875651  0.052454  3.222687
      ESP Fit Center   85 is at  -4.233910 -0.568068  3.222687
      ESP Fit Center   86 is at  -3.875651 -1.188590  3.222687
      ESP Fit Center   87 is at  -3.159133 -1.188590  3.222687
      ESP Fit Center   88 is at  -2.120286 -0.568068  2.984539
      ESP Fit Center   89 is at  -2.307463  0.130485  2.984539
      ESP Fit Center   90 is at  -2.818839  0.641861  2.984539
      ESP Fit Center   91 is at  -3.517392  0.829038  2.984539
      ESP Fit Center   92 is at  -4.215945  0.641861  2.984539
      ESP Fit Center   93 is at  -4.727321  0.130485  2.984539
      ESP Fit Center   94 is at  -4.914498 -0.568068  2.984539
      ESP Fit Center   95 is at  -4.727321 -1.266621  2.984539
      ESP Fit Center   96 is at  -4.215945 -1.777997  2.984539
      ESP Fit Center   97 is at  -3.517392 -1.965174  2.984539
      ESP Fit Center   98 is at  -2.818839 -1.777997  2.984539
      ESP Fit Center   99 is at  -2.307463 -1.266621  2.984539
      ESP Fit Center  100 is at  -1.509755 -0.568068  2.600916
      ESP Fit Center  101 is at  -1.645326  0.157174  2.600916
      ESP Fit Center  102 is at  -2.033730  0.784468  2.600916
      ESP Fit Center  103 is at  -2.622511  1.229095  2.600916
      ESP Fit Center  104 is at  -3.332151  1.431005  2.600916
      ESP Fit Center  105 is at  -4.066808  1.362929  2.600916
      ESP Fit Center  106 is at  -4.727264  1.034061  2.600916
      ESP Fit Center  107 is at  -5.224320  0.488817  2.600916
      ESP Fit Center  108 is at  -5.490845 -0.199166  2.600916
      ESP Fit Center  109 is at  -5.490845 -0.936970  2.600916
      ESP Fit Center  110 is at  -5.224320 -1.624953  2.600916
      ESP Fit Center  111 is at  -4.727264 -2.170197  2.600916
      ESP Fit Center  112 is at  -4.066808 -2.499065  2.600916
      ESP Fit Center  113 is at  -3.332151 -2.567141  2.600916
      ESP Fit Center  114 is at  -2.622511 -2.365231  2.600916
      ESP Fit Center  115 is at  -2.033730 -1.920605  2.600916
      ESP Fit Center  116 is at  -1.645326 -1.293310  2.600916
      ESP Fit Center  117 is at  -1.111740  0.173977  2.091056
      ESP Fit Center  118 is at  -1.437338  0.850089  2.091056
      ESP Fit Center  119 is at  -1.947758  1.400191  2.091056
      ESP Fit Center  120 is at  -2.597647  1.775404  2.091056
      ESP Fit Center  121 is at  -3.329259  1.942390  2.091056
      ESP Fit Center  122 is at  -4.077588  1.886310  2.091056
      ESP Fit Center  123 is at  -4.776141  1.612149  2.091056
      ESP Fit Center  124 is at  -5.362848  1.144265  2.091056
      ESP Fit Center  125 is at  -5.785579  0.524233  2.091056
      ESP Fit Center  126 is at  -6.006771 -0.192855  2.091056
      ESP Fit Center  127 is at  -6.006771 -0.943282  2.091056
      ESP Fit Center  128 is at  -5.785579 -1.660369  2.091056
      ESP Fit Center  129 is at  -5.362848 -2.280401  2.091056
      ESP Fit Center  130 is at  -4.776141 -2.748285  2.091056
      ESP Fit Center  131 is at  -4.077588 -3.022447  2.091056
      ESP Fit Center  132 is at  -3.329259 -3.078526  2.091056
      ESP Fit Center  133 is at  -2.597647 -2.911540  2.091056
      ESP Fit Center  134 is at  -1.947758 -2.536327  2.091056
      ESP Fit Center  135 is at  -1.437338 -1.986225  2.091056
      ESP Fit Center  136 is at  -1.111740 -1.310113  2.091056
      ESP Fit Center  137 is at  -3.335229  2.327327  1.480525
      ESP Fit Center  138 is at  -4.061008  2.281665  1.480525
      ESP Fit Center  139 is at  -4.752629  2.056944  1.480525
      ESP Fit Center  140 is at  -5.366635  1.667283  1.480525
      ESP Fit Center  141 is at  -5.864447  1.137167  1.480525
      ESP Fit Center  142 is at  -6.214785  0.499905  1.480525
      ESP Fit Center  143 is at  -6.395636 -0.204461  1.480525
      ESP Fit Center  144 is at  -6.395636 -0.931675  1.480525
      ESP Fit Center  145 is at  -6.214785 -1.636042  1.480525
      ESP Fit Center  146 is at  -5.864447 -2.273304  1.480525
      ESP Fit Center  147 is at  -5.366635 -2.803419  1.480525
      ESP Fit Center  148 is at  -4.752629 -3.193080  1.480525
      ESP Fit Center  149 is at  -4.061008 -3.417801  1.480525
      ESP Fit Center  150 is at  -3.335229 -3.463463  1.480525
      ESP Fit Center  151 is at  -2.620897 -3.327197  1.480525
      ESP Fit Center  152 is at  -1.962894 -3.017565  1.480525
      ESP Fit Center  153 is at  -1.402567 -2.554021  1.480525
      ESP Fit Center  154 is at  -4.417744  2.439318  0.799936
      ESP Fit Center  155 is at  -5.087026  2.150618  0.799936
      ESP Fit Center  156 is at  -5.671688  1.715353  0.799936
      ESP Fit Center  157 is at  -6.140212  1.156988  0.799936
      ESP Fit Center  158 is at  -6.467339  0.505625  0.799936
      ESP Fit Center  159 is at  -6.635433 -0.203621  0.799936
      ESP Fit Center  160 is at  -6.635433 -0.932515  0.799936
      ESP Fit Center  161 is at  -6.467339 -1.641761  0.799936
      ESP Fit Center  162 is at  -6.140212 -2.293124  0.799936
      ESP Fit Center  163 is at  -5.671688 -2.851489  0.799936
      ESP Fit Center  164 is at  -5.087026 -3.286754  0.799936
      ESP Fit Center  165 is at  -4.417744 -3.575454  0.799936
      ESP Fit Center  166 is at  -3.699924 -3.702025  0.799936
      ESP Fit Center  167 is at  -2.972264 -3.659643  0.799936
      ESP Fit Center  168 is at  -2.273992 -3.450594  0.799936
      ESP Fit Center  169 is at  -1.642751 -3.086148  0.799936
      ESP Fit Center  170 is at  -4.914498  2.333052  0.083419
      ESP Fit Center  171 is at  -5.525029  1.949429  0.083419
      ESP Fit Center  172 is at  -6.034889  1.439569  0.083419
      ESP Fit Center  173 is at  -6.418512  0.829038  0.083419
      ESP Fit Center  174 is at  -6.656660  0.148449  0.083419
      ESP Fit Center  175 is at  -6.737392 -0.568068  0.083419
      ESP Fit Center  176 is at  -6.656660 -1.284586  0.083419
      ESP Fit Center  177 is at  -6.418512 -1.965174  0.083419
      ESP Fit Center  178 is at  -6.034889 -2.575705  0.083419
      ESP Fit Center  179 is at  -5.525029 -3.085565  0.083419
      ESP Fit Center  180 is at  -4.914498 -3.469188  0.083419
      ESP Fit Center  181 is at  -4.233910 -3.707336  0.083419
      ESP Fit Center  182 is at  -3.517392 -3.788068  0.083419
      ESP Fit Center  183 is at  -2.800875 -3.707336  0.083419
      ESP Fit Center  184 is at  -2.120286 -3.469188  0.083419
      ESP Fit Center  185 is at  -1.509755 -3.085565  0.083419
      ESP Fit Center  186 is at  -4.417744  2.439318 -0.633098
      ESP Fit Center  187 is at  -5.087026  2.150618 -0.633098
      ESP Fit Center  188 is at  -5.671688  1.715353 -0.633098
      ESP Fit Center  189 is at  -6.140212  1.156988 -0.633098
      ESP Fit Center  190 is at  -6.467339  0.505625 -0.633098
      ESP Fit Center  191 is at  -6.635433 -0.203621 -0.633098
      ESP Fit Center  192 is at  -6.635433 -0.932515 -0.633098
      ESP Fit Center  193 is at  -6.467339 -1.641761 -0.633098
      ESP Fit Center  194 is at  -6.140212 -2.293124 -0.633098
      ESP Fit Center  195 is at  -5.671688 -2.851489 -0.633098
      ESP Fit Center  196 is at  -5.087026 -3.286754 -0.633098
      ESP Fit Center  197 is at  -4.417744 -3.575454 -0.633098
      ESP Fit Center  198 is at  -3.699924 -3.702025 -0.633098
      ESP Fit Center  199 is at  -2.972264 -3.659643 -0.633098
      ESP Fit Center  200 is at  -2.273992 -3.450594 -0.633098
      ESP Fit Center  201 is at  -1.642751 -3.086148 -0.633098
      ESP Fit Center  202 is at  -4.061008  2.281665 -1.313687
      ESP Fit Center  203 is at  -4.752629  2.056944 -1.313687
      ESP Fit Center  204 is at  -5.366635  1.667283 -1.313687
      ESP Fit Center  205 is at  -5.864447  1.137167 -1.313687
      ESP Fit Center  206 is at  -6.214785  0.499905 -1.313687
      ESP Fit Center  207 is at  -6.395636 -0.204461 -1.313687
      ESP Fit Center  208 is at  -6.395636 -0.931675 -1.313687
      ESP Fit Center  209 is at  -6.214785 -1.636042 -1.313687
      ESP Fit Center  210 is at  -5.864447 -2.273304 -1.313687
      ESP Fit Center  211 is at  -5.366635 -2.803419 -1.313687
      ESP Fit Center  212 is at  -4.752629 -3.193080 -1.313687
      ESP Fit Center  213 is at  -4.061008 -3.417801 -1.313687
      ESP Fit Center  214 is at  -3.335229 -3.463463 -1.313687
      ESP Fit Center  215 is at  -2.620897 -3.327197 -1.313687
      ESP Fit Center  216 is at  -1.962894 -3.017565 -1.313687
      ESP Fit Center  217 is at  -1.402567 -2.554021 -1.313687
      ESP Fit Center  218 is at  -3.329259  1.942390 -1.924218
      ESP Fit Center  219 is at  -4.077588  1.886310 -1.924218
      ESP Fit Center  220 is at  -4.776141  1.612149 -1.924218
      ESP Fit Center  221 is at  -5.362848  1.144265 -1.924218
      ESP Fit Center  222 is at  -5.785579  0.524233 -1.924218
      ESP Fit Center  223 is at  -6.006771 -0.192855 -1.924218
      ESP Fit Center  224 is at  -6.006771 -0.943282 -1.924218
      ESP Fit Center  225 is at  -5.785579 -1.660369 -1.924218
      ESP Fit Center  226 is at  -5.362848 -2.280401 -1.924218
      ESP Fit Center  227 is at  -4.776141 -2.748285 -1.924218
      ESP Fit Center  228 is at  -4.077588 -3.022447 -1.924218
      ESP Fit Center  229 is at  -3.329259 -3.078526 -1.924218
      ESP Fit Center  230 is at  -2.597647 -2.911540 -1.924218
      ESP Fit Center  231 is at  -1.947758 -2.536327 -1.924218
      ESP Fit Center  232 is at  -1.437338 -1.986225 -1.924218
      ESP Fit Center  233 is at  -1.111740 -1.310113 -1.924218
      ESP Fit Center  234 is at  -1.509755 -0.568068 -2.434078
      ESP Fit Center  235 is at  -1.645326  0.157174 -2.434078
      ESP Fit Center  236 is at  -2.033730  0.784468 -2.434078
      ESP Fit Center  237 is at  -2.622511  1.229095 -2.434078
      ESP Fit Center  238 is at  -3.332151  1.431005 -2.434078
      ESP Fit Center  239 is at  -4.066808  1.362929 -2.434078
      ESP Fit Center  240 is at  -4.727264  1.034061 -2.434078
      ESP Fit Center  241 is at  -5.224320  0.488817 -2.434078
      ESP Fit Center  242 is at  -5.490845 -0.199166 -2.434078
      ESP Fit Center  243 is at  -5.490845 -0.936970 -2.434078
      ESP Fit Center  244 is at  -5.224320 -1.624953 -2.434078
      ESP Fit Center  245 is at  -4.727264 -2.170197 -2.434078
      ESP Fit Center  246 is at  -4.066808 -2.499065 -2.434078
      ESP Fit Center  247 is at  -3.332151 -2.567141 -2.434078
      ESP Fit Center  248 is at  -2.622511 -2.365231 -2.434078
      ESP Fit Center  249 is at  -2.033730 -1.920605 -2.434078
      ESP Fit Center  250 is at  -1.645326 -1.293310 -2.434078
      ESP Fit Center  251 is at  -2.120286 -0.568068 -2.817701
      ESP Fit Center  252 is at  -2.307463  0.130485 -2.817701
      ESP Fit Center  253 is at  -2.818839  0.641861 -2.817701
      ESP Fit Center  254 is at  -3.517392  0.829038 -2.817701
      ESP Fit Center  255 is at  -4.215945  0.641861 -2.817701
      ESP Fit Center  256 is at  -4.727321  0.130485 -2.817701
      ESP Fit Center  257 is at  -4.914498 -0.568068 -2.817701
      ESP Fit Center  258 is at  -4.727321 -1.266621 -2.817701
      ESP Fit Center  259 is at  -4.215945 -1.777997 -2.817701
      ESP Fit Center  260 is at  -3.517392 -1.965174 -2.817701
      ESP Fit Center  261 is at  -2.818839 -1.777997 -2.817701
      ESP Fit Center  262 is at  -2.307463 -1.266621 -2.817701
      ESP Fit Center  263 is at  -2.800875 -0.568068 -3.055849
      ESP Fit Center  264 is at  -3.159133  0.052454 -3.055849
      ESP Fit Center  265 is at  -3.875651  0.052454 -3.055849
      ESP Fit Center  266 is at  -4.233910 -0.568068 -3.055849
      ESP Fit Center  267 is at  -3.875651 -1.188590 -3.055849
      ESP Fit Center  268 is at  -3.159133 -1.188590 -3.055849
      ESP Fit Center  269 is at  -3.517392 -0.568068 -3.136581
      ESP Fit Center  270 is at   1.802393 -0.431045  2.155522
      ESP Fit Center  271 is at   1.443272  0.190971  2.028876
      ESP Fit Center  272 is at   1.084151 -0.431045  2.028876
      ESP Fit Center  273 is at   1.443272 -1.053061  2.028876
      ESP Fit Center  274 is at   2.161514 -1.053061  2.028876
      ESP Fit Center  275 is at   0.918427 -1.451197  1.664215
      ESP Fit Center  276 is at   2.520635 -0.431045 -1.917833
      ESP Fit Center  277 is at   2.161514  0.190971 -1.917833
      ESP Fit Center  278 is at   1.443272  0.190971 -1.917833
      ESP Fit Center  279 is at   1.802393 -0.431045 -2.044478
      ESP Fit Center  280 is at   2.985037  0.253067  2.276411
      ESP Fit Center  281 is at   3.703279  0.253067  2.149765
      ESP Fit Center  282 is at   2.266795  0.253067  2.149765
      ESP Fit Center  283 is at   2.625916 -0.368949  2.149765
      ESP Fit Center  284 is at   3.344158 -0.368949  2.149765
      ESP Fit Center  285 is at   4.120606  0.982853 -1.432282
      ESP Fit Center  286 is at   3.344158  0.875083 -1.796944
      ESP Fit Center  287 is at   2.625916  0.875083 -1.796944
      ESP Fit Center  288 is at   2.985037  0.253067 -1.923589
      ESP Fit Center  289 is at   4.025954 -0.506029  2.199188
      ESP Fit Center  290 is at   4.744196 -0.506029  2.072542
      ESP Fit Center  291 is at   4.385075  0.115987  2.072542
      ESP Fit Center  292 is at   3.666833 -1.128045  2.072542
      ESP Fit Center  293 is at   4.385075 -1.128045  2.072542
      ESP Fit Center  294 is at   5.375808 -0.506029  1.707881
      ESP Fit Center  295 is at   5.161523  0.223757  1.707881
      ESP Fit Center  296 is at   4.586703  0.721841  1.707881
      ESP Fit Center  297 is at   4.586703 -1.733899  1.707881
      ESP Fit Center  298 is at   5.161523 -1.235815  1.707881
      ESP Fit Center  299 is at   5.844607 -0.506029  1.149188
      ESP Fit Center  300 is at   5.687376  0.233684  1.149188
      ESP Fit Center  301 is at   5.242870  0.845494  1.149188
      ESP Fit Center  302 is at   5.242870 -1.857552  1.149188
      ESP Fit Center  303 is at   5.687376 -1.245742  1.149188
      ESP Fit Center  304 is at   6.094050 -0.506029  0.463849
      ESP Fit Center  305 is at   5.954396  0.241053  0.463849
      ESP Fit Center  306 is at   5.554295  0.887238  0.463849
      ESP Fit Center  307 is at   5.554295 -1.899297  0.463849
      ESP Fit Center  308 is at   5.954396 -1.253112  0.463849
      ESP Fit Center  309 is at   6.094050 -0.506029 -0.265473
      ESP Fit Center  310 is at   5.954396  0.241053 -0.265473
      ESP Fit Center  311 is at   5.554295  0.887238 -0.265473
      ESP Fit Center  312 is at   5.554295 -1.899297 -0.265473
      ESP Fit Center  313 is at   5.954396 -1.253112 -0.265473
      ESP Fit Center  314 is at   5.844607 -0.506029 -0.950812
      ESP Fit Center  315 is at   5.687376  0.233684 -0.950812
      ESP Fit Center  316 is at   5.242870  0.845494 -0.950812
      ESP Fit Center  317 is at   5.687376 -1.245742 -0.950812
      ESP Fit Center  318 is at   5.375808 -0.506029 -1.509505
      ESP Fit Center  319 is at   5.161523  0.223757 -1.509505
      ESP Fit Center  320 is at   4.586703  0.721841 -1.509505
      ESP Fit Center  321 is at   5.161523 -1.235815 -1.509505
      ESP Fit Center  322 is at   4.744196 -0.506029 -1.874167
      ESP Fit Center  323 is at   4.385075  0.115987 -1.874167
      ESP Fit Center  324 is at   3.666833  0.115987 -1.874167
      ESP Fit Center  325 is at   3.307712 -0.506029 -1.874167
      ESP Fit Center  326 is at   4.385075 -1.128045 -1.874167
      ESP Fit Center  327 is at   4.025954 -0.506029 -2.000812
      ESP Fit Center  328 is at   3.491667 -1.817077  1.871681
      ESP Fit Center  329 is at   3.116637 -2.466648  1.722485
      ESP Fit Center  330 is at   3.866697 -2.466648  1.722485
      ESP Fit Center  331 is at   3.491667 -3.203006  1.297610
      ESP Fit Center  332 is at   4.184632 -3.017327  1.297610
      ESP Fit Center  333 is at   4.691917 -2.510042  1.297610
      ESP Fit Center  334 is at   3.302386 -3.617961  0.661740
      ESP Fit Center  335 is at   4.051236 -3.539254  0.661740
      ESP Fit Center  336 is at   4.703331 -3.162767  0.661740
      ESP Fit Center  337 is at   5.145919 -2.553597  0.661740
      ESP Fit Center  338 is at   3.672513 -3.768716 -0.088319
      ESP Fit Center  339 is at   4.365314 -3.571597 -0.088319
      ESP Fit Center  340 is at   4.940124 -3.137521 -0.088319
      ESP Fit Center  341 is at   5.319312 -2.525111 -0.088319
      ESP Fit Center  342 is at   3.302386 -3.617961 -0.838379
      ESP Fit Center  343 is at   4.051236 -3.539254 -0.838379
      ESP Fit Center  344 is at   4.703331 -3.162767 -0.838379
      ESP Fit Center  345 is at   5.145919 -2.553597 -0.838379
      ESP Fit Center  346 is at   4.877596 -1.817077 -1.474248
      ESP Fit Center  347 is at   3.491667 -3.203006 -1.474248
      ESP Fit Center  348 is at   4.184632 -3.017327 -1.474248
      ESP Fit Center  349 is at   4.691917 -2.510042 -1.474248
      ESP Fit Center  350 is at   4.241726 -1.817077 -1.899123
      ESP Fit Center  351 is at   3.866697 -1.167507 -1.899123
      ESP Fit Center  352 is at   3.116637 -1.167507 -1.899123
      ESP Fit Center  353 is at   3.116637 -2.466648 -1.899123
      ESP Fit Center  354 is at   3.866697 -2.466648 -1.899123
      ESP Fit Center  355 is at   3.491667 -1.817077 -2.048319
      ESP Fit Center  356 is at   2.119336 -1.781691  1.978058
      ESP Fit Center  357 is at   2.837578 -1.781691  1.851412
      ESP Fit Center  358 is at   1.401094 -1.781691  1.851412
      ESP Fit Center  359 is at   1.760215 -2.403707  1.851412
      ESP Fit Center  360 is at   2.478457 -2.403707  1.851412
      ESP Fit Center  361 is at   2.680085 -3.009561  1.486751
      ESP Fit Center  362 is at   0.824160 -1.401393 -1.730635
      ESP Fit Center  363 is at   2.680085 -3.009561 -1.730635
      ESP Fit Center  364 is at   2.837578 -1.781691 -2.095297
      ESP Fit Center  365 is at   2.478457 -1.159675 -2.095297
      ESP Fit Center  366 is at   1.760215 -1.159675 -2.095297
      ESP Fit Center  367 is at   1.401094 -1.781691 -2.095297
      ESP Fit Center  368 is at   2.478457 -2.403707 -2.095297
      ESP Fit Center  369 is at   2.119336 -1.781691 -2.221942
      ESP Fit Center  370 is at   1.391959 -2.729519  1.691904
      ESP Fit Center  371 is at   0.641899 -2.729519  1.542708
      ESP Fit Center  372 is at   1.016929 -3.379090  1.542708
      ESP Fit Center  373 is at   1.766989 -3.379090  1.542708
      ESP Fit Center  374 is at   0.006030 -2.729519  1.117833
      ESP Fit Center  375 is at   0.191709 -3.422484  1.117833
      ESP Fit Center  376 is at   0.698994 -3.929769  1.117833
      ESP Fit Center  377 is at   1.391959 -4.115448  1.117833
      ESP Fit Center  378 is at   2.084924 -3.929769  1.117833
      ESP Fit Center  379 is at   2.592209 -3.422484  1.117833
      ESP Fit Center  380 is at  -0.073012 -3.793883  0.481963
      ESP Fit Center  381 is at   0.486557 -4.297721  0.481963
      ESP Fit Center  382 is at   1.202678 -4.530403  0.481963
      ESP Fit Center  383 is at   1.951528 -4.451696  0.481963
      ESP Fit Center  384 is at   2.603623 -4.075209  0.481963
      ESP Fit Center  385 is at  -0.274467 -3.761326 -0.268096
      ESP Fit Center  386 is at   0.210795 -4.293633 -0.268096
      ESP Fit Center  387 is at   0.855579 -4.614697 -0.268096
      ESP Fit Center  388 is at   1.572805 -4.681158 -0.268096
      ESP Fit Center  389 is at   2.265606 -4.484039 -0.268096
      ESP Fit Center  390 is at   2.840416 -4.049963 -0.268096
      ESP Fit Center  391 is at  -0.379275 -3.106006 -1.018156
      ESP Fit Center  392 is at  -0.073012 -3.793883 -1.018156
      ESP Fit Center  393 is at   0.486557 -4.297721 -1.018156
      ESP Fit Center  394 is at   1.202678 -4.530403 -1.018156
      ESP Fit Center  395 is at   1.951528 -4.451696 -1.018156
      ESP Fit Center  396 is at   2.603623 -4.075209 -1.018156
      ESP Fit Center  397 is at   0.698994 -1.529269 -1.654025
      ESP Fit Center  398 is at   0.191709 -2.036554 -1.654025
      ESP Fit Center  399 is at   0.006030 -2.729519 -1.654025
      ESP Fit Center  400 is at   0.191709 -3.422484 -1.654025
      ESP Fit Center  401 is at   0.698994 -3.929769 -1.654025
      ESP Fit Center  402 is at   1.391959 -4.115448 -1.654025
      ESP Fit Center  403 is at   2.084924 -3.929769 -1.654025
      ESP Fit Center  404 is at   2.592209 -3.422484 -1.654025
      ESP Fit Center  405 is at   2.142018 -2.729519 -2.078900
      ESP Fit Center  406 is at   1.016929 -2.079949 -2.078900
      ESP Fit Center  407 is at   0.641899 -2.729519 -2.078900
      ESP Fit Center  408 is at   1.016929 -3.379090 -2.078900
      ESP Fit Center  409 is at   1.766989 -3.379090 -2.078900
      ESP Fit Center  410 is at   1.391959 -2.729519 -2.228096
      ESP Fit Center  411 is at   4.738457  1.725894  1.480541
      ESP Fit Center  412 is at   3.481799  3.455536  1.480541
      ESP Fit Center  413 is at   4.581226  0.986181  1.480541
      ESP Fit Center  414 is at   3.110624  3.785168  0.795202
      ESP Fit Center  415 is at   3.110624  3.785168  0.065880
      ESP Fit Center  416 is at   3.638046  1.725894 -1.542814
      ESP Fit Center  417 is at   1.440903  2.941426  1.527647
      ESP Fit Center  418 is at   1.815933  3.677785  1.102772
      ESP Fit Center  419 is at   1.122968  3.492106  1.102772
      ESP Fit Center  420 is at   2.375502  4.014033  0.466902
      ESP Fit Center  421 is at   1.626652  4.092740  0.466902
      ESP Fit Center  422 is at   0.910531  3.860058  0.466902
      ESP Fit Center  423 is at   2.689580  4.046376 -0.283157
      ESP Fit Center  424 is at   1.996779  4.243495 -0.283157
      ESP Fit Center  425 is at   1.279553  4.177034 -0.283157
      ESP Fit Center  426 is at   3.027597  3.637545 -1.033217
      ESP Fit Center  427 is at   2.375502  4.014033 -1.033217
      ESP Fit Center  428 is at   1.626652  4.092740 -1.033217
      ESP Fit Center  429 is at   3.201862  2.291856 -1.669086
      ESP Fit Center  430 is at   3.016183  2.984821 -1.669086
      ESP Fit Center  431 is at   2.508898  3.492106 -1.669086
      ESP Fit Center  432 is at   1.815933  3.677785 -1.669086
      ESP Fit Center  433 is at   1.122968  3.492106 -1.669086
      ESP Fit Center  434 is at   3.016183  1.598891 -1.669086
      ESP Fit Center  435 is at   2.565992  2.291856 -2.093961
      ESP Fit Center  436 is at   2.190963  2.941426 -2.093961
      ESP Fit Center  437 is at   1.440903  2.941426 -2.093961
      ESP Fit Center  438 is at   1.065873  2.291856 -2.093961
      ESP Fit Center  439 is at   1.440903  1.642285 -2.093961
      ESP Fit Center  440 is at   2.190963  1.642285 -2.093961
      ESP Fit Center  441 is at   1.815933  2.291856 -2.243157
      ESP Fit Center  442 is at  -3.085187  2.902340  1.274274
      ESP Fit Center  443 is at  -2.314838  3.520264  0.808109
      ESP Fit Center  444 is at  -3.126612  3.520264  0.808109
      ESP Fit Center  445 is at  -3.783350  3.043115  0.808109
      ESP Fit Center  446 is at  -2.523301  3.897010  0.134481
      ESP Fit Center  447 is at  -3.301525  3.802516  0.134481
      ESP Fit Center  448 is at  -3.946695  3.357188  0.134481
      ESP Fit Center  449 is at  -4.311010  2.663043  0.134481
      ESP Fit Center  450 is at  -2.523301  3.897010 -0.613189
      ESP Fit Center  451 is at  -3.301525  3.802516 -0.613189
      ESP Fit Center  452 is at  -3.946695  3.357188 -0.613189
      ESP Fit Center  453 is at  -4.311010  2.663043 -0.613189
      ESP Fit Center  454 is at  -2.314838  3.520264 -1.286817
      ESP Fit Center  455 is at  -3.126612  3.520264 -1.286817
      ESP Fit Center  456 is at  -3.783350  3.043115 -1.286817
      ESP Fit Center  457 is at  -3.085187  2.902340 -1.752982
      ESP Fit Center  458 is at  -3.449650  2.271073 -1.752982
      ESP Fit Center  459 is at  -0.146257  4.068856  1.153728
      ESP Fit Center  460 is at  -0.875181  4.068856  1.153728
      ESP Fit Center  461 is at   0.551906  4.209631  0.687563
      ESP Fit Center  462 is at  -0.104832  4.686780  0.687563
      ESP Fit Center  463 is at  -0.916606  4.686780  0.687563
      ESP Fit Center  464 is at  -1.573344  4.209631  0.687563
      ESP Fit Center  465 is at   0.939551  4.198749  0.013935
      ESP Fit Center  466 is at   0.419702  4.785537  0.013935
      ESP Fit Center  467 is at  -0.313295  5.063526  0.013935
      ESP Fit Center  468 is at  -1.091519  4.969032  0.013935
      ESP Fit Center  469 is at  -1.736689  4.523704  0.013935
      ESP Fit Center  470 is at  -2.101004  3.829559  0.013935
      ESP Fit Center  471 is at   0.939551  4.198749 -0.733735
      ESP Fit Center  472 is at   0.419702  4.785537 -0.733735
      ESP Fit Center  473 is at  -0.313295  5.063526 -0.733735
      ESP Fit Center  474 is at  -1.091519  4.969032 -0.733735
      ESP Fit Center  475 is at  -1.736689  4.523704 -0.733735
      ESP Fit Center  476 is at  -2.101004  3.829559 -0.733735
      ESP Fit Center  477 is at   0.551906  4.209631 -1.407363
      ESP Fit Center  478 is at  -0.104832  4.686780 -1.407363
      ESP Fit Center  479 is at  -0.916606  4.686780 -1.407363
      ESP Fit Center  480 is at  -1.573344  4.209631 -1.407363
      ESP Fit Center  481 is at   0.218206  3.437589 -1.873528
      ESP Fit Center  482 is at  -0.146257  4.068856 -1.873528
      ESP Fit Center  483 is at  -0.875181  4.068856 -1.873528
      ESP Fit Center  484 is at  -0.510719  3.437589 -2.039900
      ESP Fit Center  485 is at  -1.052879 -2.139858  1.694029
      ESP Fit Center  486 is at  -0.323955 -2.139858  1.694029
      ESP Fit Center  487 is at  -1.094304 -2.757782  1.227864
      ESP Fit Center  488 is at  -0.282530 -2.757782  1.227864
      ESP Fit Center  489 is at  -1.269217 -3.040034  0.554236
      ESP Fit Center  490 is at  -0.490993 -3.134528  0.554236
      ESP Fit Center  491 is at  -1.269217 -3.040034 -0.193434
      ESP Fit Center  492 is at  -1.094304 -2.757782 -0.867062
      ESP Fit Center  493 is at  -1.052879 -2.139858 -1.333227
      ESP Fit Center  494 is at  -0.323955 -2.139858 -1.333227
      ESP Fit Center  495 is at   2.803119  1.913429  3.188024
      ESP Fit Center  496 is at   3.532044  1.913429  3.021652
      ESP Fit Center  497 is at   3.167581  2.544696  3.021652
      ESP Fit Center  498 is at   2.438657  2.544696  3.021652
      ESP Fit Center  499 is at   2.074194  1.913429  3.021652
      ESP Fit Center  500 is at   2.438657  1.282162  3.021652
      ESP Fit Center  501 is at   3.167581  1.282162  3.021652
      ESP Fit Center  502 is at   4.116596  1.913429  2.555487
      ESP Fit Center  503 is at   3.865744  2.685471  2.555487
      ESP Fit Center  504 is at   3.209006  3.162620  2.555487
      ESP Fit Center  505 is at   2.397232  3.162620  2.555487
      ESP Fit Center  506 is at   1.740494  2.685471  2.555487
      ESP Fit Center  507 is at   1.489642  1.913429  2.555487
      ESP Fit Center  508 is at   1.740494  1.141387  2.555487
      ESP Fit Center  509 is at   2.397232  0.664238  2.555487
      ESP Fit Center  510 is at   3.209006  0.664238  2.555487
      ESP Fit Center  511 is at   3.865744  1.141387  2.555487
      ESP Fit Center  512 is at   4.440998  1.913429  1.881859
      ESP Fit Center  513 is at   4.253389  2.674589  1.881859
      ESP Fit Center  514 is at   3.733540  3.261377  1.881859
      ESP Fit Center  515 is at   3.000543  3.539366  1.881859
      ESP Fit Center  516 is at   2.222319  3.444872  1.881859
      ESP Fit Center  517 is at   1.577149  2.999543  1.881859
      ESP Fit Center  518 is at   1.212834  2.305399  1.881859
      ESP Fit Center  519 is at   1.212834  1.521459  1.881859
      ESP Fit Center  520 is at   1.577149  0.827314  1.881859
      ESP Fit Center  521 is at   5.135326  2.225926  1.124384
      ESP Fit Center  522 is at   4.884474  2.997968  1.124384
      ESP Fit Center  523 is at   4.227736  3.475117  1.124384
      ESP Fit Center  524 is at   4.884474  1.453884  1.124384
      ESP Fit Center  525 is at   5.459728  2.225926  0.450756
      ESP Fit Center  526 is at   5.272119  2.987086  0.450756
      ESP Fit Center  527 is at   4.752270  3.573874  0.450756
      ESP Fit Center  528 is at   4.019273  3.851863  0.450756
      ESP Fit Center  529 is at   5.272119  1.464766  0.450756
      ESP Fit Center  530 is at   5.459728  2.225926 -0.296914
      ESP Fit Center  531 is at   5.272119  2.987086 -0.296914
      ESP Fit Center  532 is at   4.752270  3.573874 -0.296914
      ESP Fit Center  533 is at   4.019273  3.851863 -0.296914
      ESP Fit Center  534 is at   3.241049  3.757369 -0.296914
      ESP Fit Center  535 is at   5.272119  1.464766 -0.296914
      ESP Fit Center  536 is at   5.135326  2.225926 -0.970542
      ESP Fit Center  537 is at   4.884474  2.997968 -0.970542
      ESP Fit Center  538 is at   4.227736  3.475117 -0.970542
      ESP Fit Center  539 is at   3.415962  3.475117 -0.970542
      ESP Fit Center  540 is at   4.884474  1.453884 -0.970542
      ESP Fit Center  541 is at   4.550774  2.225926 -1.436707
      ESP Fit Center  542 is at   4.186311  2.857193 -1.436707
      ESP Fit Center  543 is at   3.457387  2.857193 -1.436707
      ESP Fit Center  544 is at   4.186311  1.594659 -1.436707
      ESP Fit Center  545 is at   3.821849  2.225926 -1.603079
      ESP Fit Center  546 is at  -1.065906  1.706873  2.080437
      ESP Fit Center  547 is at  -1.431833  2.340677  2.080437
      ESP Fit Center  548 is at  -2.163687  2.340677  2.080437
      ESP Fit Center  549 is at  -1.995872  3.084772  1.744041
      ESP Fit Center  550 is at  -2.709371  2.758928  1.744041
      ESP Fit Center  551 is at  -2.530988  3.477042  1.220091
      ESP Fit Center  552 is at  -1.995872  3.084772 -2.087995
      ESP Fit Center  553 is at  -2.709371  2.758928 -2.087995
      ESP Fit Center  554 is at  -2.163687  2.340677 -2.424391
      ESP Fit Center  555 is at  -1.431833  1.073069 -2.424391
      ESP Fit Center  556 is at  -1.797760  1.706873 -2.540305
      ESP Fit Center  557 is at  -0.567689  2.361236  2.132285
      ESP Fit Center  558 is at  -0.201762  2.995040  2.016371
      ESP Fit Center  559 is at  -0.933616  2.995040  2.016371
      ESP Fit Center  560 is at   0.010597  3.627506  1.679975
      ESP Fit Center  561 is at  -0.765801  3.739135  1.679975
      ESP Fit Center  562 is at  -1.479300  3.413291  1.679975
      ESP Fit Center  563 is at   0.787140  3.716065  1.156025
      ESP Fit Center  564 is at  -1.922518  3.716065  1.156025
      ESP Fit Center  565 is at  -1.922518  3.716065 -1.628111
      ESP Fit Center  566 is at   0.603393  3.113845 -2.152061
      ESP Fit Center  567 is at  -1.479300  3.413291 -2.152061
      ESP Fit Center  568 is at   0.164165  2.361236 -2.488457
      ESP Fit Center  569 is at  -0.201762  2.995040 -2.488457
      ESP Fit Center  570 is at  -0.933616  2.995040 -2.488457
      ESP Fit Center  571 is at  -1.299543  2.361236 -2.488457
      ESP Fit Center  572 is at  -0.933616  1.727432 -2.488457
      ESP Fit Center  573 is at  -0.201762  1.727432 -2.488457
      ESP Fit Center  574 is at  -0.567689  2.361236 -2.604371
      ESP Fit Center  575 is at   0.614579  1.632482  2.217734
      ESP Fit Center  576 is at   0.980506  2.266286  2.101820
      ESP Fit Center  577 is at   0.248652  2.266286  2.101820
      ESP Fit Center  578 is at  -0.117275  1.632482  2.101820
      ESP Fit Center  579 is at   1.192865  2.898752  1.765424
      ESP Fit Center  580 is at   1.785661  0.879873 -2.066612
      ESP Fit Center  581 is at   1.346433  1.632482 -2.403008
      ESP Fit Center  582 is at   0.980506  2.266286 -2.403008
      ESP Fit Center  583 is at   0.248652  0.998678 -2.403008
      ESP Fit Center  584 is at   0.980506  0.998678 -2.403008
      ESP Fit Center  585 is at   0.614579  1.632482 -2.518922
      ESP Fit Center  586 is at   0.558165  0.235339  2.370353
      ESP Fit Center  587 is at   0.924092  0.869143  2.254439
      ESP Fit Center  588 is at   0.192238  0.869143  2.254439
      ESP Fit Center  589 is at   1.290019  0.235339 -2.250389
      ESP Fit Center  590 is at  -0.173689  0.235339 -2.250389
      ESP Fit Center  591 is at   0.192238 -0.398465 -2.250389
      ESP Fit Center  592 is at   0.924092 -0.398465 -2.250389
      ESP Fit Center  593 is at   0.558165  0.235339 -2.366303
      ESP Fit Center  594 is at  -0.664154 -0.431614  2.444969
      ESP Fit Center  595 is at   0.067700 -0.431614  2.329055
      ESP Fit Center  596 is at  -0.298227  0.202190  2.329055
      ESP Fit Center  597 is at  -0.298227 -1.065418  2.329055
      ESP Fit Center  598 is at  -0.085868 -1.697884  1.992659
      ESP Fit Center  599 is at   0.506928 -1.184223  1.992659
      ESP Fit Center  600 is at  -0.085868 -1.697884 -1.839377
      ESP Fit Center  601 is at  -0.298227 -1.065418 -2.175773
      ESP Fit Center  602 is at  -0.664154 -0.431614 -2.291687
      ESP Fit Center  603 is at  -3.517392 -0.568068  3.714855
      ESP Fit Center  604 is at  -2.808934 -0.568068  3.645078
      ESP Fit Center  605 is at  -3.163163  0.045475  3.645078
      ESP Fit Center  606 is at  -3.871621  0.045475  3.645078
      ESP Fit Center  607 is at  -4.225850 -0.568068  3.645078
      ESP Fit Center  608 is at  -3.871621 -1.181611  3.645078
      ESP Fit Center  609 is at  -3.163163 -1.181611  3.645078
      ESP Fit Center  610 is at  -2.127702 -0.568068  3.438429
      ESP Fit Center  611 is at  -2.313885  0.126777  3.438429
      ESP Fit Center  612 is at  -2.822547  0.635439  3.438429
      ESP Fit Center  613 is at  -3.517392  0.821622  3.438429
      ESP Fit Center  614 is at  -4.212237  0.635439  3.438429
      ESP Fit Center  615 is at  -4.720899  0.126777  3.438429
      ESP Fit Center  616 is at  -4.907083 -0.568068  3.438429
      ESP Fit Center  617 is at  -4.720899 -1.262913  3.438429
      ESP Fit Center  618 is at  -4.212237 -1.771575  3.438429
      ESP Fit Center  619 is at  -3.517392 -1.957759  3.438429
      ESP Fit Center  620 is at  -2.822547 -1.771575  3.438429
      ESP Fit Center  621 is at  -2.313885 -1.262913  3.438429
      ESP Fit Center  622 is at  -1.499874 -0.568068  3.102848
      ESP Fit Center  623 is at  -1.636113  0.160743  3.102848
      ESP Fit Center  624 is at  -2.026428  0.791125  3.102848
      ESP Fit Center  625 is at  -2.618107  1.237940  3.102848
      ESP Fit Center  626 is at  -3.331239  1.440844  3.102848
      ESP Fit Center  627 is at  -4.069512  1.372432  3.102848
      ESP Fit Center  628 is at  -4.733218  1.041946  3.102848
      ESP Fit Center  629 is at  -5.232721  0.494018  3.102848
      ESP Fit Center  630 is at  -5.500558 -0.197350  3.102848
      ESP Fit Center  631 is at  -5.500558 -0.938786  3.102848
      ESP Fit Center  632 is at  -5.232721 -1.630154  3.102848
      ESP Fit Center  633 is at  -4.733218 -2.178082  3.102848
      ESP Fit Center  634 is at  -4.069512 -2.508569  3.102848
      ESP Fit Center  635 is at  -3.331239 -2.576980  3.102848
      ESP Fit Center  636 is at  -2.618107 -2.374076  3.102848
      ESP Fit Center  637 is at  -2.026428 -1.927261  3.102848
      ESP Fit Center  638 is at  -1.636113 -1.296880  3.102848
      ESP Fit Center  639 is at  -0.949579 -0.568068  2.651232
      ESP Fit Center  640 is at  -1.053593  0.155369  2.651232
      ESP Fit Center  641 is at  -1.357210  0.820197  2.651232
      ESP Fit Center  642 is at  -1.835832  1.372556  2.651232
      ESP Fit Center  643 is at  -2.450684  1.767697  2.651232
      ESP Fit Center  644 is at  -3.151954  1.973609  2.651232
      ESP Fit Center  645 is at  -3.882830  1.973609  2.651232
      ESP Fit Center  646 is at  -4.584100  1.767697  2.651232
      ESP Fit Center  647 is at  -5.198952  1.372556  2.651232
      ESP Fit Center  648 is at  -5.677574  0.820197  2.651232
      ESP Fit Center  649 is at  -5.981191  0.155369  2.651232
      ESP Fit Center  650 is at  -6.085206 -0.568068  2.651232
      ESP Fit Center  651 is at  -5.981191 -1.291505  2.651232
      ESP Fit Center  652 is at  -5.677574 -1.956333  2.651232
      ESP Fit Center  653 is at  -5.198952 -2.508692  2.651232
      ESP Fit Center  654 is at  -4.584100 -2.903833  2.651232
      ESP Fit Center  655 is at  -3.882830 -3.109745  2.651232
      ESP Fit Center  656 is at  -3.151954 -3.109745  2.651232
      ESP Fit Center  657 is at  -2.450684 -2.903833  2.651232
      ESP Fit Center  658 is at  -1.835832 -2.508692  2.651232
      ESP Fit Center  659 is at  -1.357210 -1.956333  2.651232
      ESP Fit Center  660 is at  -1.053593 -1.291505  2.651232
      ESP Fit Center  661 is at  -0.843820  0.835131  2.100937
      ESP Fit Center  662 is at  -2.446688  2.255147  2.100937
      ESP Fit Center  663 is at  -3.153440  2.429346  2.100937
      ESP Fit Center  664 is at  -3.881344  2.429346  2.100937
      ESP Fit Center  665 is at  -4.588096  2.255147  2.100937
      ESP Fit Center  666 is at  -5.232623  1.916873  2.100937
      ESP Fit Center  667 is at  -5.777467  1.434184  2.100937
      ESP Fit Center  668 is at  -6.190964  0.835131  2.100937
      ESP Fit Center  669 is at  -6.449082  0.154529  2.100937
      ESP Fit Center  670 is at  -6.536821 -0.568068  2.100937
      ESP Fit Center  671 is at  -6.449082 -1.290665  2.100937
      ESP Fit Center  672 is at  -6.190964 -1.971267  2.100937
      ESP Fit Center  673 is at  -5.777467 -2.570320  2.100937
      ESP Fit Center  674 is at  -5.232623 -3.053010  2.100937
      ESP Fit Center  675 is at  -4.588096 -3.391283  2.100937
      ESP Fit Center  676 is at  -3.881344 -3.565482  2.100937
      ESP Fit Center  677 is at  -3.153440 -3.565482  2.100937
      ESP Fit Center  678 is at  -2.446688 -3.391283  2.100937
      ESP Fit Center  679 is at  -1.802161 -3.053010  2.100937
      ESP Fit Center  680 is at  -1.257317 -2.570320  2.100937
      ESP Fit Center  681 is at  -0.843820 -1.971267  2.100937
      ESP Fit Center  682 is at  -4.060172  2.742745  1.473110
      ESP Fit Center  683 is at  -4.759209  2.548658  1.473110
      ESP Fit Center  684 is at  -5.400180  2.208837  1.473110
      ESP Fit Center  685 is at  -5.953114  1.739170  1.473110
      ESP Fit Center  686 is at  -6.392156  1.161620  1.473110
      ESP Fit Center  687 is at  -6.696778  0.503192  1.473110
      ESP Fit Center  688 is at  -6.852735 -0.205328  1.473110
      ESP Fit Center  689 is at  -6.852735 -0.930808  1.473110
      ESP Fit Center  690 is at  -6.696778 -1.639328  1.473110
[...]
 2756 Fit      -0.001558
 2757 Fit      -0.001991
 2758 Fit      -0.002516
 2759 Fit      -0.003109
 2760 Fit      -0.003726
 2761 Fit      -0.004310
 2762 Fit      -0.004796
 2763 Fit      -0.005108
 2764 Fit      -0.005126
 2765 Fit      -0.004631
 2766 Fit      -0.003228
 2767 Fit      -0.000452
 2768 Fit       0.003631
 2769 Fit       0.007866
 2770 Fit       0.009902
 2771 Fit       0.009154
 2772 Fit       0.007757
 2773 Fit       0.006050
 2774 Fit       0.004353
 2775 Fit       0.002867
 2776 Fit       0.001683
 2777 Fit       0.000807
 2778 Fit       0.000201
 2779 Fit      -0.000200
 2780 Fit      -0.000473
 2781 Fit      -0.000692
 2782 Fit      -0.000926
 2783 Fit      -0.001226
 2784 Fit      -0.001624
 2785 Fit      -0.002131
 2786 Fit      -0.002737
 2787 Fit      -0.003417
 2788 Fit      -0.004136
 2789 Fit      -0.004856
 2790 Fit      -0.005545
 2791 Fit      -0.006177
 2792 Fit      -0.006715
 2793 Fit      -0.007048
 2794 Fit      -0.006828
 2795 Fit      -0.005182
 2796 Fit      -0.000777
 2797 Fit       0.011951
 2798 Fit       0.009832
 2799 Fit       0.007533
 2800 Fit       0.005410
 2801 Fit       0.003635
 2802 Fit       0.002255
 2803 Fit       0.001246
 2804 Fit       0.000551
 2805 Fit       0.000098
 2806 Fit      -0.000193
 2807 Fit      -0.000397
 2808 Fit      -0.000587
 2809 Fit      -0.000820
 2810 Fit      -0.001139
 2811 Fit      -0.001568
 2812 Fit      -0.002115
 2813 Fit      -0.002771
 2814 Fit      -0.003514
 2815 Fit      -0.004320
 2816 Fit      -0.005167
 2817 Fit      -0.006049
 2818 Fit      -0.006987
 2819 Fit      -0.008040
 2820 Fit      -0.009298
 2821 Fit      -0.010814
 2822 Fit       0.013337
 2823 Fit       0.010116
 2824 Fit       0.007259
 2825 Fit       0.004938
 2826 Fit       0.003162
 2827 Fit       0.001870
 2828 Fit       0.000979
 2829 Fit       0.000399
 2830 Fit       0.000037
 2831 Fit      -0.000192
 2832 Fit      -0.000370
 2833 Fit      -0.000566
 2834 Fit      -0.000833
 2835 Fit      -0.001208
 2836 Fit      -0.001710
 2837 Fit      -0.002341
 2838 Fit      -0.003088
 2839 Fit      -0.003932
 2840 Fit      -0.004856
 2841 Fit      -0.005856
 2842 Fit      -0.006963
 2843 Fit      -0.008269
 2844 Fit      -0.009977
 2845 Fit      -0.012490
 2846 Fit      -0.016537
 2847 Fit       0.012870
 2848 Fit       0.009203
 2849 Fit       0.006305
 2850 Fit       0.004118
 2851 Fit       0.002527
 2852 Fit       0.001418
 2853 Fit       0.000682
 2854 Fit       0.000217
 2855 Fit      -0.000070
 2856 Fit      -0.000265
 2857 Fit      -0.000444
 2858 Fit      -0.000668
 2859 Fit      -0.000984
 2860 Fit      -0.001420
 2861 Fit      -0.001989
 2862 Fit      -0.002688
 2863 Fit      -0.003506
 2864 Fit      -0.004426
 2865 Fit      -0.005442
 2866 Fit      -0.006576
 2867 Fit      -0.007898
 2868 Fit      -0.009587
 2869 Fit      -0.012030
 2870 Fit      -0.016073
 2871 Fit       0.013779
 2872 Fit       0.009718
 2873 Fit       0.006593
 2874 Fit       0.004270
 2875 Fit       0.002596
 2876 Fit       0.001433
 2877 Fit       0.000659
 2878 Fit       0.000166
 2879 Fit      -0.000143
 2880 Fit      -0.000355
 2881 Fit      -0.000549
 2882 Fit      -0.000786
 2883 Fit      -0.001115
 2884 Fit      -0.001564
 2885 Fit      -0.002147
 2886 Fit      -0.002864
 2887 Fit      -0.003704
 2888 Fit      -0.004656
 2889 Fit      -0.005720
 2890 Fit      -0.006925
 2891 Fit      -0.008366
 2892 Fit      -0.010257
 2893 Fit      -0.013074
 2894 Fit      -0.017880
 2895 Fit       0.012062
 2896 Fit       0.008381
 2897 Fit       0.005560
 2898 Fit       0.003477
 2899 Fit       0.001988
 2900 Fit       0.000963
 2901 Fit       0.000286
 2902 Fit      -0.000148
 2903 Fit      -0.000436
 2904 Fit      -0.000662
 2905 Fit      -0.000900
 2906 Fit      -0.001206
 2907 Fit      -0.001620
 2908 Fit      -0.002163
 2909 Fit      -0.002843
 2910 Fit      -0.003652
 2911 Fit      -0.004581
 2912 Fit      -0.005628
 2913 Fit      -0.006816
 2914 Fit      -0.008223
 2915 Fit      -0.010029
 2916 Fit      -0.012628
 2917 Fit      -0.016852
 2918 Fit       0.013029
 2919 Fit       0.009546
 2920 Fit       0.006603
 2921 Fit       0.004288
 2922 Fit       0.002550
 2923 Fit       0.001296
 2924 Fit       0.000427
 2925 Fit      -0.000157
 2926 Fit      -0.000551
 2927 Fit      -0.000841
 2928 Fit      -0.001104
 2929 Fit      -0.001403
 2930 Fit      -0.001786
 2931 Fit      -0.002282
 2932 Fit      -0.002905
 2933 Fit      -0.003654
 2934 Fit      -0.004522
 2935 Fit      -0.005504
 2936 Fit      -0.006612
 2937 Fit      -0.007896
 2938 Fit      -0.009478
 2939 Fit      -0.011607
 2940 Fit      -0.014750
 2941 Fit      -0.019715
 2942 Fit       0.012641
 2943 Fit       0.010460
 2944 Fit       0.007886
 2945 Fit       0.005469
 2946 Fit       0.003452
 2947 Fit       0.001889
 2948 Fit       0.000740
 2949 Fit      -0.000069
 2950 Fit      -0.000629
 2951 Fit      -0.001030
 2952 Fit      -0.001359
 2953 Fit      -0.001691
 2954 Fit      -0.002084
 2955 Fit      -0.002579
 2956 Fit      -0.003194
 2957 Fit      -0.003933
 2958 Fit      -0.004789
 2959 Fit      -0.005757
 2960 Fit      -0.006846
 2961 Fit      -0.008098
 2962 Fit      -0.009617
 2963 Fit      -0.011577
 2964 Fit      -0.014208
 2965 Fit      -0.017559
 2966 Fit       0.008493
 2967 Fit       0.008394
 2968 Fit       0.007138
 2969 Fit       0.005343
 2970 Fit       0.003516
 2971 Fit       0.001932
 2972 Fit       0.000686
 2973 Fit      -0.000236
 2974 Fit      -0.000898
 2975 Fit      -0.001387
 2976 Fit      -0.001794
 2977 Fit      -0.002199
 2978 Fit      -0.002666
 2979 Fit      -0.003235
 2980 Fit      -0.003922
 2981 Fit      -0.004724
 2982 Fit      -0.005631
 2983 Fit      -0.006638
 2984 Fit      -0.007757
 2985 Fit      -0.009028
 2986 Fit      -0.010485
 2987 Fit      -0.012035
 2988 Fit      -0.013131
 2989 Fit      -0.012410
 2990 Fit      -0.008527
 2991 Fit      -0.002856
 2992 Fit      -0.001492
 2993 Fit      -0.000024
 2994 Fit       0.000569
 2995 Fit       0.001066
 2996 Fit       0.002168
 2997 Fit       0.003732
 2998 Fit       0.004896
 2999 Fit       0.005090
 3000 Fit       0.004368
 3001 Fit       0.003125
 3002 Fit       0.001767
 3003 Fit       0.000548
 3004 Fit      -0.000431
 3005 Fit      -0.001176
 3006 Fit      -0.001750
 3007 Fit      -0.002236
 3008 Fit      -0.002716
 3009 Fit      -0.003253
 3010 Fit      -0.003882
 3011 Fit      -0.004614
 3012 Fit      -0.005434
 3013 Fit      -0.006322
 3014 Fit      -0.007254
 3015 Fit      -0.008199
 3016 Fit      -0.009057
 3017 Fit      -0.009541
 3018 Fit      -0.009072
 3019 Fit      -0.007120
 3020 Fit      -0.004126
 3021 Fit      -0.002584
 3022 Fit      -0.001194
 3023 Fit      -0.000239
 3024 Fit       0.000687
 3025 Fit       0.001717
 3026 Fit       0.002467
 3027 Fit       0.002535
 3028 Fit       0.001927
 3029 Fit       0.000941
 3030 Fit      -0.000102
 3031 Fit      -0.001018
 3032 Fit      -0.001761
 3033 Fit      -0.002375
 3034 Fit      -0.002939
 3035 Fit      -0.003527
 3036 Fit      -0.004183
 3037 Fit      -0.004913
 3038 Fit      -0.005688
 3039 Fit      -0.006451
 3040 Fit      -0.007114
 3041 Fit      -0.007507
 3042 Fit      -0.007334
 3043 Fit      -0.006286
 3044 Fit      -0.004473
 3045 Fit      -0.003034
 3046 Fit      -0.001719
 3047 Fit      -0.000664
 3048 Fit       0.000197
 3049 Fit       0.000647
 3050 Fit       0.000458
 3051 Fit      -0.000244
 3052 Fit      -0.001131
 3053 Fit      -0.001968
 3054 Fit      -0.002700
 3055 Fit      -0.003378
 3056 Fit      -0.004070
 3057 Fit      -0.004792
 3058 Fit      -0.005486
 3059 Fit      -0.006021
 3060 Fit      -0.006185
 3061 Fit      -0.005712
 3062 Fit      -0.004531
 3063 Fit      -0.003213
 3064 Fit      -0.001998
 3065 Fit      -0.001140
 3066 Fit      -0.000891
 3067 Fit      -0.001325
 3068 Fit      -0.002120
 3069 Fit      -0.002955
 3070 Fit      -0.003747
 3071 Fit      -0.004483
 3072 Fit      -0.005028
 3073 Fit      -0.005097
 3074 Fit      -0.004432
 3075 Fit      -0.003264
 3076 Fit      -0.002289
 3077 Fit      -0.002312
 3078 Fit      -0.003133
 3079 Fit      -0.003967
 3080 Fit      -0.004142
 3081 Fit      -0.003235
 3082 Fit       0.019215
 3083 Fit       0.022581
 3084 Fit       0.016526
 3085 Fit       0.014298
 3086 Fit       0.015600
 3087 Fit       0.011450
 3088 Fit       0.010313
 3089 Fit       0.008014
 3090 Fit       0.009286
 3091 Fit       0.007080
 3092 Fit       0.019963
 3093 Fit       0.019938
 3094 Fit       0.016502
 3095 Fit       0.013123
 3096 Fit       0.010240
 3097 Fit       0.008765
 3098 Fit       0.009818
 3099 Fit       0.008565
 3100 Fit       0.009629
 3101 Fit       0.004152
 3102 Fit       0.012413
 3103 Fit       0.007392
 3104 Fit       0.002149
 3105 Fit      -0.000583
 3106 Fit       0.005989
 3107 Fit       0.015642
 3108 Fit       0.005490
 3109 Fit      -0.001247
 3110 Fit      -0.004175
 3111 Fit      -0.003850
 3112 Fit      -0.004553
 3113 Fit       0.001148
 3114 Fit       0.009659
 3115 Fit      -0.009784
 3116 Fit      -0.009483
 3117 Fit      -0.007873
 3118 Fit      -0.007766
 3119 Fit      -0.002610
 3120 Fit       0.005053
 3121 Fit      -0.014356
 3122 Fit      -0.012912
 3123 Fit      -0.010959
 3124 Fit      -0.010226
 3125 Fit      -0.005691
 3126 Fit       0.000952
 3127 Fit       0.010179
 3128 Fit      -0.016904
 3129 Fit      -0.015141
 3130 Fit      -0.013164
 3131 Fit      -0.011931
 3132 Fit      -0.007671
 3133 Fit      -0.001432
 3134 Fit       0.007362
 3135 Fit      -0.018625
 3136 Fit      -0.016707
 3137 Fit      -0.014734
 3138 Fit      -0.012891
 3139 Fit      -0.008870
 3140 Fit      -0.003009
 3141 Fit       0.005279
 3142 Fit      -0.019578
 3143 Fit      -0.017552
 3144 Fit      -0.015582
 3145 Fit      -0.013133
 3146 Fit      -0.009160
 3147 Fit      -0.003376
 3148 Fit       0.004783
 3149 Fit      -0.020147
 3150 Fit      -0.017872
 3151 Fit      -0.015818
 3152 Fit      -0.012701
 3153 Fit      -0.008763
 3154 Fit      -0.003102
 3155 Fit       0.004672
 3156 Fit      -0.017590
 3157 Fit      -0.015412
 3158 Fit      -0.011645
 3159 Fit      -0.007498
 3160 Fit      -0.001621
 3161 Fit       0.005970
 3162 Fit      -0.016919
 3163 Fit      -0.014516
 3164 Fit      -0.009995
 3165 Fit      -0.005784
 3166 Fit      -0.000088
 3167 Fit       0.006322
 3168 Fit      -0.015251
 3169 Fit      -0.012915
 3170 Fit      -0.007729
 3171 Fit      -0.003332
 3172 Fit       0.002129
 3173 Fit       0.006891
 3174 Fit      -0.010528
 3175 Fit      -0.004739
 3176 Fit       0.000288
 3177 Fit       0.004573
 3178 Fit       0.004297
 3179 Fit      -0.001810
 3180 Fit      -0.006286
 3181 Fit      -0.000813
 3182 Fit      -0.004380
 3183 Fit      -0.008684
 3184 Fit      -0.010401
 3185 Fit      -0.010302
 3186 Fit      -0.014531
 3187 Fit      -0.015035
 3188 Fit      -0.014903
 3189 Fit      -0.019283
 3190 Fit      -0.018729
 3191 Fit      -0.018279
 3192 Fit      -0.017748
 3193 Fit      -0.023977
 3194 Fit      -0.021941
 3195 Fit      -0.020936
 3196 Fit      -0.020183
 3197 Fit      -0.019579
 3198 Fit      -0.026147
 3199 Fit      -0.023553
 3200 Fit      -0.022255
 3201 Fit      -0.021327
 3202 Fit      -0.020635
 3203 Fit      -0.027442
 3204 Fit      -0.024382
 3205 Fit      -0.022867
 3206 Fit      -0.021816
 3207 Fit      -0.021004
 3208 Fit      -0.024573
 3209 Fit      -0.022857
 3210 Fit      -0.021714
 3211 Fit      -0.020769
 3212 Fit      -0.020231
 3213 Fit      -0.024691
 3214 Fit      -0.022437
 3215 Fit      -0.021134
 3216 Fit      -0.020030
 3217 Fit      -0.019061
 3218 Fit      -0.021080
 3219 Fit      -0.019766
 3220 Fit      -0.018656
 3221 Fit      -0.017374
 3222 Fit      -0.012919
 3223 Fit      -0.016549
 3224 Fit      -0.016267
 3225 Fit      -0.015094
 3226 Fit      -0.009476
 3227 Fit      -0.011645
 3228 Fit      -0.005645
 3229 Fit       0.009888
 3230 Fit       0.008215
 3231 Fit       0.009571
 3232 Fit       0.004064
 3233 Fit       0.003489
 3234 Fit       0.008410
 3235 Fit       0.001969
 3236 Fit      -0.002723
 3237 Fit      -0.004123
 3238 Fit      -0.003388
 3239 Fit      -0.011615
 3240 Fit      -0.010523
 3241 Fit      -0.017417
 3242 Fit       0.001091
 3243 Fit       0.007046
 3244 Fit       0.001560
 3245 Fit      -0.013458
 3246 Fit      -0.010096
 3247 Fit      -0.002656
 3248 Fit       0.002867
 3249 Fit       0.002663
 3250 Fit      -0.003364
 3251 Fit      -0.008640
 3252 Fit      -0.007685
 3253 Fit      -0.002195
 3254 Fit      -0.001490
 3255 Fit      -0.007332
 3256 Fit      -0.008722
 3257 Fit      -0.012830
 3258 Fit      -0.014204
 3259 Fit      -0.012926
 3260 Fit      -0.011751
 3261 Fit      -0.015992
 3262 Fit      -0.018288
 3263 Fit      -0.019036
 3264 Fit      -0.018402
 3265 Fit      -0.016838
 3266 Fit      -0.019980
 3267 Fit      -0.021808
 3268 Fit      -0.022636
 3269 Fit      -0.022607
 3270 Fit      -0.022000
 3271 Fit      -0.019364
 3272 Fit      -0.022152
 3273 Fit      -0.023936
 3274 Fit      -0.024980
 3275 Fit      -0.025392
 3276 Fit      -0.025349
 3277 Fit      -0.025447
 3278 Fit      -0.022023
 3279 Fit      -0.024267
 3280 Fit      -0.025774
 3281 Fit      -0.026692
 3282 Fit      -0.027093
 3283 Fit      -0.027195
 3284 Fit      -0.022992
 3285 Fit      -0.025053
 3286 Fit      -0.026482
 3287 Fit      -0.027375
 3288 Fit      -0.027778
 3289 Fit      -0.027868
 3290 Fit      -0.028316
 3291 Fit      -0.022556
 3292 Fit      -0.024659
 3293 Fit      -0.026139
 3294 Fit      -0.027077
 3295 Fit      -0.027484
 3296 Fit      -0.027444
 3297 Fit      -0.027352
 3298 Fit      -0.022161
 3299 Fit      -0.024201
 3300 Fit      -0.025554
 3301 Fit      -0.026248
 3302 Fit      -0.026258
 3303 Fit      -0.025670
 3304 Fit      -0.019958
 3305 Fit      -0.022362
 3306 Fit      -0.023837
 3307 Fit      -0.024374
 3308 Fit      -0.023882
 3309 Fit      -0.022317
 3310 Fit      -0.009210
 3311 Fit      -0.014457
 3312 Fit      -0.018350
 3313 Fit      -0.020747
 3314 Fit      -0.021560
 3315 Fit      -0.020577
 3316 Fit      -0.017467
 3317 Fit      -0.007794
 3318 Fit      -0.013640
 3319 Fit      -0.017347
 3320 Fit      -0.016791
 3321 Fit      -0.012475
 3322 Fit       0.018504
 3323 Fit       0.018799
 3324 Fit       0.022306
 3325 Fit       0.024192
 3326 Fit       0.024794
 3327 Fit       0.016326
 3328 Fit       0.020986
 3329 Fit       0.024303
 3330 Fit       0.023897
 3331 Fit       0.022749
 3332 Fit       0.021233
 3333 Fit       0.019725
 3334 Fit       0.022158
 3335 Fit       0.019828
 3336 Fit       0.017278
 3337 Fit       0.018359
 3338 Fit       0.014992
 3339 Fit       0.011616
 3340 Fit       0.010322
 3341 Fit       0.018528
 3342 Fit       0.016253
 3343 Fit       0.015795
 3344 Fit       0.014324
 3345 Fit       0.012897
 3346 Fit       0.011744
 3347 Fit       0.010375
 3348 Fit       0.012753
 3349 Fit       0.008934
 3350 Fit       0.008176
 3351 Fit       0.008700
 3352 Fit       0.006221
 3353 Fit       0.006542
 3354 Fit       0.007544
 3355 Fit       0.004787
 3356 Fit       0.004362
 3357 Fit       0.006652
 3358 Fit       0.008998
 3359 Fit       0.005911
 3360 Fit       0.003490
 3361 Fit       0.002920
 3362 Fit       0.004490
 3363 Fit       0.006501
 3364 Fit       0.004429
 3365 Fit       0.002515
 3366 Fit       0.002148
 3367 Fit       0.003297
 3368 Fit       0.009094
 3369 Fit       0.007967
 3370 Fit       0.003840
 3371 Fit       0.002190
 3372 Fit       0.002214
 3373 Fit       0.005062
 3374 Fit       0.002805
 3375 Fit       0.019153
 3376 Fit       0.016873
 3377 Fit       0.018663
 3378 Fit       0.016426
 3379 Fit       0.018828
 3380 Fit       0.016533
 3381 Fit       0.019864
 3382 Fit       0.017237
 3383 Fit       0.015217
 3384 Fit       0.015079
 3385 Fit       0.016332
 3386 Fit       0.016813
 3387 Fit       0.017147
 3388 Fit       0.017355
 3389 Fit       0.015587
 3390 Fit       0.016832
 3391 Fit       0.017561
 3392 Fit       0.018079
 3393 Fit       0.018700
 3394 Fit       0.013936
 3395 Fit       0.016131
 3396 Fit       0.017339
 3397 Fit       0.018126
 3398 Fit       0.018889
 3399 Fit       0.020207
 3400 Fit       0.012642
 3401 Fit       0.015350
 3402 Fit       0.016841
 3403 Fit       0.017789
 3404 Fit       0.018641
 3405 Fit       0.019978
 3406 Fit       0.012136
 3407 Fit       0.014713
 3408 Fit       0.016190
 3409 Fit       0.017137
 3410 Fit       0.017983
 3411 Fit       0.019255
 3412 Fit       0.009699
 3413 Fit       0.012982
 3414 Fit       0.014791
 3415 Fit       0.015797
 3416 Fit       0.016465
 3417 Fit       0.011408
 3418 Fit       0.013257
 3419 Fit       0.013835
 3420 Fit       0.022907
 3421 Fit       0.022627
 3422 Fit       0.023017
 3423 Fit       0.023006
 3424 Fit       0.022993
 3425 Fit       0.023023
 3426 Fit       0.022536
 3427 Fit       0.022266
 3428 Fit       0.023056
 3429 Fit       0.023242
 3430 Fit       0.023038
 3431 Fit       0.022795
 3432 Fit       0.022706
 3433 Fit       0.023030
 3434 Fit       0.023601
 3435 Fit       0.023303
 3436 Fit       0.021954
 3437 Fit       0.021466
 3438 Fit       0.022048
 3439 Fit       0.023315
 3440 Fit       0.023736
 3441 Fit       0.023517
 3442 Fit       0.023022
 3443 Fit       0.022577
 3444 Fit       0.022291
 3445 Fit       0.022079
 3446 Fit       0.022202
 3447 Fit       0.023147
 3448 Fit       0.024665
 3449 Fit       0.019325
 3450 Fit       0.020258
 3451 Fit       0.024616
 3452 Fit       0.023745
 3453 Fit       0.022733
 3454 Fit       0.021940
 3455 Fit       0.021571
 3456 Fit       0.021346
 3457 Fit       0.022344
 3458 Fit       0.023870
 3459 Fit       0.016801
 3460 Fit       0.019699
 3461 Fit       0.021396
 3462 Fit       0.022322
 3463 Fit       0.022716
 3464 Fit       0.014621
 3465 Fit       0.018026
 3466 Fit       0.019883
 3467 Fit       0.020728
 3468 Fit       0.020776
 3469 Fit       0.020004
 3470 Fit       0.013322
 3471 Fit       0.016834
 3472 Fit       0.018669
 3473 Fit       0.019352
 3474 Fit       0.019043
 3475 Fit       0.017570
 3476 Fit       0.012721
 3477 Fit       0.015924
 3478 Fit       0.017513
 3479 Fit       0.017871
 3480 Fit       0.017029
 3481 Fit       0.014580
 3482 Fit       0.012615
 3483 Fit       0.015334
 3484 Fit       0.016282
 3485 Fit       0.015551
 3486 Fit       0.012653
 3487 Fit       0.012751
 3488 Fit       0.014498
 3489 Fit       0.013876
 3490 Fit       0.012738
 3491 Fit       0.012529
 -----------------------------------------------------------------
 Leave Link  602 at Thu Jan 16 22:40:16 2014, MaxMem=   235929600 cpu:         1.4

 Test job not archived.
 1\1\GINC-G59\SP\RHF\Gen\C9H5Br1N2O3\KOLAR\16-Jan-2014\0\\# hf/gen pop=
 mk iop(6/33=2,6/41=5,6/42=2)\\na resp\\0,1\C,0,-1.79776,1.706873,-0.17
 1977\C,0,-0.567689,2.361236,-0.236043\C,0,0.614579,1.632482,-0.150594\
 C,0,0.558165,0.235339,0.002025\C,0,-0.664154,-0.431614,0.076641\C,0,-1
 .83253,0.321815,-0.013753\Br,0,-3.517392,-0.568068,0.083419\N,0,1.8023
 93,-0.431045,0.055522\C,0,2.985037,0.253067,0.176411\N,0,4.025954,-0.5
 06029,0.099188\O,0,3.491667,-1.817077,-0.088319\C,0,2.119336,-1.781691
 ,-0.121942\O,0,1.391959,-2.729519,-0.268096\C,0,2.919804,1.725894,0.43
 0541\O,0,1.815933,2.291856,-0.283157\H,0,-2.720725,2.271073,-0.239354\
 H,0,-0.510719,3.437589,-0.3599\H,0,-0.688417,-1.508591,0.180401\H,0,2.
 803119,1.913429,1.508024\H,0,3.821849,2.225926,0.076921\\Version=AM64L
 -G09RevD.01\State=1-A\HF=-3246.7536593\RMSD=8.303e-09\Dipole=-0.148182
 8,2.198792,0.5478078\Quadrupole=-2.3957999,-0.4866145,2.8824144,7.1903
 178,2.8585337,0.2141854\PG=C01 [X(C9H5Br1N2O3)]\\@


 IT'S WHAT YOU LEARN AFTER YOU KNOW IT ALL
 THAT COUNTS.
 Job cpu time:       0 days  0 hours  3 minutes 29.9 seconds.
 File lengths (MBytes):  RWF=     31 Int=      0 D2E=      0 Chk=      3 Scr=      1
 Normal termination of Gaussian 09 at Thu Jan 16 22:40:16 2014.
209.54user 0.39system 3:30.42elapsed 99%CPU (0avgtext+0avgdata 603328maxresident)k
8inputs+143552outputs (0major+171645minor)pagefaults 0swaps
