Linux g42 2.6.38.6-client #1 SMP Tue Jun 12 11:27:21 CEST 2012 x86_64 GNU/Linux
Fri Jan 17 11:54:31 CET 2014

 Entering Gaussian System, Link 0=/usr/local/programs/common/gaussian/gaussian09_d01/arch/amd64-pgi_10.4.0-acml/g09/g09
 Initial command:
 /usr/local/programs/common/gaussian/gaussian09_d01/arch/amd64-pgi_10.4.0-acml/g09/l1.exe "/scratch/kolar/g09_20115/Gau-20648.inp" -scrdir="/scratch/kolar/g09_20115/"
 Entering Link 1 = /usr/local/programs/common/gaussian/gaussian09_d01/arch/amd64-pgi_10.4.0-acml/g09/l1.exe PID=     20650.
  
 Copyright (c) 1988,1990,1992,1993,1995,1998,2003,2009,2013,
            Gaussian, Inc.  All Rights Reserved.
  
 This is part of the Gaussian(R) 09 program.  It is based on
 the Gaussian(R) 03 system (copyright 2003, Gaussian, Inc.),
 the Gaussian(R) 98 system (copyright 1998, Gaussian, Inc.),
 the Gaussian(R) 94 system (copyright 1995, Gaussian, Inc.),
 the Gaussian 92(TM) system (copyright 1992, Gaussian, Inc.),
 the Gaussian 90(TM) system (copyright 1990, Gaussian, Inc.),
 the Gaussian 88(TM) system (copyright 1988, Gaussian, Inc.),
 the Gaussian 86(TM) system (copyright 1986, Carnegie Mellon
 University), and the Gaussian 82(TM) system (copyright 1983,
 Carnegie Mellon University). Gaussian is a federally registered
 trademark of Gaussian, Inc.
  
 This software contains proprietary and confidential information,
 including trade secrets, belonging to Gaussian, Inc.
  
 This software is provided under written license and may be
 used, copied, transmitted, or stored only in accord with that
 written license.
  
 The following legend is applicable only to US Government
 contracts under FAR:
  
                    RESTRICTED RIGHTS LEGEND
  
 Use, reproduction and disclosure by the US Government is
 subject to restrictions as set forth in subparagraphs (a)
 and (c) of the Commercial Computer Software - Restricted
 Rights clause in FAR 52.227-19.
  
 Gaussian, Inc.
 340 Quinnipiac St., Bldg. 40, Wallingford CT 06492
  
  
 ---------------------------------------------------------------
 Warning -- This program may not be used in any manner that
 competes with the business of Gaussian, Inc. or will provide
 assistance to any competitor of Gaussian, Inc.  The licensee
 of this program is prohibited from giving any competitor of
 Gaussian, Inc. access to this program.  By using this program,
 the user acknowledges that Gaussian, Inc. is engaged in the
 business of creating and licensing software in the field of
 computational chemistry and represents and warrants to the
 licensee that it is not a competitor of Gaussian, Inc. and that
 it will not use this program in any manner prohibited above.
 ---------------------------------------------------------------
  

 Cite this work as:
 Gaussian 09, Revision D.01,
 M. J. Frisch, G. W. Trucks, H. B. Schlegel, G. E. Scuseria, 
 M. A. Robb, J. R. Cheeseman, G. Scalmani, V. Barone, B. Mennucci, 
 G. A. Petersson, H. Nakatsuji, M. Caricato, X. Li, H. P. Hratchian, 
 A. F. Izmaylov, J. Bloino, G. Zheng, J. L. Sonnenberg, M. Hada, 
 M. Ehara, K. Toyota, R. Fukuda, J. Hasegawa, M. Ishida, T. Nakajima, 
 Y. Honda, O. Kitao, H. Nakai, T. Vreven, J. A. Montgomery, Jr., 
 J. E. Peralta, F. Ogliaro, M. Bearpark, J. J. Heyd, E. Brothers, 
 K. N. Kudin, V. N. Staroverov, T. Keith, R. Kobayashi, J. Normand, 
 K. Raghavachari, A. Rendell, J. C. Burant, S. S. Iyengar, J. Tomasi, 
 M. Cossi, N. Rega, J. M. Millam, M. Klene, J. E. Knox, J. B. Cross, 
 V. Bakken, C. Adamo, J. Jaramillo, R. Gomperts, R. E. Stratmann, 
 O. Yazyev, A. J. Austin, R. Cammi, C. Pomelli, J. W. Ochterski, 
 R. L. Martin, K. Morokuma, V. G. Zakrzewski, G. A. Voth, 
 P. Salvador, J. J. Dannenberg, S. Dapprich, A. D. Daniels, 
 O. Farkas, J. B. Foresman, J. V. Ortiz, J. Cioslowski, 
 and D. J. Fox, Gaussian, Inc., Wallingford CT, 2013.
 
 ******************************************
 Gaussian 09:  AM64L-G09RevD.01 24-Apr-2013
                17-Jan-2014 
 ******************************************
 %mem=1800mb
 ------------------------------------------------------------------
 # hf/gen pseudo=read pop=(mk, readradii) iop(6/33=2,6/41=5,6/42=2)
 ------------------------------------------------------------------
 1/38=1/1;
 2/12=2,17=6,18=5,40=1/2;
 3/5=7,11=9,16=1,17=8,25=1,30=1/1,2,3;
 4//1;
 5/5=2,38=5/2;
 6/7=2,8=2,9=2,10=2,15=8,20=101,28=1,33=2,41=5,42=2/1,2;
 99/5=1,9=1/99;
 -------
 na resp
 -------
 Symbolic Z-matrix:
 Charge =  0 Multiplicity = 1
 6                    -2.30139   3.27752   0.45201 
 6                    -3.48761   2.60436   0.16445 
 6                    -3.47777   1.22209  -0.03127 
 6                    -2.28285   0.50851   0.07195 
 6                    -1.07863   1.16706   0.35701 
 6                    -1.11011   2.56038   0.53996 
 6                     0.24009   0.45267   0.55247 
 8                     0.38686  -0.44756   1.36312 
 7                     1.24665   0.96071  -0.24406 
 6                     2.60606   0.59117  -0.29443 
 6                     3.41784   1.24492  -1.23764 
 6                     4.77124   0.93334  -1.33257 
 6                     5.34328  -0.02766  -0.49736 
 6                     4.51591  -0.65811   0.42458 
 6                     3.16086  -0.37858   0.55268 
 9                     5.04922  -1.59103   1.23998 
 53                   -2.37998  -1.60372  -0.29717 
 1                    -2.30138   4.35189   0.6107 
 1                    -4.42547   3.14762   0.08994 
 1                    -4.40002   0.70223  -0.26541 
 1                    -0.18495   3.07692   0.78214 
 1                     0.96201   1.65293  -0.92401 
 1                     2.98565   1.99647  -1.89426 
 1                     5.38783   1.44548  -2.06552 
 1                     6.39434  -0.28881  -0.55061 
 1                     2.55484  -0.89863   1.27996 
 
                          Input orientation:                          
 ---------------------------------------------------------------------
 Center     Atomic      Atomic             Coordinates (Angstroms)
 Number     Number       Type             X           Y           Z
 ---------------------------------------------------------------------
      1          6           0       -2.301388    3.277517    0.452010
      2          6           0       -3.487610    2.604359    0.164446
      3          6           0       -3.477767    1.222088   -0.031273
      4          6           0       -2.282846    0.508513    0.071950
      5          6           0       -1.078631    1.167060    0.357011
      6          6           0       -1.110105    2.560382    0.539960
      7          6           0        0.240094    0.452669    0.552468
      8          8           0        0.386864   -0.447557    1.363118
      9          7           0        1.246654    0.960705   -0.244059
     10          6           0        2.606058    0.591169   -0.294426
     11          6           0        3.417838    1.244921   -1.237639
     12          6           0        4.771241    0.933340   -1.332567
     13          6           0        5.343278   -0.027660   -0.497363
     14          6           0        4.515905   -0.658108    0.424577
     15          6           0        3.160861   -0.378580    0.552675
     16          9           0        5.049223   -1.591032    1.239979
     17         53           0       -2.379979   -1.603723   -0.297174
     18          1           0       -2.301384    4.351888    0.610702
     19          1           0       -4.425474    3.147619    0.089943
     20          1           0       -4.400017    0.702234   -0.265411
     21          1           0       -0.184951    3.076920    0.782142
     22          1           0        0.962010    1.652929   -0.924014
     23          1           0        2.985646    1.996471   -1.894257
     24          1           0        5.387829    1.445484   -2.065519
     25          1           0        6.394341   -0.288810   -0.550611
     26          1           0        2.554841   -0.898634    1.279956
 ---------------------------------------------------------------------
                    Distance matrix (angstroms):
                    1          2          3          4          5
     1  C    0.000000
     2  C    1.393900   0.000000
     3  C    2.417068   1.396093   0.000000
     4  C    2.795026   2.419211   1.395593   0.000000
     5  C    2.440940   2.811777   2.430976   1.401812   0.000000
     6  C    1.393260   2.407379   2.779058   2.409257   1.405634
     7  C    3.801183   4.321586   3.841256   2.568899   1.512479
     8  O    4.683267   5.075683   4.434796   3.115852   2.401440
     9  N    4.294267   5.028094   4.736428   3.572354   2.410564
    10  C    5.644170   6.433995   6.122110   4.903310   3.785889
    11  C    6.300469   7.176289   7.000372   5.895347   4.771499
    12  C    7.661721   8.558152   8.356008   7.205088   6.093464
    13  C    8.382507   9.238512   8.921320   7.666118   6.587733
    14  C    7.871809   8.646827   8.224459   6.907124   5.885120
    15  C    6.573686   7.297315   6.853796   5.536423   4.516700
    16  F    8.851844   9.572648   9.068588   7.715673   6.777706
    17  I    4.939024   4.375831   3.043197   2.146445   3.130288
    18  H    1.086028   2.158734   3.404652   3.880996   3.420908
    19  H    2.158636   1.086403   2.149538   3.399420   3.898115
    20  H    3.398679   2.152985   1.084257   2.152615   3.411023
    21  H    2.151402   3.392996   3.865835   3.391497   2.151038
    22  H    3.896472   4.678577   4.549091   3.582000   2.457908
    23  H    5.924422   6.819885   6.770974   5.816958   4.719584
    24  H    8.295683   9.224378   9.098728   8.017852   6.910953
    25  H    9.451965  10.321564  10.000552   8.735953   7.667375
    26  H    6.458227   7.072944   6.527568   5.180980   4.280308
                    6          7          8          9         10
     6  C    0.000000
     7  C    2.503128   0.000000
     8  O    3.459220   1.220288   0.000000
     9  N    2.954313   1.380478   2.303358   0.000000
    10  C    4.287641   2.516783   2.958247   1.409636   0.000000
    11  C    5.039103   3.732319   4.337652   2.404583   1.405713
    12  C    6.383091   4.931095   5.328823   3.688945   2.425456
    13  C    7.029947   5.232146   5.310720   4.221772   2.813629
    14  C    6.482591   4.419586   4.239596   3.708859   2.392734
    15  C    5.184478   3.036751   2.890785   2.468331   1.402070
    16  F    7.460669   5.270399   4.802113   4.813861   3.617382
    17  I    4.433187   3.437357   3.427639   4.442024   5.447763
    18  H    2.152590   4.654719   5.552250   4.981898   6.248620
    19  H    3.396915   5.407792   6.140428   6.088283   7.491703
    20  H    3.863270   4.718245   5.185398   5.652624   7.007015
    21  H    1.086910   2.668353   3.617519   2.753352   3.889433
    22  H    2.694504   2.035138   3.158133   1.011205   2.055872
    23  H    4.797769   3.988464   4.830883   2.611524   2.162966
    24  H    7.089052   5.859924   6.352071   4.549951   3.406593
    25  H    8.100861   6.296136   6.306928   5.306029   3.897574
    26  H    5.093546   2.777285   2.215967   2.736990   2.168136
                   11         12         13         14         15
    11  C    0.000000
    12  C    1.392047   0.000000
    13  C    2.423797   1.395820   0.000000
    14  C    2.755038   2.384420   1.389958   0.000000
    15  C    2.430436   2.805102   2.447176   1.389492   0.000000
    16  F    4.103978   3.614930   2.355623   1.348946   2.346985
    17  I    6.527935   7.658242   7.884970   6.997737   5.737955
    18  H    6.766026   8.092267   8.879702   8.462277   7.226120
    19  H    8.179259   9.565884  10.288627   9.723363   8.378585
    20  H    7.896746   9.236028   9.773349   9.045456   7.681426
    21  H    4.518387   5.799204   6.468142   6.014677   4.815350
    22  H    2.509168   3.898072   4.711891   4.448568   3.338051
    23  H    1.087550   2.152694   3.406882   3.842587   3.414534
    24  H    2.146270   1.086136   2.152034   3.374304   3.891213
    25  H    3.418173   2.177053   1.084328   2.148463   3.417703
    26  H    3.417291   3.885078   3.419479   2.152974   1.080118
                   16         17         18         19         20
    16  F    0.000000
    17  I    7.586570   0.000000
    18  H    9.473421   6.024925   0.000000
    19  H   10.655857   5.187404   2.496640   0.000000
    20  H    9.839380   3.065779   4.300210   2.471201   0.000000
    21  H    7.028227   5.281239   2.476737   4.297229   4.950079
    22  H    5.649023   4.708248   4.504384   5.682182   5.485336
    23  H    5.191528   6.655975   6.306782   7.758021   7.673083
    24  H    4.501267   8.530155   8.644845  10.190397   9.979716
    25  H    2.590625   8.875918   9.924735  11.370477  10.843508
    26  H    2.589007   5.228474   7.183231   8.155556   7.302122
                   21         22         23         24         25
    21  H    0.000000
    22  H    2.500847   0.000000
    23  H    4.287560   2.270351   0.000000
    24  H    6.467351   4.575362   2.470506   0.000000
    25  H    7.509424   5.781003   4.318228   2.513123   0.000000
    26  H    4.853793   3.728950   4.317737   4.971208   4.297048
                   26
    26  H    0.000000
 Stoichiometry    C13H9FINO
 Framework group  C1[X(C13H9FINO)]
 Deg. of freedom    72
 Full point group                 C1      NOp   1
 Largest Abelian subgroup         C1      NOp   1
 Largest concise Abelian subgroup C1      NOp   1
                         Standard orientation:                         
 ---------------------------------------------------------------------
 Center     Atomic      Atomic             Coordinates (Angstroms)
 Number     Number       Type             X           Y           Z
 ---------------------------------------------------------------------
      1          6           0        2.301388    3.277517   -0.452010
      2          6           0        3.487610    2.604359   -0.164446
      3          6           0        3.477767    1.222088    0.031273
      4          6           0        2.282846    0.508513   -0.071950
      5          6           0        1.078631    1.167060   -0.357011
      6          6           0        1.110105    2.560382   -0.539960
      7          6           0       -0.240094    0.452669   -0.552468
      8          8           0       -0.386864   -0.447557   -1.363118
      9          7           0       -1.246654    0.960705    0.244059
     10          6           0       -2.606058    0.591169    0.294426
     11          6           0       -3.417838    1.244921    1.237639
     12          6           0       -4.771241    0.933340    1.332567
     13          6           0       -5.343278   -0.027660    0.497363
     14          6           0       -4.515905   -0.658108   -0.424577
     15          6           0       -3.160861   -0.378580   -0.552675
     16          9           0       -5.049223   -1.591032   -1.239979
     17         53           0        2.379979   -1.603723    0.297174
     18          1           0        2.301384    4.351888   -0.610702
     19          1           0        4.425474    3.147619   -0.089943
     20          1           0        4.400017    0.702234    0.265411
     21          1           0        0.184951    3.076920   -0.782142
     22          1           0       -0.962010    1.652929    0.924014
     23          1           0       -2.985646    1.996471    1.894257
     24          1           0       -5.387829    1.445484    2.065519
     25          1           0       -6.394341   -0.288810    0.550611
     26          1           0       -2.554841   -0.898634   -1.279956
 ---------------------------------------------------------------------
 Rotational constants (GHZ):      0.5368327      0.1606214      0.1329395
 General basis read from cards:  (5D, 7F)
 ======================================================================================================
                                       Pseudopotential Parameters
 ======================================================================================================
  Center     Atomic      Valence      Angular      Power
  Number     Number     Electrons     Momentum     of R      Exponent        Coefficient   SO-Coeffient
 ======================================================================================================
    1          6
                                   No pseudopotential on this center.
    2          6
                                   No pseudopotential on this center.
    3          6
                                   No pseudopotential on this center.
    4          6
                                   No pseudopotential on this center.
    5          6
                                   No pseudopotential on this center.
    6          6
                                   No pseudopotential on this center.
    7          6
                                   No pseudopotential on this center.
    8          8
                                   No pseudopotential on this center.
    9          7
                                   No pseudopotential on this center.
   10          6
                                   No pseudopotential on this center.
   11          6
                                   No pseudopotential on this center.
   12          6
                                   No pseudopotential on this center.
   13          6
                                   No pseudopotential on this center.
   14          6
                                   No pseudopotential on this center.
   15          6
                                   No pseudopotential on this center.
   16          9
                                   No pseudopotential on this center.
   17         53            7
                                      F and up 
                                                     0        1.0715702       -0.07476210    0.00000000
                                                     1       44.1936028      -30.08112240    0.00000000
                                                     2       12.9367609      -75.37227210    0.00000000
                                                     2        3.1956412      -22.05637580    0.00000000
                                                     2        0.8589806       -1.69795850    0.00000000
                                      S - F
                                                     0      127.9202670        2.93800360    0.00000000
                                                     1       78.6211465       41.24712670    0.00000000
                                                     2       36.5146237      287.86800950    0.00000000
                                                     2        9.9065681      114.37585060    0.00000000
                                                     2        1.9420086       37.65477140    0.00000000
                                      P - F
                                                     0       13.0035304        2.22226300    0.00000000
                                                     1       76.0331404       39.40908310    0.00000000
                                                     2       24.1961684      177.40750020    0.00000000
                                                     2        6.4053433       77.98894620    0.00000000
                                                     2        1.5851786       25.75476410    0.00000000
                                      D - F
                                                     0       40.4278108        7.05243600    0.00000000
                                                     1       28.9084375       33.30416350    0.00000000
                                                     2       15.6268936      186.94538750    0.00000000
                                                     2        4.1442856       71.96883610    0.00000000
                                                     2        0.9377235        9.36306570    0.00000000
   18          1
                                   No pseudopotential on this center.
   19          1
                                   No pseudopotential on this center.
   20          1
                                   No pseudopotential on this center.
   21          1
                                   No pseudopotential on this center.
   22          1
                                   No pseudopotential on this center.
   23          1
                                   No pseudopotential on this center.
   24          1
                                   No pseudopotential on this center.
   25          1
                                   No pseudopotential on this center.
   26          1
                                   No pseudopotential on this center.
 ======================================================================================================
 There are   266 symmetry adapted cartesian basis functions of A   symmetry.
 There are   250 symmetry adapted basis functions of A   symmetry.
   250 basis functions,   496 primitive gaussians,   266 cartesian basis functions
    59 alpha electrons       59 beta electrons
       nuclear repulsion energy      1042.5034448955 Hartrees.
 NAtoms=   26 NActive=   26 NUniq=   26 SFac= 1.00D+00 NAtFMM=   60 NAOKFM=F Big=F
 Integral buffers will be    131072 words long.
 Raffenetti 1 integral format.
 Two-electron integral symmetry is turned on.
 One-electron integrals computed using PRISM.
   1 Symmetry operations used in ECPInt.
 ECPInt:  NShTT=    3741 NPrTT=   24188 LenC2=    3260 LenP2D=   12706.
 LDataN:  DoStor=T MaxTD1= 5 Len=  102
 NBasis=   250 RedAO= T EigKep=  4.95D-04  NBF=   250
 NBsUse=   250 1.00D-06 EigRej= -1.00D+00 NBFU=   250
 ExpMin= 1.05D-01 ExpMax= 7.00D+03 ExpMxC= 1.05D+03 IAcc=1 IRadAn=         1 AccDes= 0.00D+00
 Harris functional with IExCor=  205 and IRadAn=       1 diagonalized for initial guess.
 HarFok:  IExCor=  205 AccDes= 0.00D+00 IRadAn=         1 IDoV= 1 UseB2=F ITyADJ=14
 ICtDFT=  3500011 ScaDFX=  1.000000  1.000000  1.000000  1.000000
 Defaulting to unpruned grid for atomic number  53.
 FoFCou: FMM=F IPFlag=           0 FMFlag=      100000 FMFlg1=           0
         NFxFlg=           0 DoJE=T BraDBF=F KetDBF=T FulRan=T
         wScrn=  0.000000 ICntrl=     500 IOpCl=  0 I1Cent=   200000004 NGrid=           0
         NMat0=    1 NMatS0=      1 NMatT0=    0 NMatD0=    1 NMtDS0=    0 NMtDT0=    0
 Petite list used in FoFCou.
 Requested convergence on RMS density matrix=1.00D-08 within 128 cycles.
 Requested convergence on MAX density matrix=1.00D-06.
 Requested convergence on             energy=1.00D-06.
 No special actions if energy rises.
 Integral accuracy reduced to 1.0D-05 until final iterations.
 Initial convergence to 1.0D-05 achieved.  Increase integral accuracy.
 SCF Done:  E(RHF) =  -737.433330949     A.U. after   17 cycles
            NFock= 17  Conv=0.29D-08     -V/T= 2.0123

 **********************************************************************

            Population analysis using the SCF density.

 **********************************************************************

 Orbital symmetries:
 BldTbl:  Degeneracy threshold= 1.00D-02
       Occupied  (A) (A) (A) (A) (A) (A) (A) (A) (A) (A) (A) (A)
                 (A) (A) (A) (A) (A) (A) (A) (A) (A) (A) (A) (A)
                 (A) (A) (A) (A) (A) (A) (A) (A) (A) (A) (A) (A)
                 (A) (A) (A) (A) (A) (A) (A) (A) (A) (A) (A) (A)
                 (A) (A) (A) (A) (A) (A) (A) (A) (A) (A) (A)
       Virtual   (A) (A) (A) (A) (A) (A) (A) (A) (A) (A) (A) (A)
                 (A) (A) (A) (A) (A) (A) (A) (A) (A) (A) (A) (A)
                 (A) (A) (A) (A) (A) (A) (A) (A) (A) (A) (A) (A)
                 (A) (A) (A) (A) (A) (A) (A) (A) (A) (A) (A) (A)
                 (A) (A) (A) (A) (A) (A) (A) (A) (A) (A) (A) (A)
                 (A) (A) (A) (A) (A) (A) (A) (A) (A) (A) (A) (A)
                 (A) (A) (A) (A) (A) (A) (A) (A) (A) (A) (A) (A)
                 (A) (A) (A) (A) (A) (A) (A) (A) (A) (A) (A) (A)
                 (A) (A) (A) (A) (A) (A) (A) (A) (A) (A) (A) (A)
                 (A) (A) (A) (A) (A) (A) (A) (A) (A) (A) (A) (A)
                 (A) (A) (A) (A) (A) (A) (A) (A) (A) (A) (A) (A)
                 (A) (A) (A) (A) (A) (A) (A) (A) (A) (A) (A) (A)
                 (A) (A) (A) (A) (A) (A) (A) (A) (A) (A) (A) (A)
                 (A) (A) (A) (A) (A) (A) (A) (A) (A) (A) (A) (A)
                 (A) (A) (A) (A) (A) (A) (A) (A) (A) (A) (A) (A)
                 (A) (A) (A) (A) (A) (A) (A) (A) (A) (A) (A)
 The electronic state is 1-A.
 Alpha  occ. eigenvalues --  -26.29818 -20.54693 -15.61930 -11.38131 -11.33008
 Alpha  occ. eigenvalues --  -11.31405 -11.30490 -11.28074 -11.27015 -11.26674
 Alpha  occ. eigenvalues --  -11.26518 -11.26292 -11.25434 -11.24269 -11.23614
 Alpha  occ. eigenvalues --  -11.23235  -1.61290  -1.39981  -1.26853  -1.18442
 Alpha  occ. eigenvalues --   -1.15208  -1.06338  -1.04894  -1.02505  -1.01708
 Alpha  occ. eigenvalues --   -0.91116  -0.88463  -0.85970  -0.84690  -0.82217
 Alpha  occ. eigenvalues --   -0.79387  -0.75643  -0.72913  -0.69410  -0.68427
 Alpha  occ. eigenvalues --   -0.67918  -0.67611  -0.66676  -0.65479  -0.63960
 Alpha  occ. eigenvalues --   -0.61167  -0.60358  -0.59536  -0.58470  -0.57545
 Alpha  occ. eigenvalues --   -0.54327  -0.54093  -0.53326  -0.52099  -0.51049
 Alpha  occ. eigenvalues --   -0.46563  -0.44673  -0.43672  -0.40361  -0.36629
 Alpha  occ. eigenvalues --   -0.36356  -0.34132  -0.33332  -0.31521
 Alpha virt. eigenvalues --    0.09076   0.10256   0.11031   0.13268   0.14347
 Alpha virt. eigenvalues --    0.21248   0.21597   0.23269   0.24629   0.27666
 Alpha virt. eigenvalues --    0.30313   0.30704   0.31316   0.31698   0.32631
 Alpha virt. eigenvalues --    0.35013   0.36916   0.37705   0.39495   0.42466
 Alpha virt. eigenvalues --    0.43800   0.44084   0.44714   0.45498   0.49317
 Alpha virt. eigenvalues --    0.50350   0.51732   0.52722   0.54806   0.56113
 Alpha virt. eigenvalues --    0.57201   0.60533   0.61346   0.64111   0.68160
 Alpha virt. eigenvalues --    0.69654   0.72022   0.72958   0.73467   0.73572
 Alpha virt. eigenvalues --    0.74932   0.75707   0.78009   0.79185   0.80285
 Alpha virt. eigenvalues --    0.81186   0.81534   0.81696   0.82146   0.82335
 Alpha virt. eigenvalues --    0.82527   0.82960   0.83149   0.85583   0.86702
 Alpha virt. eigenvalues --    0.87009   0.89101   0.89524   0.90352   0.90681
 Alpha virt. eigenvalues --    0.92794   0.95319   0.98058   0.98796   1.00628
 Alpha virt. eigenvalues --    1.04109   1.05376   1.06736   1.07764   1.09094
 Alpha virt. eigenvalues --    1.09406   1.10058   1.10486   1.12538   1.14064
 Alpha virt. eigenvalues --    1.14690   1.16015   1.18104   1.18846   1.19815
 Alpha virt. eigenvalues --    1.21625   1.22124   1.23674   1.25979   1.28097
 Alpha virt. eigenvalues --    1.28546   1.30568   1.33059   1.33304   1.35278
 Alpha virt. eigenvalues --    1.37075   1.37744   1.42160   1.43286   1.45181
 Alpha virt. eigenvalues --    1.47191   1.48852   1.48997   1.52741   1.55697
 Alpha virt. eigenvalues --    1.57279   1.58188   1.59556   1.62763   1.67534
 Alpha virt. eigenvalues --    1.68216   1.70214   1.70482   1.70806   1.72693
 Alpha virt. eigenvalues --    1.73286   1.74056   1.74827   1.75385   1.76368
 Alpha virt. eigenvalues --    1.78127   1.78322   1.86218   1.87211   1.95072
 Alpha virt. eigenvalues --    2.00785   2.02401   2.05326   2.06372   2.07273
 Alpha virt. eigenvalues --    2.08050   2.08995   2.12508   2.12963   2.14509
 Alpha virt. eigenvalues --    2.15591   2.19154   2.20307   2.21423   2.22751
 Alpha virt. eigenvalues --    2.23597   2.25843   2.26834   2.28961   2.29676
 Alpha virt. eigenvalues --    2.33705   2.35097   2.36770   2.39588   2.40340
 Alpha virt. eigenvalues --    2.42470   2.42705   2.43791   2.45587   2.47237
 Alpha virt. eigenvalues --    2.49399   2.54811   2.55356   2.58788   2.59051
 Alpha virt. eigenvalues --    2.59935   2.61625   2.62847   2.64747   2.65022
 Alpha virt. eigenvalues --    2.70012   2.71470   2.74472   2.84193   2.85851
 Alpha virt. eigenvalues --    2.87083   2.87403   2.88697   2.93348   2.96105
 Alpha virt. eigenvalues --    2.97401   3.00280   3.00962   3.03439   3.05845
 Alpha virt. eigenvalues --    3.07036   3.07727   3.09624   3.10101   3.14814
 Alpha virt. eigenvalues --    3.17358   3.26156   3.28752   3.36564   3.47432
 Alpha virt. eigenvalues --    3.48794   3.51013   3.65690   3.73600   3.81607
 Alpha virt. eigenvalues --   10.37897
          Condensed to atoms (all electrons):
               1          2          3          4          5          6
     1  C    4.930377   0.521097  -0.011907  -0.072487  -0.009249   0.505065
     2  C    0.521097   4.918815   0.499854  -0.001421  -0.051122  -0.025881
     3  C   -0.011907   0.499854   4.982193   0.440473  -0.005396  -0.059287
     4  C   -0.072487  -0.001421   0.440473   5.375532   0.423828   0.014676
     5  C   -0.009249  -0.051122  -0.005396   0.423828   5.108723   0.481262
     6  C    0.505065  -0.025881  -0.059287   0.014676   0.481262   4.982536
     7  C    0.003712  -0.000636   0.003952  -0.022707   0.364666  -0.043875
     8  O   -0.000035  -0.000003   0.000141   0.001259  -0.077132  -0.000192
     9  N    0.000217   0.000003  -0.000075   0.001536  -0.124123  -0.001840
    10  C   -0.000001   0.000000   0.000000  -0.000048   0.003658   0.000288
    11  C   -0.000001   0.000000   0.000000   0.000002  -0.000279  -0.000053
    12  C    0.000000   0.000000   0.000000   0.000000   0.000000   0.000000
    13  C    0.000000   0.000000   0.000000   0.000000   0.000000   0.000000
    14  C    0.000000   0.000000   0.000000   0.000000   0.000007   0.000000
    15  C    0.000000   0.000000   0.000000   0.000003   0.000132  -0.000019
    16  F    0.000000   0.000000   0.000000   0.000000   0.000000   0.000000
    17  I    0.001132   0.000366  -0.062179   0.253214  -0.053499  -0.001295
    18  H    0.383314  -0.029352   0.003132  -0.000416   0.002978  -0.030830
    19  H   -0.030614   0.384417  -0.033568   0.004187  -0.000302   0.003137
    20  H    0.002560  -0.027241   0.384794  -0.027258   0.002280   0.000037
    21  H   -0.026686   0.002833  -0.000366   0.005183  -0.040581   0.382451
    22  H   -0.000066  -0.000020  -0.000036  -0.000025   0.004038   0.003608
    23  H    0.000000   0.000000   0.000000   0.000000  -0.000010  -0.000012
    24  H    0.000000   0.000000   0.000000   0.000000   0.000000   0.000000
    25  H    0.000000   0.000000   0.000000   0.000000   0.000000   0.000000
    26  H    0.000000   0.000000   0.000000  -0.000002   0.000249  -0.000005
               7          8          9         10         11         12
     1  C    0.003712  -0.000035   0.000217  -0.000001  -0.000001   0.000000
     2  C   -0.000636  -0.000003   0.000003   0.000000   0.000000   0.000000
     3  C    0.003952   0.000141  -0.000075   0.000000   0.000000   0.000000
     4  C   -0.022707   0.001259   0.001536  -0.000048   0.000002   0.000000
     5  C    0.364666  -0.077132  -0.124123   0.003658  -0.000279   0.000000
     6  C   -0.043875  -0.000192  -0.001840   0.000288  -0.000053   0.000000
     7  C    4.100495   0.602202   0.248917  -0.024280   0.002917  -0.000055
     8  O    0.602202   8.153221  -0.089128   0.001165   0.000257  -0.000004
     9  N    0.248917  -0.089128   7.479263   0.198890  -0.056926   0.002569
    10  C   -0.024280   0.001165   0.198890   4.522080   0.552966  -0.036795
    11  C    0.002917   0.000257  -0.056926   0.552966   5.009558   0.553642
    12  C   -0.000055  -0.000004   0.002569  -0.036795   0.553642   4.881446
    13  C    0.000004  -0.000002   0.000417  -0.019275  -0.058156   0.502185
    14  C    0.000118   0.000677   0.001664  -0.034825  -0.026009  -0.036724
    15  C   -0.002881  -0.009383  -0.038242   0.522400  -0.055888  -0.023980
    16  F    0.000000   0.000000  -0.000010   0.002721   0.000086   0.002848
    17  I    0.005550  -0.006779  -0.000241  -0.000006   0.000003   0.000000
    18  H   -0.000051   0.000000   0.000001   0.000000   0.000000   0.000000
    19  H   -0.000001   0.000000   0.000000   0.000000   0.000000   0.000000
    20  H   -0.000039   0.000001   0.000001   0.000000   0.000000   0.000000
    21  H   -0.003655  -0.000111   0.003476  -0.000007  -0.000008   0.000000
    22  H   -0.019899   0.002122   0.322123  -0.028883   0.000267   0.000128
    23  H    0.000056   0.000001  -0.002867  -0.038746   0.378300  -0.021761
    24  H    0.000001   0.000000  -0.000082   0.001591  -0.028398   0.380900
    25  H    0.000000   0.000000   0.000002  -0.000008   0.002451  -0.027450
    26  H   -0.000195   0.011432  -0.003986  -0.017919   0.002449  -0.000214
              13         14         15         16         17         18
     1  C    0.000000   0.000000   0.000000   0.000000   0.001132   0.383314
     2  C    0.000000   0.000000   0.000000   0.000000   0.000366  -0.029352
     3  C    0.000000   0.000000   0.000000   0.000000  -0.062179   0.003132
     4  C    0.000000   0.000000   0.000003   0.000000   0.253214  -0.000416
     5  C    0.000000   0.000007   0.000132   0.000000  -0.053499   0.002978
     6  C    0.000000   0.000000  -0.000019   0.000000  -0.001295  -0.030830
     7  C    0.000004   0.000118  -0.002881   0.000000   0.005550  -0.000051
     8  O   -0.000002   0.000677  -0.009383   0.000000  -0.006779   0.000000
     9  N    0.000417   0.001664  -0.038242  -0.000010  -0.000241   0.000001
    10  C   -0.019275  -0.034825   0.522400   0.002721  -0.000006   0.000000
    11  C   -0.058156  -0.026009  -0.055888   0.000086   0.000003   0.000000
    12  C    0.502185  -0.036724  -0.023980   0.002848   0.000000   0.000000
    13  C    5.075326   0.558366  -0.078637  -0.035299   0.000000   0.000000
    14  C    0.558366   4.301708   0.532206   0.200016   0.000001   0.000000
    15  C   -0.078637   0.532206   5.157849  -0.028726  -0.000005   0.000000
    16  F   -0.035299   0.200016  -0.028726   9.311965   0.000000   0.000000
    17  I    0.000000   0.000001  -0.000005   0.000000   6.617867   0.000017
    18  H    0.000000   0.000000   0.000000   0.000000   0.000017   0.451883
    19  H    0.000000   0.000000   0.000000   0.000000  -0.000166  -0.001544
    20  H    0.000000   0.000000   0.000000   0.000000  -0.000233  -0.000086
    21  H    0.000000   0.000000  -0.000012   0.000000  -0.000163  -0.001579
    22  H   -0.000002  -0.000007   0.001760   0.000000   0.000066   0.000001
    23  H    0.002002   0.000390   0.002351   0.000000   0.000000   0.000000
    24  H   -0.024433   0.001117   0.000244  -0.000017   0.000000   0.000000
    25  H    0.377875  -0.026647   0.003127  -0.001377   0.000000   0.000000
    26  H    0.002731  -0.025059   0.360540  -0.001561   0.000020   0.000000
              19         20         21         22         23         24
     1  C   -0.030614   0.002560  -0.026686  -0.000066   0.000000   0.000000
     2  C    0.384417  -0.027241   0.002833  -0.000020   0.000000   0.000000
     3  C   -0.033568   0.384794  -0.000366  -0.000036   0.000000   0.000000
     4  C    0.004187  -0.027258   0.005183  -0.000025   0.000000   0.000000
     5  C   -0.000302   0.002280  -0.040581   0.004038  -0.000010   0.000000
     6  C    0.003137   0.000037   0.382451   0.003608  -0.000012   0.000000
     7  C   -0.000001  -0.000039  -0.003655  -0.019899   0.000056   0.000001
     8  O    0.000000   0.000001  -0.000111   0.002122   0.000001   0.000000
     9  N    0.000000   0.000001   0.003476   0.322123  -0.002867  -0.000082
    10  C    0.000000   0.000000  -0.000007  -0.028883  -0.038746   0.001591
    11  C    0.000000   0.000000  -0.000008   0.000267   0.378300  -0.028398
    12  C    0.000000   0.000000   0.000000   0.000128  -0.021761   0.380900
    13  C    0.000000   0.000000   0.000000  -0.000002   0.002002  -0.024433
    14  C    0.000000   0.000000   0.000000  -0.000007   0.000390   0.001117
    15  C    0.000000   0.000000  -0.000012   0.001760   0.002351   0.000244
    16  F    0.000000   0.000000   0.000000   0.000000   0.000000  -0.000017
    17  I   -0.000166  -0.000233  -0.000163   0.000066   0.000000   0.000000
    18  H   -0.001544  -0.000086  -0.001579   0.000001   0.000000   0.000000
    19  H    0.453192  -0.001670  -0.000087   0.000000   0.000000   0.000000
    20  H   -0.001670   0.433542   0.000006   0.000000   0.000000   0.000000
    21  H   -0.000087   0.000006   0.447931  -0.000046   0.000006   0.000000
    22  H    0.000000   0.000000  -0.000046   0.302267   0.004251  -0.000008
    23  H    0.000000   0.000000   0.000006   0.004251   0.476234  -0.001476
    24  H    0.000000   0.000000   0.000000  -0.000008  -0.001476   0.454736
    25  H    0.000000   0.000000   0.000000   0.000000  -0.000088  -0.001448
    26  H    0.000000   0.000000   0.000000  -0.000121  -0.000074   0.000006
              25         26
     1  C    0.000000   0.000000
     2  C    0.000000   0.000000
     3  C    0.000000   0.000000
     4  C    0.000000  -0.000002
     5  C    0.000000   0.000249
     6  C    0.000000  -0.000005
     7  C    0.000000  -0.000195
     8  O    0.000000   0.011432
     9  N    0.000002  -0.003986
    10  C   -0.000008  -0.017919
    11  C    0.002451   0.002449
    12  C   -0.027450  -0.000214
    13  C    0.377875   0.002731
    14  C   -0.026647  -0.025059
    15  C    0.003127   0.360540
    16  F   -0.001377  -0.001561
    17  I    0.000000   0.000020
    18  H    0.000000   0.000000
    19  H    0.000000   0.000000
    20  H    0.000000   0.000000
    21  H    0.000000   0.000000
    22  H    0.000000  -0.000121
    23  H   -0.000088  -0.000074
    24  H   -0.001448   0.000006
    25  H    0.447345  -0.000054
    26  H   -0.000054   0.368499
 Mulliken charges:
               1
     1  C   -0.196429
     2  C   -0.191709
     3  C   -0.141725
     4  C   -0.395531
     5  C   -0.030128
     6  C   -0.209771
     7  C    0.785686
     8  O   -0.589710
     9  N   -0.941558
    10  C    0.395034
    11  C   -0.277179
    12  C   -0.176733
    13  C   -0.303100
    14  C    0.553002
    15  C   -0.342839
    16  F   -0.450644
    17  I    0.246329
    18  H    0.222532
    19  H    0.223019
    20  H    0.233306
    21  H    0.231415
    22  H    0.408482
    23  H    0.201443
    24  H    0.217268
    25  H    0.226274
    26  H    0.303266
 Sum of Mulliken charges =   0.00000
 Mulliken charges with hydrogens summed into heavy atoms:
               1
     1  C    0.026103
     2  C    0.031310
     3  C    0.091581
     4  C   -0.395531
     5  C   -0.030128
     6  C    0.021645
     7  C    0.785686
     8  O   -0.589710
     9  N   -0.533076
    10  C    0.395034
    11  C   -0.075736
    12  C    0.040534
    13  C   -0.076827
    14  C    0.553002
    15  C   -0.039573
    16  F   -0.450644
    17  I    0.246329
 DipInt: DoE/N= T F RetVal/Mat= T F Init=T NMatP=  1 IDeriv=0 Min/MaxMlt=  0  4
 Entering OneElI...
 OneElI was handed   235746098 working-precision words.
 Multipole integrals L=0 to 4 MinM= 0 MaxM= 0.
 Requested accuracy = 0.1000D-12
 ShPair: Thresh= 1.00D-13 NBox=     0 BxSize= 0.00D+00 RnKept= 2.15D+01
         NSMCal=                 3741 NSMKep=                2950
 PrsmSu:  NPrtUS=   1 ThrOK=F IAlg=1 NPAlg=1 LenDen=           0.
 Prism:   IPart=     0 DynPar=F LinDyn=F Incr=          29.
 PRISM was handed   235467898 working-precision words and  2950 shell-pairs
 IPart=  0 NShTot=        2950 NBatch=         110 AvBLen=        26.8
 PrSmSu:  NxtVal=             30.
 Electronic moments (au):
       -118.00000000        207.58082445       -137.23950436         27.12164994
      -4489.93247346      -1081.34712000       -343.63212737       -627.35455010
        110.72397005        -78.70879348      22790.38556814      -3871.83465770
         31.66323183      -1798.22000751      -1879.23067293       -391.18463087
       1470.22181119       -176.14493952        501.08336582       1749.05741572
    -319620.82236901     -28928.25138183      -2759.20266382     -34303.02145945
       5005.62199687     -17784.49118348       1905.77595629       1240.07137845
      -1095.36429049     -34375.67002964     -15772.25420068      -2635.16334343
      -9968.34103944       1367.19232496       -295.89482907
 Electronic spatial extent (au):  <R**2>=           5914.9117
 DipInt: DoE/N= F T RetVal/Mat= T F Init=T NMatP=  1 IDeriv=0 Min/MaxMlt=  0  4
 Nuclear    moments (au):
        118.00000000       -206.88540167        139.40747032        -25.83257705
       4414.16296473       1006.45673303        257.06267518        626.98631506
       -116.18245479         78.28825044     -22565.99265222       3736.07234467
         -7.93895409       1907.07336440       1890.77255269        459.68331885
      -1419.86333085        124.25406948       -491.36432533      -1761.15960443
     303754.68248879      24965.65301415       1525.98699363      33706.87210229
      -5342.23914785      17335.67907039      -2030.09562199       -996.55249596
       1099.94552487      30850.31533922      12630.45102337       1676.42431500
       9987.53047968      -1363.38407655        -19.95362115
 Total      moments (au):
          0.00000000          0.69542277          2.16796596          1.28907289
        -75.76950872        -74.89038696        -86.56945220         -0.36823505
         -5.45848474         -0.42054304        224.39291592       -135.76231303
         23.72427774        108.85335689         11.54187976         68.49868798
         50.35848033        -51.89087004          9.71904049        -12.10218870
     -15866.13988022      -3962.59836768      -1233.21567019       -596.14935716
       -336.61715098       -448.81211309       -124.31966570        243.51888248
          4.58123439      -3525.35469042      -3141.80317731       -958.73902843
         19.18944024          3.80824841       -315.84845022
 Traceless Quadrup. (au):
          3.30694057          4.18606233         -7.49300290         -0.36823505
         -5.45848474         -0.42054304
 Charge=              0.0000 electrons
 Dipole moment (field-independent basis, Debye):
    X=              1.7676    Y=              5.5104    Z=              3.2765  Tot=              6.6502
 Quadrupole moment (field-independent basis, Debye-Ang):
   XX=           -101.9126   YY=           -100.7301   ZZ=           -116.4389
   XY=             -0.4953   XZ=             -7.3418   YZ=             -0.5656
 Traceless Quadrupole moment (field-independent basis, Debye-Ang):
   XX=              4.4479   YY=              5.6304   ZZ=            -10.0783
   XY=             -0.4953   XZ=             -7.3418   YZ=             -0.5656
 Octapole moment (field-independent basis, Debye-Ang**2):
  XXX=            159.7142  YYY=            -96.6304  ZZZ=             16.8860  XYY=             77.4776
  XXY=              8.2151  XXZ=             48.7547  XZZ=             35.8432  YZZ=            -36.9339
  YYZ=              6.9176  XYZ=             -8.6139
 Hexadecapole moment (field-independent basis, Debye-Ang**3):
 XXXX=          -5975.9487 YYYY=          -1492.5045 ZZZZ=           -464.4881 XXXY=           -224.5384
 XXXZ=           -126.7862 YYYX=           -169.0442 YYYZ=            -46.8247 ZZZX=             91.7209
 ZZZY=              1.7255 XXYY=          -1327.8175 XXZZ=          -1183.3537 YYZZ=           -361.1071
 XXYZ=              7.2277 YYXZ=              1.4344 ZZXY=           -118.9637
 N-N= 1.042503444896D+03 E-N=-3.807806813093D+03  KE= 7.284714440523D+02
 Entering OneElI...
 OneElI was handed   235788965 working-precision words.
 Calculate electrostatic properties
    NBasis =   250  MinDer = 0  MaxDer = 0
    NGrid  =    26  NMatD  =   1
 Requested accuracy = 0.1000D-12
 PrtBox:  NBox=     1 Levels=  1 BoxLen=   37.65 SMaxX=       20.45
          Shift=           12.083553            3.030597            2.575919
 Box      1 Number                   0 centers from      1 to     86:
 ShPair: Thresh= 1.00D-13 NBox=     1 BxSize= 3.77D+01 RnKept= 1.75D+01
         NSMCal=                 3741 NSMKep=                2651
 PrsmSu:  NPrtUS=   1 ThrOK=F IAlg=1 NPAlg=1 LenDen=           0.
 Prism:   IPart=     0 DynPar=F LinDyn=F Incr=         512.
 PRISM was handed   235535896 working-precision words and  2651 shell-pairs
 IPart=  0 NShTot=       68926 NBatch=        2738 AvBLen=        25.2
 PrSmSu:  NxtVal=            513.
 --------------------------------------------------------
       Center         ----      EFG at Nuclei      ----
                      3XX-RR        3YY-RR        3ZZ-RR
 --------------------------------------------------------
     1   Atom        0.175666      0.136814     -0.312480
     2   Atom        0.161266      0.173065     -0.334331
     3   Atom        0.120404      0.173860     -0.294264
     4   Atom        0.329939     -0.209845     -0.120094
     5   Atom        0.072668      0.146579     -0.219246
     6   Atom        0.169549      0.136987     -0.306536
     7   Atom        0.160657     -0.038196     -0.122461
     8   Atom        1.582330     -0.858703     -0.723626
     9   Atom       -0.450272      0.275633      0.174639
    10   Atom       -0.086775      0.017417      0.069358
    11   Atom        0.119076     -0.065494     -0.053582
    12   Atom        0.169669     -0.093804     -0.075865
    13   Atom        0.075708     -0.041425     -0.034283
    14   Atom        0.346558     -0.237933     -0.108625
    15   Atom        0.088633     -0.062702     -0.025931
    16   Atom        0.871451     -0.697591     -0.173860
    17   Atom        0.046041     -0.088340      0.042299
    18   Atom        0.143126     -0.298307      0.155181
    19   Atom       -0.191873      0.030549      0.161324
    20   Atom       -0.183690      0.038744      0.144946
    21   Atom       -0.180957      0.039058      0.141899
    22   Atom        0.111767     -0.057045     -0.054722
    23   Atom        0.064067     -0.056846     -0.007222
    24   Atom       -0.000570      0.053496     -0.052926
    25   Atom       -0.285414      0.131192      0.154221
    26   Atom        0.012785      0.043345     -0.056130
 --------------------------------------------------------
                        XY            XZ            YZ
 --------------------------------------------------------
     1   Atom        0.005753      0.081797     -0.067186
     2   Atom       -0.011539      0.087236     -0.077056
     3   Atom       -0.009591      0.078817     -0.072177
     4   Atom        0.041593      0.091339      0.020156
     5   Atom       -0.009262      0.052369     -0.059869
     6   Atom        0.039832      0.074627     -0.066748
     7   Atom        0.187842     -0.037658      0.378988
     8   Atom        0.209881     -0.646639     -0.104625
     9   Atom       -0.208194      0.197106     -0.662556
    10   Atom       -0.003816     -0.064976      0.311232
    11   Atom        0.044989     -0.044708      0.100761
    12   Atom        0.100251     -0.063752      0.263595
    13   Atom        0.059593     -0.026378      0.159093
    14   Atom       -0.130853     -0.297710     -0.031670
    15   Atom        0.008585     -0.085764      0.161621
    16   Atom       -1.195144     -1.117466     -1.752532
    17   Atom        0.011152      0.000641      0.026114
    18   Atom       -0.000319     -0.003512      0.068158
    19   Atom       -0.194739     -0.030184     -0.012540
    20   Atom        0.180842     -0.086615      0.050135
    21   Atom        0.179212     -0.085871      0.050718
    22   Atom       -0.116391     -0.088116     -0.291001
    23   Atom       -0.129885     -0.102105     -0.202870
    24   Atom        0.118158      0.176215     -0.154027
    25   Atom       -0.109171      0.027369     -0.007315
    26   Atom        0.115331      0.168234     -0.161114
 --------------------------------------------------------


 ---------------------------------------------------------------------------------
              Nuclear Quadrupole Coupling Constant in Principal Axis System
 ---------------------------------------------------------------------------------

       Atom             a.u.   MegaHertz   Gauss  10(-4) cm-1        Axes

              Baa    -0.5092     2.445     0.873     0.816  0.9787  0.1179 -0.1678
     9 N(14)  Bbb    -0.4392     2.109     0.753     0.704  0.0420  0.6857  0.7267
              Bcc     0.9484    -4.555    -1.625    -1.519 -0.2008  0.7182 -0.6662
 
              Baa    -0.0942   -15.715    -5.608    -5.242 -0.0770  0.9793 -0.1870
    17 I(127) Bbb     0.0444     7.401     2.641     2.469  0.7333 -0.0714 -0.6762
              Bcc     0.0498     8.315     2.967     2.773  0.6755  0.1892  0.7126
 

 ---------------------------------------------------------------------------------

 No NMR shielding tensors so no spin-rotation constants.
 Leave Link  601 at Fri Jan 17 11:58:00 2014, MaxMem=   235929600 cpu:         0.3
 FitSet:  NAtFit=    26 NAtPot=    26 NAtFrz=     0 MDM=    30 TotChg=   0.00000
 Merz-Kollman atomic radii used.
 Read replacement radii for each type of atom:
 Rad(53) =   2.700000000000D+00
 Atom Element Radius
    1     6    1.50
    2     6    1.50
    3     6    1.50
    4     6    1.50
    5     6    1.50
    6     6    1.50
    7     6    1.50
    8     8    1.40
    9     7    1.50
   10     6    1.50
   11     6    1.50
   12     6    1.50
   13     6    1.50
   14     6    1.50
   15     6    1.50
   16     9    1.35
   17    53    2.70
   18     1    1.20
   19     1    1.20
   20     1    1.20
   21     1    1.20
   22     1    1.20
   23     1    1.20
   24     1    1.20
   25     1    1.20
   26     1    1.20
 Generate VDW surfaces: Layer= 5 Dens= 2 Start= 1.400 Inc= 0.179

 **********************************************************************

            Electrostatic Properties Using The SCF Density

 **********************************************************************

       Atomic Center    1 is at   2.301388  3.277517 -0.452010
       Atomic Center    2 is at   3.487610  2.604359 -0.164446
       Atomic Center    3 is at   3.477767  1.222088  0.031273
       Atomic Center    4 is at   2.282846  0.508513 -0.071950
       Atomic Center    5 is at   1.078631  1.167060 -0.357011
       Atomic Center    6 is at   1.110105  2.560382 -0.539960
       Atomic Center    7 is at  -0.240094  0.452669 -0.552468
       Atomic Center    8 is at  -0.386864 -0.447557 -1.363118
       Atomic Center    9 is at  -1.246654  0.960705  0.244059
       Atomic Center   10 is at  -2.606058  0.591169  0.294426
       Atomic Center   11 is at  -3.417838  1.244921  1.237639
       Atomic Center   12 is at  -4.771241  0.933340  1.332567
       Atomic Center   13 is at  -5.343278 -0.027660  0.497363
       Atomic Center   14 is at  -4.515905 -0.658108 -0.424577
       Atomic Center   15 is at  -3.160861 -0.378580 -0.552675
       Atomic Center   16 is at  -5.049223 -1.591032 -1.239979
       Atomic Center   17 is at   2.379979 -1.603723  0.297174
       Atomic Center   18 is at   2.301384  4.351888 -0.610702
       Atomic Center   19 is at   4.425474  3.147619 -0.089943
       Atomic Center   20 is at   4.400017  0.702234  0.265411
       Atomic Center   21 is at   0.184951  3.076920 -0.782142
       Atomic Center   22 is at  -0.962010  1.652929  0.924014
       Atomic Center   23 is at  -2.985646  1.996471  1.894257
       Atomic Center   24 is at  -5.387829  1.445484  2.065519
       Atomic Center   25 is at  -6.394341 -0.288810  0.550611
       Atomic Center   26 is at  -2.554841 -0.898634 -1.279956
      ESP Fit Center   27 is at   2.301388  3.277517  1.647990
      ESP Fit Center   28 is at   2.660509  3.899533  1.521345
      ESP Fit Center   29 is at   1.942267  3.899533  1.521345
      ESP Fit Center   30 is at   1.583146  3.277517  1.521345
      ESP Fit Center   31 is at   1.942267  2.655501  1.521345
      ESP Fit Center   32 is at   2.862138  4.505387  1.156683
      ESP Fit Center   33 is at   2.109284  4.613631  1.156683
      ESP Fit Center   34 is at   1.417422  4.297669  1.156683
      ESP Fit Center   35 is at   3.518305  4.629040  0.597990
      ESP Fit Center   36 is at   0.830067  4.346495  0.597990
      ESP Fit Center   37 is at   3.436958  4.007303 -2.060703
      ESP Fit Center   38 is at   1.417422  4.297669 -2.060703
      ESP Fit Center   39 is at   3.019630  3.277517 -2.425364
      ESP Fit Center   40 is at   2.660509  3.899533 -2.425364
      ESP Fit Center   41 is at   1.942267  3.899533 -2.425364
      ESP Fit Center   42 is at   2.660509  2.655501 -2.425364
      ESP Fit Center   43 is at   2.301388  3.277517 -2.552010
      ESP Fit Center   44 is at   3.487610  2.604359  1.935554
      ESP Fit Center   45 is at   4.205852  2.604359  1.808909
      ESP Fit Center   46 is at   3.846731  3.226375  1.808909
      ESP Fit Center   47 is at   3.128489  3.226375  1.808909
      ESP Fit Center   48 is at   2.769368  2.604359  1.808909
      ESP Fit Center   49 is at   4.048360  3.832229  1.444247
      ESP Fit Center   50 is at   3.295506  3.940473  1.444247
      ESP Fit Center   51 is at   2.192435  2.224061  1.444247
      ESP Fit Center   52 is at   5.416052  1.857276 -0.529107
      ESP Fit Center   53 is at   5.149033  1.864646 -1.214446
      ESP Fit Center   54 is at   4.837464  2.604359 -1.773139
      ESP Fit Center   55 is at   4.623180  3.334145 -1.773139
      ESP Fit Center   56 is at   4.048360  3.832229 -1.773139
      ESP Fit Center   57 is at   4.623180  1.874573 -1.773139
      ESP Fit Center   58 is at   4.205852  2.604359 -2.137800
      ESP Fit Center   59 is at   3.846731  3.226375 -2.137800
      ESP Fit Center   60 is at   3.128489  1.982343 -2.137800
      ESP Fit Center   61 is at   3.846731  1.982343 -2.137800
      ESP Fit Center   62 is at   3.487610  2.604359 -2.264446
      ESP Fit Center   63 is at   3.836888  1.844104  2.004628
      ESP Fit Center   64 is at   3.118646  1.844104  2.004628
      ESP Fit Center   65 is at   4.613337  1.951874  1.639966
      ESP Fit Center   66 is at   4.827621  1.222088 -1.577420
      ESP Fit Center   67 is at   4.196009  1.222088 -1.942081
      ESP Fit Center   68 is at   3.477767  1.222088 -2.068727
      ESP Fit Center   69 is at   0.719510  1.789076  1.616344
      ESP Fit Center   70 is at   1.796873  1.167060 -2.330365
      ESP Fit Center   71 is at   1.078631  1.167060 -2.457011
      ESP Fit Center   72 is at   1.110105  2.560382  1.560040
      ESP Fit Center   73 is at   0.750984  3.182398  1.433395
      ESP Fit Center   74 is at   0.391863  2.560382  1.433395
      ESP Fit Center   75 is at   0.918001  3.896496  1.068733
      ESP Fit Center   76 is at   0.226139  3.580534  1.068733
      ESP Fit Center   77 is at   0.918001  3.896496 -2.148653
      ESP Fit Center   78 is at   2.245675  1.830596 -2.148653
      ESP Fit Center   79 is at   1.828347  2.560382 -2.513314
      ESP Fit Center   80 is at   1.469226  3.182398 -2.513314
      ESP Fit Center   81 is at   0.750984  3.182398 -2.513314
      ESP Fit Center   82 is at   0.391863  2.560382 -2.513314
      ESP Fit Center   83 is at   0.750984  1.938366 -2.513314
      ESP Fit Center   84 is at   1.469226  1.938366 -2.513314
      ESP Fit Center   85 is at   1.110105  2.560382 -2.639960
      ESP Fit Center   86 is at  -1.149421  2.027669 -1.602468
      ESP Fit Center   87 is at  -0.432198  1.788783 -2.161161
      ESP Fit Center   88 is at  -1.124060  1.472821 -2.161161
      ESP Fit Center   89 is at   0.119027  1.074685 -2.525822
      ESP Fit Center   90 is at  -1.292266 -2.015759 -0.613058
      ESP Fit Center   91 is at  -1.851835  0.616807 -2.113177
      ESP Fit Center   92 is at  -1.292266 -2.015759 -2.113177
      ESP Fit Center   93 is at  -0.576144 -2.248441 -2.113177
      ESP Fit Center   94 is at   0.813386  0.245408 -2.749047
      ESP Fit Center   95 is at   0.306101  0.752693 -2.749047
      ESP Fit Center   96 is at  -0.386864  0.938372 -2.749047
      ESP Fit Center   97 is at  -1.079829  0.752693 -2.749047
      ESP Fit Center   98 is at  -1.587114  0.245408 -2.749047
      ESP Fit Center   99 is at  -1.772793 -0.447557 -2.749047
      ESP Fit Center  100 is at  -1.587114 -1.140522 -2.749047
      ESP Fit Center  101 is at  -1.079829 -1.647807 -2.749047
      ESP Fit Center  102 is at  -0.386864 -1.833486 -2.749047
      ESP Fit Center  103 is at   0.363196 -0.447557 -3.173922
      ESP Fit Center  104 is at  -0.011834  0.202014 -3.173922
      ESP Fit Center  105 is at  -0.761894  0.202014 -3.173922
      ESP Fit Center  106 is at  -1.136923 -0.447557 -3.173922
      ESP Fit Center  107 is at  -0.761894 -1.097128 -3.173922
      ESP Fit Center  108 is at  -0.011834 -1.097128 -3.173922
      ESP Fit Center  109 is at  -0.386864 -0.447557 -3.323118
      ESP Fit Center  110 is at  -1.605775  0.338689  2.217414
      ESP Fit Center  111 is at  -0.887533  0.338689  2.217414
      ESP Fit Center  112 is at  -1.438758 -0.375409  1.852752
      ESP Fit Center  113 is at  -1.436755 -0.847986  1.294059
      ESP Fit Center  114 is at  -1.812615  2.949853 -0.120602
      ESP Fit Center  115 is at  -2.155981  2.535705 -0.805941
      ESP Fit Center  116 is at  -1.438758  2.296819 -1.364634
      ESP Fit Center  117 is at  -2.130620  1.980857 -1.364634
      ESP Fit Center  118 is at  -1.605775  1.582721 -1.729295
      ESP Fit Center  119 is at  -1.964896  0.960705 -1.729295
      ESP Fit Center  120 is at  -2.798162 -0.744945  1.903119
      ESP Fit Center  121 is at  -2.045308 -0.636701  1.903119
      ESP Fit Center  122 is at  -2.796159 -1.217522  1.344426
      ESP Fit Center  123 is at  -2.044063 -1.138473  1.344426
      ESP Fit Center  124 is at  -1.684228 -1.260115  0.659087
      ESP Fit Center  125 is at  -2.796159  2.399860 -0.755574
      ESP Fit Center  126 is at  -3.515385  2.166169 -0.755574
      ESP Fit Center  127 is at  -4.077379  1.660147 -0.755574
      ESP Fit Center  128 is at  -2.798162  1.927283 -1.314267
      ESP Fit Center  129 is at  -3.490024  1.611321 -1.314267
      ESP Fit Center  130 is at  -2.246937  1.213185 -1.678928
      ESP Fit Center  131 is at  -3.417838  1.244921  3.337639
      ESP Fit Center  132 is at  -3.776959  0.622905  3.210994
      ESP Fit Center  133 is at  -3.058717  0.622905  3.210994
      ESP Fit Center  134 is at  -3.609942 -0.091193  2.846332
      ESP Fit Center  135 is at  -2.857088  0.017051  2.846332
      ESP Fit Center  136 is at  -2.282268  0.515135  2.846332
      ESP Fit Center  137 is at  -3.607939 -0.563770  2.287639
      ESP Fit Center  138 is at  -2.855843 -0.484721  2.287639
      ESP Fit Center  139 is at  -2.200921 -0.106602  2.287639
      ESP Fit Center  140 is at  -1.756415  0.505208  2.287639
      ESP Fit Center  141 is at  -3.983799  3.234069  0.872978
      ESP Fit Center  142 is at  -2.855843  2.974563  0.187639
      ESP Fit Center  143 is at  -3.607939  3.053612  0.187639
      ESP Fit Center  144 is at  -4.327165  2.819921  0.187639
      ESP Fit Center  145 is at  -3.609942  2.581035 -0.371054
      ESP Fit Center  146 is at  -4.301804  2.265073 -0.371054
      ESP Fit Center  147 is at  -4.052999  0.933340  3.305922
      ESP Fit Center  148 is at  -5.130362  0.311324  3.305922
      ESP Fit Center  149 is at  -4.412120  0.311324  3.305922
      ESP Fit Center  150 is at  -5.655207 -0.086812  2.941260
      ESP Fit Center  151 is at  -4.963345 -0.402774  2.941260
      ESP Fit Center  152 is at  -4.210491 -0.294530  2.941260
      ESP Fit Center  153 is at  -4.961342 -0.875351  2.382567
      ESP Fit Center  154 is at  -4.209246 -0.796302  2.382567
      ESP Fit Center  155 is at  -4.580421  2.992614  1.697228
      ESP Fit Center  156 is at  -3.849411 -0.917944  1.697228
      ESP Fit Center  157 is at  -4.580421  2.992614  0.967906
      ESP Fit Center  158 is at  -5.337202  2.922488  0.967906
      ESP Fit Center  159 is at  -6.017547  2.583717  0.967906
      ESP Fit Center  160 is at  -6.529572  2.022052  0.967906
      ESP Fit Center  161 is at  -4.961342  2.742031  0.282567
      ESP Fit Center  162 is at  -5.680568  2.508340  0.282567
      ESP Fit Center  163 is at  -6.242562  2.002318  0.282567
      ESP Fit Center  164 is at  -4.963345  2.269454 -0.276126
      ESP Fit Center  165 is at  -5.655207  1.953492 -0.276126
      ESP Fit Center  166 is at  -4.412120  1.555356 -0.640787
      ESP Fit Center  167 is at  -5.702399 -0.649676  2.470718
      ESP Fit Center  168 is at  -6.227244 -1.047812  2.106056
      ESP Fit Center  169 is at  -5.535382 -1.363774  2.106056
      ESP Fit Center  170 is at  -4.782528 -1.255530  2.106056
      ESP Fit Center  171 is at  -5.533379 -1.836351  1.547363
      ESP Fit Center  172 is at  -4.781283 -1.757302  1.547363
      ESP Fit Center  173 is at  -4.126361 -1.379183  1.547363
      ESP Fit Center  174 is at  -5.909239 -2.016808  0.862024
      ESP Fit Center  175 is at  -6.589584  1.622717  0.132702
      ESP Fit Center  176 is at  -5.533379  1.781031 -0.552637
      ESP Fit Center  177 is at  -6.252605  1.547340 -0.552637
      ESP Fit Center  178 is at  -6.814599  1.041318 -0.552637
      ESP Fit Center  179 is at  -5.535382  1.308454 -1.111330
      ESP Fit Center  180 is at  -6.227244  0.992492 -1.111330
      ESP Fit Center  181 is at  -6.638453  0.352638 -1.111330
      ESP Fit Center  182 is at  -6.638453 -0.407958 -1.111330
      ESP Fit Center  183 is at  -4.708009 -1.994222  1.184116
      ESP Fit Center  184 is at  -3.955155 -1.885978  1.184116
      ESP Fit Center  185 is at  -5.425232 -2.233108  0.625423
      ESP Fit Center  186 is at  -4.706006 -2.466799  0.625423
      ESP Fit Center  187 is at  -3.953910 -2.387750  0.625423
      ESP Fit Center  188 is at  -3.594075 -2.509392 -0.059916
      ESP Fit Center  189 is at  -4.325085  1.401166 -0.789238
      ESP Fit Center  190 is at  -4.706006  1.150583 -1.474577
      ESP Fit Center  191 is at  -5.425232  0.916892 -1.474577
      ESP Fit Center  192 is at  -5.987226  0.410870 -1.474577
      ESP Fit Center  193 is at  -4.708009  0.678006 -2.033270
      ESP Fit Center  194 is at  -5.399871  0.362044 -2.033270
      ESP Fit Center  195 is at  -4.156784 -0.036092 -2.397931
      ESP Fit Center  196 is at  -4.875026 -0.036092 -2.397931
      ESP Fit Center  197 is at  -3.519982 -1.000596  1.420680
      ESP Fit Center  198 is at  -3.352965 -1.714694  1.056018
      ESP Fit Center  199 is at  -2.600111 -1.606450  1.056018
      ESP Fit Center  200 is at  -3.350962 -2.187271  0.497325
      ESP Fit Center  201 is at  -2.598866 -2.108222  0.497325
      ESP Fit Center  202 is at  -1.943944 -1.730103  0.497325
      ESP Fit Center  203 is at  -2.970041 -2.437854 -0.188014
      ESP Fit Center  204 is at  -2.239031 -2.229864 -0.188014
      ESP Fit Center  205 is at  -3.350962  1.430111 -1.602675
      ESP Fit Center  206 is at  -4.070188  1.196420 -1.602675
      ESP Fit Center  207 is at  -2.600111  0.849290 -2.161368
      ESP Fit Center  208 is at  -3.352965  0.957534 -2.161368
      ESP Fit Center  209 is at  -4.044827  0.641572 -2.161368
      ESP Fit Center  210 is at  -2.801740  0.243436 -2.526029
      ESP Fit Center  211 is at  -3.519982  0.243436 -2.526029
      ESP Fit Center  212 is at  -3.879103 -0.378580 -2.526029
      ESP Fit Center  213 is at  -6.331520 -1.967548  0.096453
      ESP Fit Center  214 is at  -5.924400 -2.601040  0.096453
      ESP Fit Center  215 is at  -5.239417 -2.913861  0.096453
      ESP Fit Center  216 is at  -4.494049 -2.806693  0.096453
      ESP Fit Center  217 is at  -6.795355 -1.591032 -0.516707
      ESP Fit Center  218 is at  -6.622434 -2.348650 -0.516707
      ESP Fit Center  219 is at  -6.137919 -2.956213 -0.516707
      ESP Fit Center  220 is at  -5.437774 -3.293385 -0.516707
      ESP Fit Center  221 is at  -4.660672 -3.293385 -0.516707
      ESP Fit Center  222 is at  -3.960527 -2.956213 -0.516707
      ESP Fit Center  223 is at  -6.795355 -0.867760 -1.239979
      ESP Fit Center  224 is at  -6.939223 -1.591032 -1.239979
      ESP Fit Center  225 is at  -6.795355 -2.314304 -1.239979
      ESP Fit Center  226 is at  -6.385655 -2.927464 -1.239979
      ESP Fit Center  227 is at  -5.772495 -3.337164 -1.239979
      ESP Fit Center  228 is at  -5.049223 -3.481032 -1.239979
      ESP Fit Center  229 is at  -4.325951 -3.337164 -1.239979
      ESP Fit Center  230 is at  -3.712791 -2.927464 -1.239979
      ESP Fit Center  231 is at  -6.137919 -0.225851 -1.963251
      ESP Fit Center  232 is at  -6.622434 -0.833414 -1.963251
      ESP Fit Center  233 is at  -6.795355 -1.591032 -1.963251
      ESP Fit Center  234 is at  -6.622434 -2.348650 -1.963251
      ESP Fit Center  235 is at  -6.137919 -2.956213 -1.963251
      ESP Fit Center  236 is at  -5.437774 -3.293385 -1.963251
      ESP Fit Center  237 is at  -4.660672 -3.293385 -1.963251
      ESP Fit Center  238 is at  -3.960527 -2.956213 -1.963251
      ESP Fit Center  239 is at  -3.476012 -2.348650 -1.963251
      ESP Fit Center  240 is at  -3.712791 -1.591032 -2.576411
      ESP Fit Center  241 is at  -3.924945 -0.868502 -2.576411
      ESP Fit Center  242 is at  -4.494049 -0.375371 -2.576411
      ESP Fit Center  243 is at  -5.239417 -0.268203 -2.576411
      ESP Fit Center  244 is at  -5.924400 -0.581024 -2.576411
      ESP Fit Center  245 is at  -6.331520 -1.214516 -2.576411
      ESP Fit Center  246 is at  -6.331520 -1.967548 -2.576411
      ESP Fit Center  247 is at  -5.924400 -2.601040 -2.576411
      ESP Fit Center  248 is at  -5.239417 -2.913861 -2.576411
      ESP Fit Center  249 is at  -4.494049 -2.806693 -2.576411
      ESP Fit Center  250 is at  -3.924945 -2.313562 -2.576411
      ESP Fit Center  251 is at  -4.325951 -1.591032 -2.986111
      ESP Fit Center  252 is at  -4.687587 -0.964660 -2.986111
      ESP Fit Center  253 is at  -5.410859 -0.964660 -2.986111
      ESP Fit Center  254 is at  -5.772495 -1.591032 -2.986111
      ESP Fit Center  255 is at  -5.410859 -2.217404 -2.986111
      ESP Fit Center  256 is at  -4.687587 -2.217404 -2.986111
      ESP Fit Center  257 is at  -5.049223 -1.591032 -3.129979
      ESP Fit Center  258 is at   2.379979 -1.603723  4.077174
      ESP Fit Center  259 is at   3.117421 -1.603723  4.004543
      ESP Fit Center  260 is at   2.748700 -0.965080  4.004543
      ESP Fit Center  261 is at   2.011258 -0.965080  4.004543
      ESP Fit Center  262 is at   1.642538 -1.603723  4.004543
      ESP Fit Center  263 is at   2.011258 -2.242366  4.004543
      ESP Fit Center  264 is at   2.748700 -2.242366  4.004543
      ESP Fit Center  265 is at   3.826522 -1.603723  3.789439
      ESP Fit Center  266 is at   3.632722 -0.880451  3.789439
      ESP Fit Center  267 is at   3.103251 -0.350980  3.789439
      ESP Fit Center  268 is at   2.379979 -0.157180  3.789439
      ESP Fit Center  269 is at   1.656707 -0.350980  3.789439
      ESP Fit Center  270 is at   1.127236 -0.880451  3.789439
      ESP Fit Center  271 is at   0.933436 -1.603723  3.789439
      ESP Fit Center  272 is at   1.127236 -2.326995  3.789439
      ESP Fit Center  273 is at   1.656707 -2.856466  3.789439
      ESP Fit Center  274 is at   2.379979 -3.050266  3.789439
      ESP Fit Center  275 is at   3.103251 -2.856466  3.789439
      ESP Fit Center  276 is at   3.632722 -2.326995  3.789439
      ESP Fit Center  277 is at   4.480035 -1.603723  3.440129
      ESP Fit Center  278 is at   4.353386 -0.885462  3.440129
      ESP Fit Center  279 is at   3.988715 -0.253833  3.440129
      ESP Fit Center  280 is at   3.430007  0.214978  3.440129
      ESP Fit Center  281 is at   2.744650  0.464428  3.440129
      ESP Fit Center  282 is at   2.015308  0.464428  3.440129
      ESP Fit Center  283 is at   1.329951  0.214978  3.440129
      ESP Fit Center  284 is at   0.771243 -0.253833  3.440129
      ESP Fit Center  285 is at   0.406572 -0.885462  3.440129
      ESP Fit Center  286 is at   0.279924 -1.603723  3.440129
      ESP Fit Center  287 is at   0.406572 -2.321984  3.440129
      ESP Fit Center  288 is at   0.771243 -2.953613  3.440129
      ESP Fit Center  289 is at   1.329951 -3.422424  3.440129
      ESP Fit Center  290 is at   2.015308 -3.671874  3.440129
      ESP Fit Center  291 is at   2.744650 -3.671874  3.440129
      ESP Fit Center  292 is at   3.430007 -3.422424  3.440129
      ESP Fit Center  293 is at   3.988715 -2.953613  3.440129
      ESP Fit Center  294 is at   4.353386 -2.321984  3.440129
      ESP Fit Center  295 is at   5.052843 -1.603723  2.970038
      ESP Fit Center  296 is at   4.953726 -0.882593  2.970038
      ESP Fit Center  297 is at   4.663726 -0.214946  2.970038
      ESP Fit Center  298 is at   4.204351  0.349702  2.970038
      ESP Fit Center  299 is at   3.609670  0.769473  2.970038
      ESP Fit Center  300 is at   2.923789  1.013235  2.970038
      ESP Fit Center  301 is at   2.197576  1.062910  2.970038
      ESP Fit Center  302 is at   1.484892  0.914812  2.970038
      ESP Fit Center  303 is at   0.838591  0.579926  2.970038
      ESP Fit Center  304 is at   0.306609  0.083089  2.970038
      ESP Fit Center  305 is at  -0.071602 -0.538851  2.970038
      ESP Fit Center  306 is at  -0.267989 -1.239768  2.970038
      ESP Fit Center  307 is at  -0.267989 -1.967678  2.970038
      ESP Fit Center  308 is at  -0.071602 -2.668595  2.970038
      ESP Fit Center  309 is at   0.306609 -3.290535  2.970038
      ESP Fit Center  310 is at   0.838591 -3.787372  2.970038
      ESP Fit Center  311 is at   1.484892 -4.122258  2.970038
      ESP Fit Center  312 is at   2.197576 -4.270356  2.970038
      ESP Fit Center  313 is at   2.923789 -4.220681  2.970038
      ESP Fit Center  314 is at   3.609670 -3.976919  2.970038
      ESP Fit Center  315 is at   4.204351 -3.557148  2.970038
      ESP Fit Center  316 is at   4.663726 -2.992500  2.970038
      ESP Fit Center  317 is at   4.953726 -2.324853  2.970038
      ESP Fit Center  318 is at   5.522934 -1.603723  2.397230
      ESP Fit Center  319 is at   5.438215 -0.878908  2.397230
      ESP Fit Center  320 is at   5.188626 -0.193167  2.397230
      ESP Fit Center  321 is at   4.787622  0.416530  2.397230
      ESP Fit Center  322 is at   4.256822  0.917314  2.397230
      ESP Fit Center  323 is at   3.624840  1.282189  2.397230
      ESP Fit Center  324 is at   2.925748  1.491484  2.397230
      ESP Fit Center  325 is at   2.197233  1.533915  2.397230
      ESP Fit Center  326 is at   1.478569  1.407195  2.397230
      ESP Fit Center  327 is at   0.808502  1.118156  2.397230
      ESP Fit Center  328 is at   0.223152  0.682380  2.397230
      ESP Fit Center  329 is at  -0.245922  0.123359  2.397230
      ESP Fit Center  330 is at  -0.573433 -0.528769  2.397230
      ESP Fit Center  331 is at  -0.741724 -1.238848  2.397230
      ESP Fit Center  332 is at  -0.741724 -1.968598  2.397230
      ESP Fit Center  333 is at  -0.573433 -2.678677  2.397230
      ESP Fit Center  334 is at  -0.245922 -3.330805  2.397230
      ESP Fit Center  335 is at   0.223152 -3.889826  2.397230
      ESP Fit Center  336 is at   0.808502 -4.325602  2.397230
      ESP Fit Center  337 is at   1.478569 -4.614641  2.397230
      ESP Fit Center  338 is at   2.197233 -4.741361  2.397230
      ESP Fit Center  339 is at   2.925748 -4.698930  2.397230
      ESP Fit Center  340 is at   3.624840 -4.489635  2.397230
      ESP Fit Center  341 is at   4.256822 -4.124760  2.397230
      ESP Fit Center  342 is at   4.787622 -3.623976  2.397230
      ESP Fit Center  343 is at   5.188626 -3.014279  2.397230
      ESP Fit Center  344 is at   5.438215 -2.328538  2.397230
      ESP Fit Center  345 is at   5.872244 -1.603723  1.743718
      ESP Fit Center  346 is at   5.795929 -0.877640  1.743718
      ESP Fit Center  347 is at   5.570322 -0.183291  1.743718
      ESP Fit Center  348 is at   5.205281  0.448979  1.743718
      ESP Fit Center  349 is at   2.014938  1.869411  1.743718
      ESP Fit Center  350 is at   1.300810  1.717618  1.743718
      ESP Fit Center  351 is at   0.633847  1.420667  1.743718
      ESP Fit Center  352 is at  -1.035971 -0.877640  1.743718
      ESP Fit Center  353 is at  -1.112286 -1.603723  1.743718
      ESP Fit Center  354 is at  -1.035971 -2.329806  1.743718
      ESP Fit Center  355 is at  -0.810363 -3.024155  1.743718
      ESP Fit Center  356 is at  -0.445322 -3.656425  1.743718
      ESP Fit Center  357 is at   0.043198 -4.198981  1.743718
      ESP Fit Center  358 is at   0.633847 -4.628113  1.743718
      ESP Fit Center  359 is at   1.300810 -4.925064  1.743718
      ESP Fit Center  360 is at   2.014938 -5.076857  1.743718
      ESP Fit Center  361 is at   2.745020 -5.076857  1.743718
      ESP Fit Center  362 is at   3.459148 -4.925064  1.743718
      ESP Fit Center  363 is at   4.126111 -4.628113  1.743718
      ESP Fit Center  364 is at   4.716760 -4.198981  1.743718
      ESP Fit Center  365 is at   5.205281 -3.656425  1.743718
      ESP Fit Center  366 is at   5.570322 -3.024155  1.743718
      ESP Fit Center  367 is at   5.795929 -2.329806  1.743718
      ESP Fit Center  368 is at   6.087347 -1.603723  1.034616
      ESP Fit Center  369 is at   6.016111 -0.880451  1.034616
      ESP Fit Center  370 is at   5.805141 -0.184975  1.034616
      ESP Fit Center  371 is at  -1.327389 -1.603723  1.034616
      ESP Fit Center  372 is at  -1.256153 -2.326995  1.034616
      ESP Fit Center  373 is at  -1.045183 -3.022471  1.034616
      ESP Fit Center  374 is at  -0.702585 -3.663426  1.034616
      ESP Fit Center  375 is at  -0.241526 -4.225228  1.034616
      ESP Fit Center  376 is at   0.320276 -4.686287  1.034616
      ESP Fit Center  377 is at   0.961231 -5.028885  1.034616
      ESP Fit Center  378 is at   1.656707 -5.239855  1.034616
      ESP Fit Center  379 is at   2.379979 -5.311091  1.034616
      ESP Fit Center  380 is at   3.103251 -5.239855  1.034616
      ESP Fit Center  381 is at   3.798728 -5.028885  1.034616
      ESP Fit Center  382 is at   4.439683 -4.686287  1.034616
      ESP Fit Center  383 is at   5.001484 -4.225228  1.034616
      ESP Fit Center  384 is at   5.462543 -3.663426  1.034616
      ESP Fit Center  385 is at   5.805141 -3.022471  1.034616
      ESP Fit Center  386 is at   6.016111 -2.326995  1.034616
      ESP Fit Center  387 is at   6.159979 -1.603723  0.297174
      ESP Fit Center  388 is at   6.091670 -0.888353  0.297174
      ESP Fit Center  389 is at   5.889210 -0.198839  0.297174
      ESP Fit Center  390 is at  -1.382905 -1.244411  0.297174
      ESP Fit Center  391 is at  -1.382905 -1.963035  0.297174
      ESP Fit Center  392 is at  -1.246904 -2.668672  0.297174
      ESP Fit Center  393 is at  -0.979819 -3.335819  0.297174
      ESP Fit Center  394 is at  -0.591302 -3.940364  0.297174
      ESP Fit Center  395 is at  -0.095394 -4.460456  0.297174
      ESP Fit Center  396 is at   0.489979 -4.877299  0.297174
      ESP Fit Center  397 is at   1.143662 -5.175826  0.297174
      ESP Fit Center  398 is at   1.842029 -5.345248  0.297174
      ESP Fit Center  399 is at   2.559839 -5.379441  0.297174
      ESP Fit Center  400 is at   3.271148 -5.277171  0.297174
      ESP Fit Center  401 is at   3.950248 -5.042132  0.297174
      ESP Fit Center  402 is at   4.572594 -4.682820  0.297174
      ESP Fit Center  403 is at   5.115694 -4.212222  0.297174
      ESP Fit Center  404 is at   5.559917 -3.647345  0.297174
      ESP Fit Center  405 is at   5.889210 -3.008607  0.297174
      ESP Fit Center  406 is at   6.091670 -2.319093  0.297174
      ESP Fit Center  407 is at   6.087347 -1.603723 -0.440267
      ESP Fit Center  408 is at   6.016111 -0.880451 -0.440267
      ESP Fit Center  409 is at   5.805141 -0.184975 -0.440267
      ESP Fit Center  410 is at  -1.256153 -2.326995 -0.440267
      ESP Fit Center  411 is at  -1.045183 -3.022471 -0.440267
      ESP Fit Center  412 is at  -0.702585 -3.663426 -0.440267
      ESP Fit Center  413 is at  -0.241526 -4.225228 -0.440267
      ESP Fit Center  414 is at   0.320276 -4.686287 -0.440267
      ESP Fit Center  415 is at   0.961231 -5.028885 -0.440267
      ESP Fit Center  416 is at   1.656707 -5.239855 -0.440267
      ESP Fit Center  417 is at   2.379979 -5.311091 -0.440267
      ESP Fit Center  418 is at   3.103251 -5.239855 -0.440267
      ESP Fit Center  419 is at   3.798728 -5.028885 -0.440267
      ESP Fit Center  420 is at   4.439683 -4.686287 -0.440267
      ESP Fit Center  421 is at   5.001484 -4.225228 -0.440267
      ESP Fit Center  422 is at   5.462543 -3.663426 -0.440267
      ESP Fit Center  423 is at   5.805141 -3.022471 -0.440267
      ESP Fit Center  424 is at   6.016111 -2.326995 -0.440267
      ESP Fit Center  425 is at   5.872244 -1.603723 -1.149369
      ESP Fit Center  426 is at   5.795929 -0.877640 -1.149369
      ESP Fit Center  427 is at   5.570322 -0.183291 -1.149369
      ESP Fit Center  428 is at  -1.035971 -2.329806 -1.149369
      ESP Fit Center  429 is at  -0.810363 -3.024155 -1.149369
      ESP Fit Center  430 is at  -0.445322 -3.656425 -1.149369
      ESP Fit Center  431 is at   0.043198 -4.198981 -1.149369
      ESP Fit Center  432 is at   0.633847 -4.628113 -1.149369
      ESP Fit Center  433 is at   1.300810 -4.925064 -1.149369
      ESP Fit Center  434 is at   2.014938 -5.076857 -1.149369
      ESP Fit Center  435 is at   2.745020 -5.076857 -1.149369
      ESP Fit Center  436 is at   3.459148 -4.925064 -1.149369
      ESP Fit Center  437 is at   4.126111 -4.628113 -1.149369
      ESP Fit Center  438 is at   4.716760 -4.198981 -1.149369
      ESP Fit Center  439 is at   5.205281 -3.656425 -1.149369
      ESP Fit Center  440 is at   5.570322 -3.024155 -1.149369
      ESP Fit Center  441 is at   5.795929 -2.329806 -1.149369
      ESP Fit Center  442 is at   5.522934 -1.603723 -1.802881
      ESP Fit Center  443 is at   5.438215 -0.878908 -1.802881
      ESP Fit Center  444 is at   5.188626 -0.193167 -1.802881
      ESP Fit Center  445 is at   4.787622  0.416530 -1.802881
      ESP Fit Center  446 is at  -0.573433 -2.678677 -1.802881
      ESP Fit Center  447 is at  -0.245922 -3.330805 -1.802881
      ESP Fit Center  448 is at   0.223152 -3.889826 -1.802881
      ESP Fit Center  449 is at   0.808502 -4.325602 -1.802881
      ESP Fit Center  450 is at   1.478569 -4.614641 -1.802881
      ESP Fit Center  451 is at   2.197233 -4.741361 -1.802881
      ESP Fit Center  452 is at   2.925748 -4.698930 -1.802881
      ESP Fit Center  453 is at   3.624840 -4.489635 -1.802881
      ESP Fit Center  454 is at   4.256822 -4.124760 -1.802881
      ESP Fit Center  455 is at   4.787622 -3.623976 -1.802881
      ESP Fit Center  456 is at   5.188626 -3.014279 -1.802881
      ESP Fit Center  457 is at   5.438215 -2.328538 -1.802881
      ESP Fit Center  458 is at   5.052843 -1.603723 -2.375689
      ESP Fit Center  459 is at   4.953726 -0.882593 -2.375689
      ESP Fit Center  460 is at   4.663726 -0.214946 -2.375689
      ESP Fit Center  461 is at   4.204351  0.349702 -2.375689
      ESP Fit Center  462 is at   3.609670  0.769473 -2.375689
      ESP Fit Center  463 is at   2.923789  1.013235 -2.375689
      ESP Fit Center  464 is at   2.197576  1.062910 -2.375689
      ESP Fit Center  465 is at  -0.071602 -2.668595 -2.375689
      ESP Fit Center  466 is at   0.306609 -3.290535 -2.375689
      ESP Fit Center  467 is at   0.838591 -3.787372 -2.375689
      ESP Fit Center  468 is at   1.484892 -4.122258 -2.375689
      ESP Fit Center  469 is at   2.197576 -4.270356 -2.375689
      ESP Fit Center  470 is at   2.923789 -4.220681 -2.375689
      ESP Fit Center  471 is at   3.609670 -3.976919 -2.375689
      ESP Fit Center  472 is at   4.204351 -3.557148 -2.375689
      ESP Fit Center  473 is at   4.663726 -2.992500 -2.375689
      ESP Fit Center  474 is at   4.953726 -2.324853 -2.375689
      ESP Fit Center  475 is at   4.480035 -1.603723 -2.845781
[...]
 3754 Fit      -0.004103
 3755 Fit      -0.003654
 3756 Fit      -0.003171
 3757 Fit      -0.002707
 3758 Fit      -0.002293
 3759 Fit      -0.001940
 3760 Fit      -0.001637
 3761 Fit      -0.001356
 3762 Fit      -0.001059
 3763 Fit      -0.000699
 3764 Fit      -0.000234
 3765 Fit       0.000364
 3766 Fit       0.001466
 3767 Fit       0.002448
 3768 Fit       0.003506
 3769 Fit       0.004523
 3770 Fit       0.005353
 3771 Fit       0.005867
 3772 Fit       0.006031
 3773 Fit       0.005983
 3774 Fit       0.006048
 3775 Fit       0.006616
 3776 Fit       0.007962
 3777 Fit       0.010132
 3778 Fit       0.012804
 3779 Fit       0.015065
 3780 Fit       0.015395
 3781 Fit       0.012574
 3782 Fit       0.007221
 3783 Fit       0.001718
 3784 Fit      -0.002165
 3785 Fit      -0.004355
 3786 Fit      -0.005435
 3787 Fit      -0.005851
 3788 Fit      -0.005853
 3789 Fit      -0.005581
 3790 Fit      -0.005131
 3791 Fit      -0.004579
 3792 Fit      -0.003991
 3793 Fit      -0.003416
 3794 Fit      -0.002893
 3795 Fit      -0.002443
 3796 Fit      -0.002071
 3797 Fit      -0.001765
 3798 Fit      -0.001502
 3799 Fit      -0.001242
 3800 Fit      -0.000944
 3801 Fit      -0.000559
 3802 Fit      -0.000045
 3803 Fit       0.000627
 3804 Fit       0.001816
 3805 Fit       0.002945
 3806 Fit       0.004205
 3807 Fit       0.005493
 3808 Fit       0.006649
 3809 Fit       0.007481
 3810 Fit       0.007825
 3811 Fit       0.007634
 3812 Fit       0.007113
 3813 Fit       0.006762
 3814 Fit       0.007166
 3815 Fit       0.008743
 3816 Fit       0.011696
 3817 Fit       0.015979
 3818 Fit       0.020922
 3819 Fit      -0.005735
 3820 Fit      -0.007232
 3821 Fit      -0.007711
 3822 Fit      -0.007712
 3823 Fit      -0.007437
 3824 Fit      -0.006974
 3825 Fit      -0.006379
 3826 Fit      -0.005705
 3827 Fit      -0.005002
 3828 Fit      -0.004313
 3829 Fit      -0.003672
 3830 Fit      -0.003105
 3831 Fit      -0.002626
 3832 Fit      -0.002236
 3833 Fit      -0.001923
 3834 Fit      -0.001666
 3835 Fit      -0.001432
 3836 Fit      -0.001180
 3837 Fit      -0.000866
 3838 Fit      -0.000445
 3839 Fit       0.000123
 3840 Fit       0.000872
 3841 Fit       0.002114
 3842 Fit       0.003408
 3843 Fit       0.004905
 3844 Fit       0.006521
 3845 Fit       0.008106
 3846 Fit       0.009447
 3847 Fit       0.010284
 3848 Fit       0.010340
 3849 Fit       0.007374
 3850 Fit       0.009495
 3851 Fit       0.013777
 3852 Fit       0.020543
 3853 Fit      -0.011035
 3854 Fit      -0.010379
 3855 Fit      -0.009695
 3856 Fit      -0.008973
 3857 Fit      -0.008192
 3858 Fit      -0.007364
 3859 Fit      -0.006514
 3860 Fit      -0.005677
 3861 Fit      -0.004883
 3862 Fit      -0.004158
 3863 Fit      -0.003521
 3864 Fit      -0.002983
 3865 Fit      -0.002545
 3866 Fit      -0.002198
 3867 Fit      -0.001922
 3868 Fit      -0.001690
 3869 Fit      -0.001465
 3870 Fit      -0.001207
 3871 Fit      -0.000870
 3872 Fit      -0.000408
 3873 Fit       0.000221
 3874 Fit       0.001053
 3875 Fit       0.002313
 3876 Fit       0.003774
 3877 Fit       0.005515
 3878 Fit       0.007489
 3879 Fit       0.009582
 3880 Fit       0.011618
 3881 Fit       0.013360
 3882 Fit      -0.013418
 3883 Fit      -0.012070
 3884 Fit      -0.010925
 3885 Fit      -0.009839
 3886 Fit      -0.008772
 3887 Fit      -0.007732
 3888 Fit      -0.006736
 3889 Fit      -0.005807
 3890 Fit      -0.004962
 3891 Fit      -0.004217
 3892 Fit      -0.003582
 3893 Fit      -0.003058
 3894 Fit      -0.002641
 3895 Fit      -0.002314
 3896 Fit      -0.002053
 3897 Fit      -0.001829
 3898 Fit      -0.001602
 3899 Fit      -0.001329
 3900 Fit      -0.000965
 3901 Fit      -0.000463
 3902 Fit       0.000223
 3903 Fit       0.001137
 3904 Fit       0.002363
 3905 Fit       0.003933
 3906 Fit       0.005844
 3907 Fit       0.008088
 3908 Fit       0.010624
 3909 Fit       0.013394
 3910 Fit       0.016418
 3911 Fit      -0.014612
 3912 Fit      -0.013073
 3913 Fit      -0.011670
 3914 Fit      -0.010349
 3915 Fit      -0.009107
 3916 Fit      -0.007949
 3917 Fit      -0.006884
 3918 Fit      -0.005922
 3919 Fit      -0.005071
 3920 Fit      -0.004338
 3921 Fit      -0.003726
 3922 Fit      -0.003228
 3923 Fit      -0.002835
 3924 Fit      -0.002526
 3925 Fit      -0.002275
 3926 Fit      -0.002050
 3927 Fit      -0.001813
 3928 Fit      -0.001520
 3929 Fit      -0.001128
 3930 Fit      -0.000590
 3931 Fit       0.000142
 3932 Fit       0.001112
 3933 Fit       0.002223
 3934 Fit       0.003891
 3935 Fit       0.005950
 3936 Fit       0.008428
 3937 Fit       0.011344
 3938 Fit       0.014803
 3939 Fit      -0.016914
 3940 Fit      -0.015080
 3941 Fit      -0.013336
 3942 Fit      -0.011724
 3943 Fit      -0.010253
 3944 Fit      -0.008919
 3945 Fit      -0.007716
 3946 Fit      -0.006645
 3947 Fit      -0.005709
 3948 Fit      -0.004909
 3949 Fit      -0.004242
 3950 Fit      -0.003702
 3951 Fit      -0.003275
 3952 Fit      -0.002939
 3953 Fit      -0.002666
 3954 Fit      -0.002421
 3955 Fit      -0.002166
 3956 Fit      -0.001855
 3957 Fit      -0.001442
 3958 Fit      -0.000877
 3959 Fit      -0.000112
 3960 Fit       0.000905
 3961 Fit       0.001867
 3962 Fit       0.003533
 3963 Fit       0.005589
 3964 Fit       0.008072
 3965 Fit       0.011035
 3966 Fit       0.014683
 3967 Fit      -0.016977
 3968 Fit      -0.014945
 3969 Fit      -0.013081
 3970 Fit      -0.011412
 3971 Fit      -0.009925
 3972 Fit      -0.008604
 3973 Fit      -0.007442
 3974 Fit      -0.006434
 3975 Fit      -0.005576
 3976 Fit      -0.004861
 3977 Fit      -0.004281
 3978 Fit      -0.003818
 3979 Fit      -0.003451
 3980 Fit      -0.003150
 3981 Fit      -0.002880
 3982 Fit      -0.002601
 3983 Fit      -0.002269
 3984 Fit      -0.001837
 3985 Fit      -0.001257
 3986 Fit      -0.000479
 3987 Fit       0.000545
 3988 Fit       0.001290
 3989 Fit       0.002854
 3990 Fit       0.004752
 3991 Fit       0.007001
 3992 Fit       0.009629
 3993 Fit       0.012778
 3994 Fit      -0.018532
 3995 Fit      -0.016373
 3996 Fit      -0.014351
 3997 Fit      -0.012542
 3998 Fit      -0.010942
 3999 Fit      -0.009533
 4000 Fit      -0.008301
 4001 Fit      -0.007236
 4002 Fit      -0.006331
 4003 Fit      -0.005576
 4004 Fit      -0.004958
 4005 Fit      -0.004459
 4006 Fit      -0.004058
 4007 Fit      -0.003724
 4008 Fit      -0.003423
 4009 Fit      -0.003116
 4010 Fit      -0.002761
 4011 Fit      -0.002314
 4012 Fit      -0.001729
 4013 Fit      -0.000963
 4014 Fit       0.000030
 4015 Fit       0.000512
 4016 Fit       0.001959
 4017 Fit       0.003667
 4018 Fit       0.005618
 4019 Fit       0.007779
 4020 Fit       0.010155
 4021 Fit      -0.019283
 4022 Fit      -0.017121
 4023 Fit      -0.015018
 4024 Fit      -0.013123
 4025 Fit      -0.011453
 4026 Fit      -0.009995
 4027 Fit      -0.008735
 4028 Fit      -0.007659
 4029 Fit      -0.006755
 4030 Fit      -0.006008
 4031 Fit      -0.005400
 4032 Fit      -0.004906
 4033 Fit      -0.004499
 4034 Fit      -0.004141
 4035 Fit      -0.003794
 4036 Fit      -0.003413
 4037 Fit      -0.002955
 4038 Fit      -0.002374
 4039 Fit      -0.001628
 4040 Fit      -0.000676
 4041 Fit      -0.000433
 4042 Fit       0.000833
 4043 Fit       0.002264
 4044 Fit       0.003796
 4045 Fit       0.005329
 4046 Fit       0.006721
 4047 Fit      -0.021124
 4048 Fit      -0.019726
 4049 Fit      -0.017607
 4050 Fit      -0.015492
 4051 Fit      -0.013573
 4052 Fit      -0.011883
 4053 Fit      -0.010417
 4054 Fit      -0.009160
 4055 Fit      -0.008096
 4056 Fit      -0.007209
 4057 Fit      -0.006478
 4058 Fit      -0.005880
 4059 Fit      -0.005386
 4060 Fit      -0.004959
 4061 Fit      -0.004560
 4062 Fit      -0.004147
 4063 Fit      -0.003676
 4064 Fit      -0.003103
 4065 Fit      -0.002391
 4066 Fit      -0.001507
 4067 Fit      -0.001505
 4068 Fit      -0.000426
 4069 Fit       0.000721
 4070 Fit       0.001836
 4071 Fit       0.002767
 4072 Fit       0.003310
 4073 Fit       0.003192
 4074 Fit      -0.022089
 4075 Fit      -0.020864
 4076 Fit      -0.018770
 4077 Fit      -0.016578
 4078 Fit      -0.014553
 4079 Fit      -0.012766
 4080 Fit      -0.011221
 4081 Fit      -0.009903
 4082 Fit      -0.008793
 4083 Fit      -0.007870
 4084 Fit      -0.007110
 4085 Fit      -0.006482
 4086 Fit      -0.005951
 4087 Fit      -0.005476
 4088 Fit      -0.005014
 4089 Fit      -0.004520
 4090 Fit      -0.003951
 4091 Fit      -0.003273
 4092 Fit      -0.002460
 4093 Fit      -0.002668
 4094 Fit      -0.001767
 4095 Fit      -0.000889
 4096 Fit      -0.000163
 4097 Fit       0.000243
 4098 Fit       0.000148
 4099 Fit      -0.000567
 4100 Fit      -0.001815
 4101 Fit      -0.003231
 4102 Fit      -0.024271
 4103 Fit      -0.022817
 4104 Fit      -0.020702
 4105 Fit      -0.018373
 4106 Fit      -0.016150
 4107 Fit      -0.014163
 4108 Fit      -0.012441
 4109 Fit      -0.010975
 4110 Fit      -0.009745
 4111 Fit      -0.008725
 4112 Fit      -0.007883
 4113 Fit      -0.007184
 4114 Fit      -0.006585
 4115 Fit      -0.006039
 4116 Fit      -0.005499
 4117 Fit      -0.004919
 4118 Fit      -0.004264
 4119 Fit      -0.003513
 4120 Fit      -0.003898
 4121 Fit      -0.003176
 4122 Fit      -0.002561
 4123 Fit      -0.002183
 4124 Fit      -0.002185
 4125 Fit      -0.002654
 4126 Fit      -0.003545
 4127 Fit      -0.004655
 4128 Fit      -0.005732
 4129 Fit      -0.006657
 4130 Fit      -0.007617
 4131 Fit      -0.009339
 4132 Fit      -0.012878
 4133 Fit      -0.027062
 4134 Fit      -0.024866
 4135 Fit      -0.022498
 4136 Fit      -0.020038
 4137 Fit      -0.017663
 4138 Fit      -0.015508
 4139 Fit      -0.013625
 4140 Fit      -0.012019
 4141 Fit      -0.010673
 4142 Fit      -0.009556
 4143 Fit      -0.008633
 4144 Fit      -0.007862
 4145 Fit      -0.007194
 4146 Fit      -0.006578
 4147 Fit      -0.005967
 4148 Fit      -0.005324
 4149 Fit      -0.004630
 4150 Fit      -0.005182
 4151 Fit      -0.004617
 4152 Fit      -0.004242
 4153 Fit      -0.004188
 4154 Fit      -0.004548
 4155 Fit      -0.005318
 4156 Fit      -0.006389
 4157 Fit      -0.007651
 4158 Fit      -0.009166
 4159 Fit      -0.011292
 4160 Fit      -0.014592
 4161 Fit      -0.019139
 4162 Fit      -0.023692
 4163 Fit      -0.026332
 4164 Fit      -0.026374
 4165 Fit      -0.024721
 4166 Fit      -0.022396
 4167 Fit      -0.019910
 4168 Fit      -0.017520
 4169 Fit      -0.015361
 4170 Fit      -0.013491
 4171 Fit      -0.011914
 4172 Fit      -0.010608
 4173 Fit      -0.009532
 4174 Fit      -0.008639
 4175 Fit      -0.007871
 4176 Fit      -0.007173
 4177 Fit      -0.006500
 4178 Fit      -0.005831
 4179 Fit      -0.006524
 4180 Fit      -0.006114
 4181 Fit      -0.005989
 4182 Fit      -0.006262
 4183 Fit      -0.006981
 4184 Fit      -0.008121
 4185 Fit      -0.009674
 4186 Fit      -0.011782
 4187 Fit      -0.014689
 4188 Fit      -0.018306
 4189 Fit      -0.021660
 4190 Fit      -0.023394
 4191 Fit      -0.023110
 4192 Fit      -0.021479
 4193 Fit      -0.019294
 4194 Fit      -0.017040
 4195 Fit      -0.014961
 4196 Fit      -0.013157
 4197 Fit      -0.011649
 4198 Fit      -0.010409
 4199 Fit      -0.009390
 4200 Fit      -0.008531
 4201 Fit      -0.007778
 4202 Fit      -0.007103
 4203 Fit      -0.007941
 4204 Fit      -0.007696
 4205 Fit      -0.007913
 4206 Fit      -0.008705
 4207 Fit      -0.010115
 4208 Fit      -0.012188
 4209 Fit      -0.014942
 4210 Fit      -0.017935
 4211 Fit      -0.020006
 4212 Fit      -0.020266
 4213 Fit      -0.018996
 4214 Fit      -0.017016
 4215 Fit      -0.014943
 4216 Fit      -0.013082
 4217 Fit      -0.011533
 4218 Fit      -0.010287
 4219 Fit      -0.009293
 4220 Fit      -0.008506
 4221 Fit      -0.009464
 4222 Fit      -0.009473
 4223 Fit      -0.010319
 4224 Fit      -0.012084
 4225 Fit      -0.014563
 4226 Fit      -0.016845
 4227 Fit      -0.017561
 4228 Fit      -0.016504
 4229 Fit      -0.014617
 4230 Fit      -0.012730
 4231 Fit      -0.011194
 4232 Fit      -0.010089
 4233 Fit      -0.011136
 4234 Fit      -0.011773
 4235 Fit      -0.013858
 4236 Fit      -0.015137
 4237 Fit      -0.013969
 4238 Fit      -0.012106
 4239 Fit      -0.013008
 4240 Fit       0.017258
 4241 Fit       0.017272
 4242 Fit       0.017700
 4243 Fit       0.020009
 4244 Fit       0.018524
 4245 Fit       0.018045
 4246 Fit       0.018053
 4247 Fit       0.018406
 4248 Fit       0.019230
 4249 Fit       0.020912
 4250 Fit       0.020480
 4251 Fit       0.018829
 4252 Fit       0.018284
 4253 Fit       0.018237
 4254 Fit       0.018498
 4255 Fit       0.019147
 4256 Fit       0.020557
 4257 Fit       0.019260
 4258 Fit       0.018179
 4259 Fit       0.017862
 4260 Fit       0.017901
 4261 Fit       0.018167
 4262 Fit       0.018759
 4263 Fit       0.020065
 4264 Fit       0.017034
 4265 Fit       0.016812
 4266 Fit       0.016862
 4267 Fit       0.017049
 4268 Fit       0.017363
 4269 Fit       0.017965
 4270 Fit       0.019286
 4271 Fit       0.014724
 4272 Fit       0.015199
 4273 Fit       0.015551
 4274 Fit       0.015861
 4275 Fit       0.016327
 4276 Fit       0.012911
 4277 Fit       0.013479
 4278 Fit       0.013507
 4279 Fit       0.014459
 4280 Fit       0.014517
 4281 Fit       0.014299
 4282 Fit       0.015803
 4283 Fit       0.015787
 4284 Fit       0.015900
 4285 Fit       0.016005
 4286 Fit       0.016426
 4287 Fit       0.016416
 4288 Fit       0.016623
 4289 Fit       0.016942
 4290 Fit       0.017441
 4291 Fit       0.018278
 4292 Fit       0.017031
 4293 Fit       0.016339
 4294 Fit       0.016456
 4295 Fit       0.016793
 4296 Fit       0.017284
 4297 Fit       0.018077
 4298 Fit       0.019579
 4299 Fit       0.016802
 4300 Fit       0.015577
 4301 Fit       0.015916
 4302 Fit       0.016416
 4303 Fit       0.017073
 4304 Fit       0.018120
 4305 Fit       0.020168
 4306 Fit       0.015641
 4307 Fit       0.014192
 4308 Fit       0.014824
 4309 Fit       0.015508
 4310 Fit       0.016328
 4311 Fit       0.017595
 4312 Fit       0.013687
 4313 Fit       0.012246
 4314 Fit       0.013314
 4315 Fit       0.014275
 4316 Fit       0.015392
 4317 Fit       0.011401
 4318 Fit       0.026576
 4319 Fit       0.022195
 4320 Fit       0.022350
 4321 Fit       0.022947
 4322 Fit       0.021440
 4323 Fit       0.020280
 4324 Fit       0.019365
 4325 Fit       0.017787
 4326 Fit       0.019966
 4327 Fit       0.018354
 4328 Fit       0.016777
 4329 Fit       0.014381
 4330 Fit       0.019099
 4331 Fit       0.017243
 4332 Fit       0.015655
 4333 Fit       0.013662
 4334 Fit       0.010723
 4335 Fit       0.015384
 4336 Fit       0.014143
 4337 Fit       0.012383
 4338 Fit       0.009732
 4339 Fit       0.006074
 4340 Fit       0.011178
 4341 Fit       0.009915
 4342 Fit       0.007066
 4343 Fit       0.002898
 4344 Fit       0.006748
 4345 Fit       0.003784
 4346 Fit       0.024565
 4347 Fit       0.026390
 4348 Fit       0.026946
 4349 Fit       0.029895
 4350 Fit       0.029799
 4351 Fit       0.029103
 4352 Fit       0.013006
 4353 Fit       0.014510
 4354 Fit       0.016017
 4355 Fit       0.015062
 4356 Fit       0.012801
 4357 Fit       0.010417
 4358 Fit       0.017394
 4359 Fit       0.019159
 4360 Fit       0.018490
 4361 Fit       0.017114
 4362 Fit       0.016181
 4363 Fit       0.012407
 4364 Fit       0.022510
 4365 Fit       0.023826
 4366 Fit       0.022544
 4367 Fit       0.020425
 4368 Fit       0.018393
 4369 Fit       0.017030
 4370 Fit       0.016973
 4371 Fit       0.028417
 4372 Fit       0.024632
 4373 Fit       0.021315
 4374 Fit       0.018620
 4375 Fit       0.016739
 4376 Fit       0.016103
 4377 Fit       0.028458
 4378 Fit       0.023084
 4379 Fit       0.019015
 4380 Fit       0.016011
 4381 Fit       0.014194
 4382 Fit       0.023657
 4383 Fit       0.018125
 4384 Fit       0.014007
 4385 Fit       0.021482
 4386 Fit       0.009894
 4387 Fit       0.009778
 4388 Fit       0.012058
 4389 Fit       0.011731
 4390 Fit       0.010182
 4391 Fit       0.007887
 4392 Fit       0.007024
 4393 Fit       0.014020
 4394 Fit       0.014288
 4395 Fit       0.013339
 4396 Fit       0.012349
 4397 Fit       0.011209
 4398 Fit       0.009529
 4399 Fit       0.007014
 4400 Fit       0.016026
 4401 Fit       0.014228
 4402 Fit       0.013100
 4403 Fit       0.012320
 4404 Fit       0.011589
 4405 Fit       0.010648
 4406 Fit       0.009161
 4407 Fit       0.006695
 4408 Fit       0.016096
 4409 Fit       0.013857
 4410 Fit       0.012666
 4411 Fit       0.011992
 4412 Fit       0.011546
 4413 Fit       0.011165
 4414 Fit       0.010716
 4415 Fit       0.009944
 4416 Fit       0.008276
 4417 Fit       0.012738
 4418 Fit       0.011398
 4419 Fit       0.010766
 4420 Fit       0.010483
 4421 Fit       0.010407
 4422 Fit       0.010519
 4423 Fit       0.010815
 4424 Fit       0.008842
 4425 Fit       0.008531
 4426 Fit       0.008531
 4427 Fit       0.008823
 4428 Fit       0.009595
 4429 Fit       0.008852
 4430 Fit       0.005747
 4431 Fit       0.002368
 4432 Fit       0.009160
 4433 Fit       0.007173
 4434 Fit       0.005048
 4435 Fit       0.002397
 4436 Fit      -0.000903
 4437 Fit       0.008938
 4438 Fit       0.007790
 4439 Fit       0.006596
 4440 Fit       0.005047
 4441 Fit       0.002966
 4442 Fit       0.000279
 4443 Fit      -0.002980
 4444 Fit       0.006800
 4445 Fit       0.006553
 4446 Fit       0.005978
 4447 Fit       0.004914
 4448 Fit       0.003222
 4449 Fit       0.000803
 4450 Fit      -0.002387
 4451 Fit      -0.006254
 4452 Fit       0.003937
 4453 Fit       0.004415
 4454 Fit       0.004212
 4455 Fit       0.003285
 4456 Fit       0.001532
 4457 Fit      -0.001181
 4458 Fit      -0.005021
 4459 Fit       0.001399
 4460 Fit       0.001917
 4461 Fit       0.001474
 4462 Fit       0.000000
 4463 Fit      -0.002701
 4464 Fit      -0.007024
 4465 Fit      -0.001276
 4466 Fit      -0.001727
 4467 Fit      -0.003977
 4468 Fit      -0.021093
 4469 Fit      -0.021017
 4470 Fit      -0.020254
 4471 Fit      -0.024335
 4472 Fit      -0.021902
 4473 Fit      -0.017774
 4474 Fit      -0.017966
 4475 Fit      -0.019236
 4476 Fit      -0.022702
 4477 Fit      -0.020029
 -----------------------------------------------------------------
 Leave Link  602 at Fri Jan 17 11:58:01 2014, MaxMem=   235929600 cpu:         1.8

 Test job not archived.
 1\1\GINC-G42\SP\RHF\Gen\C13H9F1I1N1O1\KOLAR\17-Jan-2014\0\\# hf/gen ps
 eudo=read pop=(mk, readradii) iop(6/33=2,6/41=5,6/42=2)\\na resp\\0,1\
 C,0,-2.301388,3.277517,0.45201\C,0,-3.48761,2.604359,0.164446\C,0,-3.4
 77767,1.222088,-0.031273\C,0,-2.282846,0.508513,0.07195\C,0,-1.078631,
 1.16706,0.357011\C,0,-1.110105,2.560382,0.53996\C,0,0.240094,0.452669,
 0.552468\O,0,0.386864,-0.447557,1.363118\N,0,1.246654,0.960705,-0.2440
 59\C,0,2.606058,0.591169,-0.294426\C,0,3.417838,1.244921,-1.237639\C,0
 ,4.771241,0.93334,-1.332567\C,0,5.343278,-0.02766,-0.497363\C,0,4.5159
 05,-0.658108,0.424577\C,0,3.160861,-0.37858,0.552675\F,0,5.049223,-1.5
 91032,1.239979\I,0,-2.379979,-1.603723,-0.297174\H,0,-2.301384,4.35188
 8,0.610702\H,0,-4.425474,3.147619,0.089943\H,0,-4.400017,0.702234,-0.2
 65411\H,0,-0.184951,3.07692,0.782142\H,0,0.96201,1.652929,-0.924014\H,
 0,2.985646,1.996471,-1.894257\H,0,5.387829,1.445484,-2.065519\H,0,6.39
 4341,-0.28881,-0.550611\H,0,2.554841,-0.898634,1.279956\\Version=AM64L
 -G09RevD.01\State=1-A\HF=-737.4333309\RMSD=2.889e-09\Dipole=-0.6954228
 ,2.167966,-1.2890729\Quadrupole=3.3069406,4.1860623,-7.4930029,0.36823
 5,-5.4584847,0.420543\PG=C01 [X(C13H9F1I1N1O1)]\\@


     "IF I COULD JUST GET IT ON PAPER"
 LIFE AND INK, THEY RUN OUT AT THE SAME TIME,
 OR SO SAID MY OLD FRIEND THE SQUID.
     -- JIMMY BUFFETT, 1981
 Job cpu time:       0 days  0 hours  3 minutes 29.6 seconds.
 File lengths (MBytes):  RWF=     35 Int=      0 D2E=      0 Chk=      3 Scr=      1
 Normal termination of Gaussian 09 at Fri Jan 17 11:58:02 2014.
209.17user 0.39system 3:30.41elapsed 99%CPU (0avgtext+0avgdata 603408maxresident)k
8inputs+177976outputs (0major+171922minor)pagefaults 0swaps
