Linux g30 2.6.38.6-client #1 SMP Tue Jun 12 11:27:21 CEST 2012 x86_64 GNU/Linux
Thu Jan 16 21:46:47 CET 2014

 Entering Gaussian System, Link 0=/usr/local/programs/common/gaussian/gaussian09_d01/arch/amd64-pgi_10.4.0-acml/g09/g09
 Initial command:
 /usr/local/programs/common/gaussian/gaussian09_d01/arch/amd64-pgi_10.4.0-acml/g09/l1.exe "/scratch/kolar/g09_17476/Gau-3054.inp" -scrdir="/scratch/kolar/g09_17476/"
 Entering Link 1 = /usr/local/programs/common/gaussian/gaussian09_d01/arch/amd64-pgi_10.4.0-acml/g09/l1.exe PID=      3062.
  
 Copyright (c) 1988,1990,1992,1993,1995,1998,2003,2009,2013,
            Gaussian, Inc.  All Rights Reserved.
  
 This is part of the Gaussian(R) 09 program.  It is based on
 the Gaussian(R) 03 system (copyright 2003, Gaussian, Inc.),
 the Gaussian(R) 98 system (copyright 1998, Gaussian, Inc.),
 the Gaussian(R) 94 system (copyright 1995, Gaussian, Inc.),
 the Gaussian 92(TM) system (copyright 1992, Gaussian, Inc.),
 the Gaussian 90(TM) system (copyright 1990, Gaussian, Inc.),
 the Gaussian 88(TM) system (copyright 1988, Gaussian, Inc.),
 the Gaussian 86(TM) system (copyright 1986, Carnegie Mellon
 University), and the Gaussian 82(TM) system (copyright 1983,
 Carnegie Mellon University). Gaussian is a federally registered
 trademark of Gaussian, Inc.
  
 This software contains proprietary and confidential information,
 including trade secrets, belonging to Gaussian, Inc.
  
 This software is provided under written license and may be
 used, copied, transmitted, or stored only in accord with that
 written license.
  
 The following legend is applicable only to US Government
 contracts under FAR:
  
                    RESTRICTED RIGHTS LEGEND
  
 Use, reproduction and disclosure by the US Government is
 subject to restrictions as set forth in subparagraphs (a)
 and (c) of the Commercial Computer Software - Restricted
 Rights clause in FAR 52.227-19.
  
 Gaussian, Inc.
 340 Quinnipiac St., Bldg. 40, Wallingford CT 06492
  
  
 ---------------------------------------------------------------
 Warning -- This program may not be used in any manner that
 competes with the business of Gaussian, Inc. or will provide
 assistance to any competitor of Gaussian, Inc.  The licensee
 of this program is prohibited from giving any competitor of
 Gaussian, Inc. access to this program.  By using this program,
 the user acknowledges that Gaussian, Inc. is engaged in the
 business of creating and licensing software in the field of
 computational chemistry and represents and warrants to the
 licensee that it is not a competitor of Gaussian, Inc. and that
 it will not use this program in any manner prohibited above.
 ---------------------------------------------------------------
  

 Cite this work as:
 Gaussian 09, Revision D.01,
 M. J. Frisch, G. W. Trucks, H. B. Schlegel, G. E. Scuseria, 
 M. A. Robb, J. R. Cheeseman, G. Scalmani, V. Barone, B. Mennucci, 
 G. A. Petersson, H. Nakatsuji, M. Caricato, X. Li, H. P. Hratchian, 
 A. F. Izmaylov, J. Bloino, G. Zheng, J. L. Sonnenberg, M. Hada, 
 M. Ehara, K. Toyota, R. Fukuda, J. Hasegawa, M. Ishida, T. Nakajima, 
 Y. Honda, O. Kitao, H. Nakai, T. Vreven, J. A. Montgomery, Jr., 
 J. E. Peralta, F. Ogliaro, M. Bearpark, J. J. Heyd, E. Brothers, 
 K. N. Kudin, V. N. Staroverov, T. Keith, R. Kobayashi, J. Normand, 
 K. Raghavachari, A. Rendell, J. C. Burant, S. S. Iyengar, J. Tomasi, 
 M. Cossi, N. Rega, J. M. Millam, M. Klene, J. E. Knox, J. B. Cross, 
 V. Bakken, C. Adamo, J. Jaramillo, R. Gomperts, R. E. Stratmann, 
 O. Yazyev, A. J. Austin, R. Cammi, C. Pomelli, J. W. Ochterski, 
 R. L. Martin, K. Morokuma, V. G. Zakrzewski, G. A. Voth, 
 P. Salvador, J. J. Dannenberg, S. Dapprich, A. D. Daniels, 
 O. Farkas, J. B. Foresman, J. V. Ortiz, J. Cioslowski, 
 and D. J. Fox, Gaussian, Inc., Wallingford CT, 2013.
 
 ******************************************
 Gaussian 09:  AM64L-G09RevD.01 24-Apr-2013
                16-Jan-2014 
 ******************************************
 %mem=1800mb
 -----------------------------------------
 # hf/gen pop=mk iop(6/33=2,6/41=5,6/42=2)
 -----------------------------------------
 1/38=1/1;
 2/12=2,17=6,18=5,40=1/2;
 3/5=7,11=9,16=1,25=1,30=1/1,2,3;
 4//1;
 5/5=2,38=5/2;
 6/7=2,8=2,9=2,10=2,15=8,20=1,28=1,33=2,41=5,42=2/1,2;
 99/5=1,9=1/99;
 -------
 na resp
 -------
 Symbolic Z-matrix:
 Charge =  0 Multiplicity = 1
 6                     1.14384  -1.50449   0.10372 
 6                    -0.24133  -1.6354    0.10789 
 6                    -1.08593  -0.51651   0.04574 
 6                    -0.50269   0.75964  -0.03272 
 6                     0.88136   0.91422  -0.05062 
 6                     1.6793   -0.2232    0.02354 
 7                     3.14537  -0.05795   0.00903 
 8                     3.82982  -1.07783   0.0667 
 8                     3.58903   1.08614  -0.06138 
 17                   -1.48344   2.20107  -0.16322 
 6                    -2.5829   -0.71961   0.14356 
 8                    -3.26373  -0.15648   0.98219 
 7                    -3.08258  -1.64792  -0.73327 
 1                     1.80128  -2.36254   0.16219 
 1                    -0.68687  -2.62259   0.18131 
 1                     1.33655   1.89341  -0.12249 
 1                    -2.57391  -1.89524  -1.57024 
 1                    -4.08906  -1.75282  -0.75304 
 
                          Input orientation:                          
 ---------------------------------------------------------------------
 Center     Atomic      Atomic             Coordinates (Angstroms)
 Number     Number       Type             X           Y           Z
 ---------------------------------------------------------------------
      1          6           0        1.143844   -1.504486    0.103716
      2          6           0       -0.241325   -1.635398    0.107888
      3          6           0       -1.085933   -0.516514    0.045736
      4          6           0       -0.502688    0.759637   -0.032716
      5          6           0        0.881355    0.914224   -0.050615
      6          6           0        1.679300   -0.223199    0.023541
      7          7           0        3.145370   -0.057949    0.009031
      8          8           0        3.829820   -1.077825    0.066703
      9          8           0        3.589029    1.086141   -0.061382
     10         17           0       -1.483437    2.201070   -0.163222
     11          6           0       -2.582898   -0.719610    0.143555
     12          8           0       -3.263729   -0.156478    0.982190
     13          7           0       -3.082579   -1.647915   -0.733272
     14          1           0        1.801283   -2.362538    0.162194
     15          1           0       -0.686869   -2.622587    0.181311
     16          1           0        1.336549    1.893405   -0.122491
     17          1           0       -2.573908   -1.895240   -1.570243
     18          1           0       -4.089062   -1.752817   -0.753039
 ---------------------------------------------------------------------
                    Distance matrix (angstroms):
                    1          2          3          4          5
     1  C    0.000000
     2  C    1.391348   0.000000
     3  C    2.439540   1.403256   0.000000
     4  C    2.802844   2.413353   1.405308   0.000000
     5  C    2.437802   2.790359   2.434444   1.392764   0.000000
     6  C    1.390984   2.385418   2.780834   2.393784   1.391383
     7  N    2.471344   3.737355   4.256237   3.738785   2.464638
     8  O    2.719904   4.109356   4.947741   4.707099   3.560262
     9  O    3.566165   4.701812   4.943202   4.104823   2.713148
    10  Cl   4.550275   4.041637   2.754439   1.748322   2.694605
    11  C    3.808704   2.514539   1.513843   2.558616   3.835122
    12  O    4.692072   3.476569   2.397784   3.081014   4.403954
    13  N    4.310890   2.963179   2.423534   3.597627   4.768999
    14  H    1.082543   2.168854   3.428904   3.885132   3.410092
    15  H    2.146551   1.085561   2.147831   3.393990   3.875842
    16  H    3.410860   3.872365   3.421174   2.162471   1.082203
    17  H    4.095913   2.885236   2.593519   3.701664   4.705444
    18  H    5.308390   3.944625   3.344439   4.437721   5.684325
                    6          7          8          9         10
     6  C    0.000000
     7  N    1.475425   0.000000
     8  O    2.314516   1.229612   0.000000
     9  O    2.317034   1.229119   2.181086   0.000000
    10  Cl   3.989344   5.153513   6.247777   5.194550   0.000000
    11  C    4.292687   5.767924   6.423175   6.433927   3.135809
    12  O    5.035573   6.483309   7.211479   7.042261   3.168508
    13  N    5.027730   6.470421   6.981850   7.241329   4.206768
    14  H    2.147295   2.672295   2.403033   3.890939   5.632211
    15  H    3.373531   4.614445   4.774925   5.665410   4.901111
    16  H    2.149143   2.664003   3.883349   2.393549   2.837012
    17  H    4.840005   6.211271   6.659992   7.010498   4.466385
    18  H    6.018040   7.469293   7.989761   8.215300   4.771833
                   11         12         13         14         15
    11  C    0.000000
    12  O    1.218178   0.000000
    13  N    1.371225   2.280353   0.000000
    14  H    4.681944   5.585109   5.016438   0.000000
    15  H    2.686573   3.655586   2.743333   2.501778   0.000000
    16  H    4.718124   5.156055   5.695849   4.290696   4.957893
    17  H    2.078290   3.164500   1.010166   4.728848   2.675424
    18  H    2.034681   2.498098   1.012128   5.992126   3.633790
                   16         17         18
    16  H    0.000000
    17  H    5.633959   0.000000
    18  H    6.567327   1.727367   0.000000
 Stoichiometry    C7H5ClN2O3
 Framework group  C1[X(C7H5ClN2O3)]
 Deg. of freedom    48
 Full point group                 C1      NOp   1
 Largest Abelian subgroup         C1      NOp   1
 Largest concise Abelian subgroup C1      NOp   1
                         Standard orientation:                         
 ---------------------------------------------------------------------
 Center     Atomic      Atomic             Coordinates (Angstroms)
 Number     Number       Type             X           Y           Z
 ---------------------------------------------------------------------
      1          6           0        1.143844   -1.504486    0.103716
      2          6           0       -0.241325   -1.635398    0.107888
      3          6           0       -1.085933   -0.516514    0.045736
      4          6           0       -0.502688    0.759637   -0.032716
      5          6           0        0.881355    0.914224   -0.050615
      6          6           0        1.679300   -0.223199    0.023541
      7          7           0        3.145370   -0.057949    0.009031
      8          8           0        3.829820   -1.077825    0.066703
      9          8           0        3.589029    1.086141   -0.061382
     10         17           0       -1.483437    2.201070   -0.163222
     11          6           0       -2.582898   -0.719610    0.143555
     12          8           0       -3.263729   -0.156478    0.982190
     13          7           0       -3.082579   -1.647915   -0.733272
     14          1           0        1.801283   -2.362538    0.162194
     15          1           0       -0.686869   -2.622587    0.181311
     16          1           0        1.336549    1.893405   -0.122491
     17          1           0       -2.573908   -1.895240   -1.570243
     18          1           0       -4.089062   -1.752817   -0.753039
 ---------------------------------------------------------------------
 Rotational constants (GHZ):      1.3249125      0.4307021      0.3370228
 General basis read from cards:  (5D, 7F)
 There are   209 symmetry adapted cartesian basis functions of A   symmetry.
 There are   196 symmetry adapted basis functions of A   symmetry.
   196 basis functions,   408 primitive gaussians,   209 cartesian basis functions
    51 alpha electrons       51 beta electrons
       nuclear repulsion energy       846.1991803210 Hartrees.
 NAtoms=   18 NActive=   18 NUniq=   18 SFac= 1.00D+00 NAtFMM=   60 NAOKFM=F Big=F
 Integral buffers will be    131072 words long.
 Raffenetti 1 integral format.
 Two-electron integral symmetry is turned on.
 One-electron integrals computed using PRISM.
 NBasis=   196 RedAO= T EigKep=  4.15D-04  NBF=   196
 NBsUse=   196 1.00D-06 EigRej= -1.00D+00 NBFU=   196
 ExpMin= 1.43D-01 ExpMax= 2.52D+04 ExpMxC= 3.78D+03 IAcc=1 IRadAn=         1 AccDes= 0.00D+00
 Harris functional with IExCor=  205 and IRadAn=       1 diagonalized for initial guess.
 HarFok:  IExCor=  205 AccDes= 0.00D+00 IRadAn=         1 IDoV= 1 UseB2=F ITyADJ=14
 ICtDFT=  3500011 ScaDFX=  1.000000  1.000000  1.000000  1.000000
 FoFCou: FMM=F IPFlag=           0 FMFlag=      100000 FMFlg1=           0
         NFxFlg=           0 DoJE=T BraDBF=F KetDBF=T FulRan=T
         wScrn=  0.000000 ICntrl=     500 IOpCl=  0 I1Cent=   200000004 NGrid=           0
         NMat0=    1 NMatS0=      1 NMatT0=    0 NMatD0=    1 NMtDS0=    0 NMtDT0=    0
 Petite list used in FoFCou.
 Keep R1 ints in memory in canonical form, NReq=191153262.
 Requested convergence on RMS density matrix=1.00D-08 within 128 cycles.
 Requested convergence on MAX density matrix=1.00D-06.
 Requested convergence on             energy=1.00D-06.
 No special actions if energy rises.
 SCF Done:  E(RHF) =  -1060.83203656     A.U. after   16 cycles
            NFock= 16  Conv=0.54D-08     -V/T= 2.0010

 **********************************************************************

            Population analysis using the SCF density.

 **********************************************************************

 Orbital symmetries:
 BldTbl:  Degeneracy threshold= 1.00D-02
       Occupied  (A) (A) (A) (A) (A) (A) (A) (A) (A) (A) (A) (A)
                 (A) (A) (A) (A) (A) (A) (A) (A) (A) (A) (A) (A)
                 (A) (A) (A) (A) (A) (A) (A) (A) (A) (A) (A) (A)
                 (A) (A) (A) (A) (A) (A) (A) (A) (A) (A) (A) (A)
                 (A) (A) (A)
       Virtual   (A) (A) (A) (A) (A) (A) (A) (A) (A) (A) (A) (A)
                 (A) (A) (A) (A) (A) (A) (A) (A) (A) (A) (A) (A)
                 (A) (A) (A) (A) (A) (A) (A) (A) (A) (A) (A) (A)
                 (A) (A) (A) (A) (A) (A) (A) (A) (A) (A) (A) (A)
                 (A) (A) (A) (A) (A) (A) (A) (A) (A) (A) (A) (A)
                 (A) (A) (A) (A) (A) (A) (A) (A) (A) (A) (A) (A)
                 (A) (A) (A) (A) (A) (A) (A) (A) (A) (A) (A) (A)
                 (A) (A) (A) (A) (A) (A) (A) (A) (A) (A) (A) (A)
                 (A) (A) (A) (A) (A) (A) (A) (A) (A) (A) (A) (A)
                 (A) (A) (A) (A) (A) (A) (A) (A) (A) (A) (A) (A)
                 (A) (A) (A) (A) (A) (A) (A) (A) (A) (A) (A) (A)
                 (A) (A) (A) (A) (A) (A) (A) (A) (A) (A) (A) (A)
                 (A)
 The electronic state is 1-A.
 Alpha  occ. eigenvalues -- -104.84159 -20.62182 -20.62142 -20.55333 -15.87219
 Alpha  occ. eigenvalues --  -15.60986 -11.38944 -11.34700 -11.33506 -11.30715
 Alpha  occ. eigenvalues --  -11.29817 -11.29547 -11.29260 -10.57995  -8.04857
 Alpha  occ. eigenvalues --   -8.04507  -8.04495  -1.61467  -1.40955  -1.40580
 Alpha  occ. eigenvalues --   -1.24103  -1.22785  -1.16253  -1.10882  -1.04238
 Alpha  occ. eigenvalues --   -0.99555  -0.88081  -0.87191  -0.81622  -0.78529
 Alpha  occ. eigenvalues --   -0.76130  -0.74019  -0.72811  -0.70930  -0.68671
 Alpha  occ. eigenvalues --   -0.66292  -0.64828  -0.62716  -0.59942  -0.58977
 Alpha  occ. eigenvalues --   -0.56761  -0.54952  -0.50791  -0.50358  -0.49694
 Alpha  occ. eigenvalues --   -0.47894  -0.46167  -0.44739  -0.43328  -0.39502
 Alpha  occ. eigenvalues --   -0.37157
 Alpha virt. eigenvalues --    0.02468   0.08814   0.12972   0.17213   0.18836
 Alpha virt. eigenvalues --    0.21722   0.24331   0.26158   0.27836   0.31253
 Alpha virt. eigenvalues --    0.32298   0.34973   0.38760   0.41374   0.44183
 Alpha virt. eigenvalues --    0.44333   0.47186   0.47760   0.50300   0.55596
 Alpha virt. eigenvalues --    0.56660   0.58316   0.60077   0.61771   0.64688
 Alpha virt. eigenvalues --    0.67805   0.70203   0.70427   0.72467   0.73764
 Alpha virt. eigenvalues --    0.76332   0.76943   0.78740   0.79129   0.80952
 Alpha virt. eigenvalues --    0.82971   0.83627   0.86640   0.88965   0.90601
 Alpha virt. eigenvalues --    0.91081   0.93255   0.94628   0.95409   0.98264
 Alpha virt. eigenvalues --    0.99311   1.01205   1.02999   1.03829   1.06032
 Alpha virt. eigenvalues --    1.07617   1.10851   1.11377   1.12002   1.13015
 Alpha virt. eigenvalues --    1.14470   1.15655   1.18021   1.18548   1.19858
 Alpha virt. eigenvalues --    1.21359   1.22782   1.23215   1.24045   1.25723
 Alpha virt. eigenvalues --    1.27283   1.29019   1.32471   1.35109   1.36520
 Alpha virt. eigenvalues --    1.37800   1.39149   1.42626   1.42758   1.46221
 Alpha virt. eigenvalues --    1.48910   1.50985   1.54348   1.56924   1.60968
 Alpha virt. eigenvalues --    1.61388   1.64158   1.66762   1.68519   1.69661
 Alpha virt. eigenvalues --    1.70693   1.71684   1.79330   1.83051   1.84159
 Alpha virt. eigenvalues --    1.96441   1.97244   1.98142   2.00516   2.01588
 Alpha virt. eigenvalues --    2.03597   2.04641   2.08101   2.08635   2.09575
 Alpha virt. eigenvalues --    2.12743   2.14775   2.16762   2.19600   2.21240
 Alpha virt. eigenvalues --    2.22826   2.25832   2.28401   2.32258   2.33627
 Alpha virt. eigenvalues --    2.36449   2.40162   2.40918   2.43441   2.44253
 Alpha virt. eigenvalues --    2.44962   2.48632   2.53236   2.55000   2.55725
 Alpha virt. eigenvalues --    2.57554   2.64371   2.67901   2.71095   2.80451
 Alpha virt. eigenvalues --    2.82005   2.87199   2.89854   2.91088   2.92667
 Alpha virt. eigenvalues --    2.98703   3.00319   3.03049   3.08153   3.09108
 Alpha virt. eigenvalues --    3.11817   3.12966   3.23383   3.25540   3.31651
 Alpha virt. eigenvalues --    3.39654   3.40566   3.44790   3.54313   3.74666
          Condensed to atoms (all electrons):
               1          2          3          4          5          6
     1  C    4.934185   0.504302  -0.043302  -0.032549  -0.051822   0.543820
     2  C    0.504302   4.966322   0.522522  -0.029606  -0.034053  -0.039314
     3  C   -0.043302   0.522522   5.142537   0.493738  -0.055604  -0.025832
     4  C   -0.032549  -0.029606   0.493738   5.085679   0.477917  -0.033173
     5  C   -0.051822  -0.034053  -0.055604   0.477917   5.037891   0.517508
     6  C    0.543820  -0.039314  -0.025832  -0.033173   0.517508   4.828707
     7  N   -0.045046   0.001698  -0.000063   0.001282  -0.046132   0.247690
     8  O    0.003877   0.000798  -0.000002  -0.000021   0.004289  -0.094284
     9  O    0.004067  -0.000029   0.000003   0.000953   0.004349  -0.094015
    10  Cl   0.000167   0.001890  -0.067308   0.236347  -0.073027   0.002966
    11  C    0.001977  -0.035098   0.319479  -0.024752   0.002841  -0.000279
    12  O   -0.000019  -0.000532  -0.086150  -0.000698   0.000191  -0.000014
    13  N    0.000163  -0.001965  -0.131627   0.001172  -0.000068  -0.000005
    14  H    0.367003  -0.023573   0.001823  -0.000058   0.002635  -0.018664
    15  H   -0.021985   0.378182  -0.029962   0.002737   0.000160   0.001209
    16  H    0.002462  -0.000068   0.001606  -0.023638   0.366285  -0.017642
    17  H   -0.000126   0.001501   0.004132  -0.000159  -0.000021   0.000003
    18  H    0.000005  -0.000029   0.005925  -0.000089   0.000001   0.000000
               7          8          9         10         11         12
     1  C   -0.045046   0.003877   0.004067   0.000167   0.001977  -0.000019
     2  C    0.001698   0.000798  -0.000029   0.001890  -0.035098  -0.000532
     3  C   -0.000063  -0.000002   0.000003  -0.067308   0.319479  -0.086150
     4  C    0.001282  -0.000021   0.000953   0.236347  -0.024752  -0.000698
     5  C   -0.046132   0.004289   0.004349  -0.073027   0.002841   0.000191
     6  C    0.247690  -0.094284  -0.094015   0.002966  -0.000279  -0.000014
     7  N    5.637762   0.336989   0.337230  -0.000056  -0.000001   0.000000
     8  O    0.336989   8.312733  -0.089672   0.000000   0.000000   0.000000
     9  O    0.337230  -0.089672   8.309661  -0.000003   0.000000   0.000000
    10  Cl  -0.000056   0.000000  -0.000003  16.826014   0.004049  -0.003086
    11  C   -0.000001   0.000000   0.000000   0.004049   4.073600   0.627947
    12  O    0.000000   0.000000   0.000000  -0.003086   0.627947   8.119683
    13  N    0.000000   0.000000   0.000000  -0.000101   0.300149  -0.087807
    14  H   -0.005283   0.008803   0.000048   0.000005  -0.000034   0.000000
    15  H   -0.000049   0.000000   0.000000  -0.000065  -0.002194  -0.000119
    16  H   -0.005500   0.000065   0.009283  -0.000221  -0.000028   0.000001
    17  H    0.000000   0.000000   0.000000   0.000008  -0.018603   0.002189
    18  H    0.000000   0.000000   0.000000  -0.000003  -0.017761   0.004513
              13         14         15         16         17         18
     1  C    0.000163   0.367003  -0.021985   0.002462  -0.000126   0.000005
     2  C   -0.001965  -0.023573   0.378182  -0.000068   0.001501  -0.000029
     3  C   -0.131627   0.001823  -0.029962   0.001606   0.004132   0.005925
     4  C    0.001172  -0.000058   0.002737  -0.023638  -0.000159  -0.000089
     5  C   -0.000068   0.002635   0.000160   0.366285  -0.000021   0.000001
     6  C   -0.000005  -0.018664   0.001209  -0.017642   0.000003   0.000000
     7  N    0.000000  -0.005283  -0.000049  -0.005500   0.000000   0.000000
     8  O    0.000000   0.008803   0.000000   0.000065   0.000000   0.000000
     9  O    0.000000   0.000048   0.000000   0.009283   0.000000   0.000000
    10  Cl  -0.000101   0.000005  -0.000065  -0.000221   0.000008  -0.000003
    11  C    0.300149  -0.000034  -0.002194  -0.000028  -0.018603  -0.017761
    12  O   -0.087807   0.000000  -0.000119   0.000001   0.002189   0.004513
    13  N    7.232433   0.000000   0.003961   0.000001   0.313688   0.311648
    14  H    0.000000   0.379892  -0.000925  -0.000064  -0.000001   0.000000
    15  H    0.003961  -0.000925   0.415136   0.000006  -0.000082  -0.000023
    16  H    0.000001  -0.000064   0.000006   0.362769   0.000000   0.000000
    17  H    0.313688  -0.000001  -0.000082   0.000000   0.309836  -0.013890
    18  H    0.311648   0.000000  -0.000023   0.000000  -0.013890   0.296588
 Mulliken charges:
               1
     1  C   -0.167179
     2  C   -0.212947
     3  C   -0.051915
     4  C   -0.155082
     5  C   -0.153341
     6  C    0.181319
     7  N    0.539479
     8  O   -0.483575
     9  O   -0.481877
    10  Cl   0.072423
    11  C    0.768707
    12  O   -0.576099
    13  N   -0.941641
    14  H    0.288392
    15  H    0.254011
    16  H    0.304683
    17  H    0.401525
    18  H    0.413115
 Sum of Mulliken charges =   0.00000
 Mulliken charges with hydrogens summed into heavy atoms:
               1
     1  C    0.121213
     2  C    0.041064
     3  C   -0.051915
     4  C   -0.155082
     5  C    0.151342
     6  C    0.181319
     7  N    0.539479
     8  O   -0.483575
     9  O   -0.481877
    10  Cl   0.072423
    11  C    0.768707
    12  O   -0.576099
    13  N   -0.127001
 DipInt: DoE/N= T F RetVal/Mat= T F Init=T NMatP=  1 IDeriv=0 Min/MaxMlt=  0  4
 Entering OneElI...
 OneElI was handed   235815245 working-precision words.
 Multipole integrals L=0 to 4 MinM= 0 MaxM= 0.
 Requested accuracy = 0.1000D-12
 ShPair: Thresh= 1.00D-13 NBox=     0 BxSize= 0.00D+00 RnKept= 1.55D+01
         NSMCal=                 2016 NSMKep=                1743
 PrsmSu:  NPrtUS=   1 ThrOK=F IAlg=1 NPAlg=1 LenDen=           0.
 Prism:   IPart=     0 DynPar=F LinDyn=F Incr=          17.
 PRISM was handed   235636621 working-precision words and  1743 shell-pairs
 IPart=  0 NShTot=        1743 NBatch=          82 AvBLen=        21.3
 PrSmSu:  NxtVal=             18.
 Electronic moments (au):
       -102.00000000         -1.01673629         -1.36552513         -1.20842351
      -2168.19759473       -720.16820547       -114.82031875          5.15294515
          8.08851733          2.00213763      -2493.71795978       -488.57020658
        -13.31692524        780.38824127        977.87302884       -155.73033108
        318.25442346         79.06857692        196.64836198        190.98124755
     -84750.14853701     -10803.98595464       -561.97514779      -4418.13892872
        852.24241812       1827.05538323         83.55072163        103.15793170
       -106.66677830     -11377.38776269      -3083.82950841       -757.67151599
       -832.18178485      -1055.90082715       -436.60086746
 Electronic spatial extent (au):  <R**2>=           3003.1861
 DipInt: DoE/N= F T RetVal/Mat= T F Init=T NMatP=  1 IDeriv=0 Min/MaxMlt=  0  4
 Nuclear    moments (au):
        102.00000000          0.00000000          0.00000000          0.00000000
       2092.76132125        664.72060893         55.00588847          0.00000000
         -0.00018572          0.00002914       2365.13658552        478.69963191
          3.29424094       -799.55406167      -1010.59243490        103.77501508
       -311.07342562        -84.31637509       -203.05969225       -203.42147302
      76904.17429412       8520.21010078        202.61700033       4712.43648031
       -503.00042947      -1840.66943896        -64.66626989        -56.72568607
        143.02451832       9844.08639209       1871.81316887        307.63639133
        924.16683930       1103.72562652        481.94478862
 Total      moments (au):
          0.00000000         -1.01673629         -1.36552513         -1.20842351
        -75.43627348        -55.44759654        -59.81443029          5.15294515
          8.08833160          2.00216677       -128.58137427         -9.87057467
        -10.02268430        -19.16582039        -32.71940606        -51.95531600
          7.18099784         -5.24779817         -6.41133027        -12.44022547
      -7845.97424289      -2283.77585386       -359.35814746        294.29755159
        349.24198865        -13.61405573         18.88445174         46.43224563
         36.35774002      -1533.30137060      -1212.01633954       -450.03512466
         91.98505446         47.82479937         45.34392116
 Traceless Quadrup. (au):
        -11.87017338          8.11850356          3.75166982          5.15294515
          8.08833160          2.00216677
 Charge=              0.0000 electrons
 Dipole moment (field-independent basis, Debye):
    X=             -2.5843    Y=             -3.4708    Z=             -3.0715  Tot=              5.3065
 Quadrupole moment (field-independent basis, Debye-Ang):
   XX=           -101.4644   YY=            -74.5789   ZZ=            -80.4525
   XY=              6.9309   XZ=             10.8791   YZ=              2.6930
 Traceless Quadrupole moment (field-independent basis, Debye-Ang):
   XX=            -15.9658   YY=             10.9197   ZZ=              5.0461
   XY=              6.9309   XZ=             10.8791   YZ=              2.6930
 Octapole moment (field-independent basis, Debye-Ang**2):
  XXX=            -91.5193  YYY=             -7.0255  ZZZ=             -7.1338  XYY=            -13.6415
  XXY=            -23.2884  XXZ=            -36.9798  XZZ=              5.1112  YZZ=             -3.7352
  YYZ=             -4.5633  XYZ=             -8.8545
 Hexadecapole moment (field-independent basis, Debye-Ang**3):
 XXXX=          -2955.1699 YYYY=           -860.1794 ZZZZ=           -135.3515 XXXY=            110.8466
 XXXZ=            131.5413 YYYX=             -5.1277 YYYZ=              7.1128 ZZZX=             17.4886
 ZZZY=             13.6941 XXYY=           -577.5148 XXZZ=           -456.5034 YYZZ=           -169.5048
 XXYZ=             34.6460 YYXZ=             18.0131 ZZXY=             17.0787
 N-N= 8.461991803210D+02 E-N=-4.196608249148D+03  KE= 1.059811127298D+03
 Entering OneElI...
 OneElI was handed   235841809 working-precision words.
 Calculate electrostatic properties
    NBasis =   196  MinDer = 0  MaxDer = 0
    NGrid  =    18  NMatD  =   1
 Requested accuracy = 0.1000D-12
 ShPair: Thresh= 1.00D-13 NBox=     0 BxSize= 0.00D+00 RnKept= 1.55D+01
         NSMCal=                 2016 NSMKep=                1610
 PrsmSu:  NPrtUS=   1 ThrOK=F IAlg=1 NPAlg=1 LenDen=           0.
 Prism:   IPart=     0 DynPar=F LinDyn=F Incr=         289.
 PRISM was handed   235675787 working-precision words and  1610 shell-pairs
 IPart=  0 NShTot=       28980 NBatch=        1611 AvBLen=        18.0
 PrSmSu:  NxtVal=            290.
 --------------------------------------------------------
       Center         ----      EFG at Nuclei      ----
                      3XX-RR        3YY-RR        3ZZ-RR
 --------------------------------------------------------
     1   Atom        0.217204      0.167486     -0.384690
     2   Atom        0.169727      0.152262     -0.321989
     3   Atom        0.140523      0.166783     -0.307306
     4   Atom        0.163938     -0.044881     -0.119058
     5   Atom        0.155194      0.207344     -0.362538
     6   Atom       -0.256102      0.323682     -0.067581
     7   Atom        0.460636      0.191804     -0.652440
     8   Atom        1.093925     -0.674219     -0.419706
     9   Atom        1.887216     -1.451716     -0.435501
    10   Atom        0.336057     -2.143956      1.807900
    11   Atom        0.254005     -0.212717     -0.041288
    12   Atom        0.851688     -0.303021     -0.548667
    13   Atom       -0.376427      0.481775     -0.105347
    14   Atom       -0.012065     -0.146595      0.158660
    15   Atom        0.066248     -0.228518      0.162270
    16   Atom        0.069916     -0.227595      0.157679
    17   Atom        0.023124      0.184484     -0.207607
    18   Atom       -0.389415      0.206338      0.183077
 --------------------------------------------------------
                        XY            XZ            YZ
 --------------------------------------------------------
     1   Atom       -0.036737      0.003513     -0.035998
     2   Atom        0.017514      0.003588     -0.035227
     3   Atom       -0.034288     -0.000692     -0.035036
     4   Atom        0.255409     -0.032120     -0.019289
     5   Atom        0.036465     -0.005514     -0.040919
     6   Atom       -0.059164      0.002824     -0.024454
     7   Atom        0.029789     -0.006334     -0.050832
     8   Atom        2.039033     -0.125668      0.006142
     9   Atom       -1.466313      0.077596      0.068180
    10   Atom        2.749297     -0.355196      0.370782
    11   Atom        0.040656     -0.149909      0.355339
    12   Atom        1.007934      0.768751      0.401383
    13   Atom       -0.274818      0.143769     -0.636556
    14   Atom        0.214727     -0.014678      0.020538
    15   Atom       -0.163744      0.011540      0.028152
    16   Atom       -0.165584      0.012249      0.028666
    17   Atom        0.052109      0.245029     -0.144241
    18   Atom       -0.066247     -0.011839     -0.033344
 --------------------------------------------------------


 ---------------------------------------------------------------------------------
              Nuclear Quadrupole Coupling Constant in Principal Axis System
 ---------------------------------------------------------------------------------

       Atom             a.u.   MegaHertz   Gauss  10(-4) cm-1        Axes

              Baa    -0.6555     3.148     1.123     1.050  0.0041  0.0597  0.9982
     7 N(14)  Bbb     0.1915    -0.920    -0.328    -0.307 -0.1112  0.9921 -0.0589
              Bcc     0.4640    -2.229    -0.795    -0.743  0.9938  0.1107 -0.0107
 
              Baa    -3.9640   -76.049   -27.136   -25.367 -0.5417  0.8360 -0.0870
    10 Cl(35) Bbb     1.8199    34.914    12.458    11.646  0.2191  0.2404  0.9456
              Bcc     2.1441    41.135    14.678    13.721  0.8115  0.4932 -0.3134
 
              Baa    -0.5221     2.508     0.895     0.836  0.3266  0.5683  0.7552
    13 N(14)  Bbb    -0.4385     2.106     0.751     0.702  0.9179 -0.0003 -0.3967
              Bcc     0.9606    -4.614    -1.646    -1.539 -0.2252  0.8228 -0.5217
 

 ---------------------------------------------------------------------------------

 No NMR shielding tensors so no spin-rotation constants.
 Leave Link  601 at Thu Jan 16 21:47:18 2014, MaxMem=   235929600 cpu:         0.3
 FitSet:  NAtFit=    18 NAtPot=    18 NAtFrz=     0 MDM=    22 TotChg=   0.00000
 Merz-Kollman atomic radii used.
 Atom Element Radius
    1     6    1.50
    2     6    1.50
    3     6    1.50
    4     6    1.50
    5     6    1.50
    6     6    1.50
    7     7    1.50
    8     8    1.40
    9     8    1.40
   10    17    1.70
   11     6    1.50
   12     8    1.40
   13     7    1.50
   14     1    1.20
   15     1    1.20
   16     1    1.20
   17     1    1.20
   18     1    1.20
 Generate VDW surfaces: Layer= 5 Dens= 2 Start= 1.400 Inc= 0.179

 **********************************************************************

            Electrostatic Properties Using The SCF Density

 **********************************************************************

       Atomic Center    1 is at   1.143844 -1.504486  0.103716
       Atomic Center    2 is at  -0.241325 -1.635398  0.107888
       Atomic Center    3 is at  -1.085933 -0.516514  0.045736
       Atomic Center    4 is at  -0.502688  0.759637 -0.032716
       Atomic Center    5 is at   0.881355  0.914224 -0.050615
       Atomic Center    6 is at   1.679300 -0.223199  0.023541
       Atomic Center    7 is at   3.145370 -0.057949  0.009031
       Atomic Center    8 is at   3.829820 -1.077825  0.066703
       Atomic Center    9 is at   3.589029  1.086141 -0.061382
       Atomic Center   10 is at  -1.483437  2.201070 -0.163222
       Atomic Center   11 is at  -2.582898 -0.719610  0.143555
       Atomic Center   12 is at  -3.263729 -0.156478  0.982190
       Atomic Center   13 is at  -3.082579 -1.647915 -0.733272
       Atomic Center   14 is at   1.801283 -2.362538  0.162194
       Atomic Center   15 is at  -0.686869 -2.622587  0.181311
       Atomic Center   16 is at   1.336549  1.893405 -0.122491
       Atomic Center   17 is at  -2.573908 -1.895240 -1.570243
       Atomic Center   18 is at  -4.089062 -1.752817 -0.753039
      ESP Fit Center   19 is at   1.143844 -1.504486  2.203716
      ESP Fit Center   20 is at   1.862086 -1.504486  2.077071
      ESP Fit Center   21 is at   1.502965 -0.882470  2.077071
      ESP Fit Center   22 is at   0.784723 -0.882470  2.077071
      ESP Fit Center   23 is at   0.784723 -2.126502  2.077071
      ESP Fit Center   24 is at   1.502965 -2.126502  2.077071
      ESP Fit Center   25 is at   2.493698 -1.504486  1.712409
      ESP Fit Center   26 is at   0.951740 -2.840600  1.712409
      ESP Fit Center   27 is at   0.953743 -3.313176 -0.946284
      ESP Fit Center   28 is at   2.493698 -1.504486 -1.504977
      ESP Fit Center   29 is at   0.951740 -2.840600 -1.504977
      ESP Fit Center   30 is at   1.704594 -2.732356 -1.504977
      ESP Fit Center   31 is at   2.279414 -2.234272 -1.504977
      ESP Fit Center   32 is at   1.862086 -1.504486 -1.869638
      ESP Fit Center   33 is at   0.784723 -0.882470 -1.869638
      ESP Fit Center   34 is at   0.784723 -2.126502 -1.869638
      ESP Fit Center   35 is at   1.502965 -2.126502 -1.869638
      ESP Fit Center   36 is at   1.143844 -1.504486 -1.996284
      ESP Fit Center   37 is at  -0.241325 -1.635398  2.207888
      ESP Fit Center   38 is at   0.117796 -1.013382  2.081243
      ESP Fit Center   39 is at  -0.600446 -1.013382  2.081243
      ESP Fit Center   40 is at  -0.959567 -1.635398  2.081243
      ESP Fit Center   41 is at  -0.600446 -2.257414  2.081243
      ESP Fit Center   42 is at   0.117796 -2.257414  2.081243
      ESP Fit Center   43 is at   0.319425 -0.407528  1.716581
      ESP Fit Center   44 is at  -1.536500 -2.015696  1.716581
      ESP Fit Center   45 is at   0.319425 -2.863268  1.716581
      ESP Fit Center   46 is at   0.320670 -3.365040 -0.942112
      ESP Fit Center   47 is at  -0.433429 -2.971512 -1.500805
      ESP Fit Center   48 is at   0.319425 -2.863268 -1.500805
      ESP Fit Center   49 is at   0.117796 -1.013382 -1.865466
      ESP Fit Center   50 is at  -0.600446 -2.257414 -1.865466
      ESP Fit Center   51 is at   0.117796 -2.257414 -1.865466
      ESP Fit Center   52 is at  -0.241325 -1.635398 -1.992112
      ESP Fit Center   53 is at  -1.085933 -0.516514  2.145736
      ESP Fit Center   54 is at  -0.367691 -0.516514  2.019091
      ESP Fit Center   55 is at  -0.726812  0.105502  2.019091
      ESP Fit Center   56 is at  -1.445054  0.105502  2.019091
      ESP Fit Center   57 is at  -1.445054 -1.138530  2.019091
      ESP Fit Center   58 is at  -0.367691 -0.516514 -1.927618
      ESP Fit Center   59 is at  -1.445054  0.105502 -1.927618
      ESP Fit Center   60 is at  -0.726812 -1.138530 -1.927618
      ESP Fit Center   61 is at  -1.085933 -0.516514 -2.054264
      ESP Fit Center   62 is at  -0.502688  0.759637  2.067284
      ESP Fit Center   63 is at   0.215554  0.759637  1.940639
      ESP Fit Center   64 is at  -0.143567  1.381653  1.940639
      ESP Fit Center   65 is at  -1.220930  0.759637  1.940639
      ESP Fit Center   66 is at  -0.143567  0.137621  1.940639
      ESP Fit Center   67 is at  -0.143567  1.381653 -2.006070
      ESP Fit Center   68 is at  -0.861809  0.137621 -2.006070
      ESP Fit Center   69 is at  -0.143567  0.137621 -2.006070
      ESP Fit Center   70 is at  -0.502688  0.759637 -2.132716
      ESP Fit Center   71 is at   0.881355  0.914224  2.049385
      ESP Fit Center   72 is at   1.599597  0.914224  1.922740
      ESP Fit Center   73 is at   1.240476  1.536240  1.922740
      ESP Fit Center   74 is at   0.522234  1.536240  1.922740
      ESP Fit Center   75 is at   0.522234  0.292208  1.922740
      ESP Fit Center   76 is at   2.016925  1.644010  1.558078
      ESP Fit Center   77 is at   1.442105  2.142094  1.558078
      ESP Fit Center   78 is at   0.689251  2.250338  1.558078
      ESP Fit Center   79 is at   2.231209  0.914224 -1.659308
      ESP Fit Center   80 is at   2.016925  1.644010 -1.659308
      ESP Fit Center   81 is at   0.689251  2.250338 -1.659308
      ESP Fit Center   82 is at   1.599597  0.914224 -2.023969
      ESP Fit Center   83 is at   1.240476  1.536240 -2.023969
      ESP Fit Center   84 is at   0.522234  1.536240 -2.023969
      ESP Fit Center   85 is at   0.163113  0.914224 -2.023969
      ESP Fit Center   86 is at   0.522234  0.292208 -2.023969
      ESP Fit Center   87 is at   1.240476  0.292208 -2.023969
      ESP Fit Center   88 is at   0.881355  0.914224 -2.150615
      ESP Fit Center   89 is at   1.679300 -0.223199  2.123541
      ESP Fit Center   90 is at   2.397542 -0.223199  1.996896
      ESP Fit Center   91 is at   2.038421  0.398817  1.996896
      ESP Fit Center   92 is at   1.320179  0.398817  1.996896
      ESP Fit Center   93 is at   0.961058 -0.223199  1.996896
      ESP Fit Center   94 is at   2.038421 -0.845215  1.996896
      ESP Fit Center   95 is at   2.240050  1.004671  1.632234
      ESP Fit Center   96 is at   2.397542 -0.223199 -1.949813
      ESP Fit Center   97 is at   2.038421  0.398817 -1.949813
      ESP Fit Center   98 is at   0.961058 -0.223199 -1.949813
      ESP Fit Center   99 is at   1.320179 -0.845215 -1.949813
      ESP Fit Center  100 is at   2.038421 -0.845215 -1.949813
      ESP Fit Center  101 is at   1.679300 -0.223199 -2.076459
      ESP Fit Center  102 is at   3.145370 -0.057949  2.109031
      ESP Fit Center  103 is at   3.863612 -0.057949  1.982386
      ESP Fit Center  104 is at   3.504491  0.564067  1.982386
      ESP Fit Center  105 is at   2.786249  0.564067  1.982386
      ESP Fit Center  106 is at   2.427128 -0.057949  1.982386
      ESP Fit Center  107 is at   2.786249 -0.679965  1.982386
      ESP Fit Center  108 is at   3.504491 -0.679965  1.982386
      ESP Fit Center  109 is at   4.495224 -0.057949  1.617724
      ESP Fit Center  110 is at   4.495224 -0.057949 -1.599662
      ESP Fit Center  111 is at   3.863612 -0.057949 -1.964323
      ESP Fit Center  112 is at   3.504491  0.564067 -1.964323
      ESP Fit Center  113 is at   2.786249  0.564067 -1.964323
      ESP Fit Center  114 is at   2.427128 -0.057949 -1.964323
      ESP Fit Center  115 is at   2.786249 -0.679965 -1.964323
      ESP Fit Center  116 is at   3.504491 -0.679965 -1.964323
      ESP Fit Center  117 is at   3.145370 -0.057949 -2.090969
      ESP Fit Center  118 is at   3.829820 -1.077825  2.026703
      ESP Fit Center  119 is at   4.579880 -1.077825  1.877507
      ESP Fit Center  120 is at   4.204850 -0.428254  1.877507
      ESP Fit Center  121 is at   3.079761 -1.077825  1.877507
      ESP Fit Center  122 is at   3.454790 -1.727395  1.877507
      ESP Fit Center  123 is at   4.204850 -1.727395  1.877507
      ESP Fit Center  124 is at   5.215749 -1.077825  1.452632
      ESP Fit Center  125 is at   5.030070 -0.384860  1.452632
      ESP Fit Center  126 is at   3.136855 -2.278075  1.452632
      ESP Fit Center  127 is at   3.829820 -2.463754  1.452632
      ESP Fit Center  128 is at   4.522785 -2.278075  1.452632
      ESP Fit Center  129 is at   5.030070 -1.770790  1.452632
      ESP Fit Center  130 is at   5.640624 -1.077825  0.816763
      ESP Fit Center  131 is at   5.484072 -0.341305  0.816763
      ESP Fit Center  132 is at   3.640540 -2.878709  0.816763
      ESP Fit Center  133 is at   4.389389 -2.800002  0.816763
      ESP Fit Center  134 is at   5.041484 -2.423514  0.816763
      ESP Fit Center  135 is at   5.484072 -1.814345  0.816763
      ESP Fit Center  136 is at   5.789820 -1.077825  0.066703
      ESP Fit Center  137 is at   5.657466 -0.369791  0.066703
      ESP Fit Center  138 is at   4.010666 -3.029464  0.066703
      ESP Fit Center  139 is at   4.703467 -2.832345  0.066703
      ESP Fit Center  140 is at   5.278278 -2.398268  0.066703
      ESP Fit Center  141 is at   5.657466 -1.785859  0.066703
      ESP Fit Center  142 is at   5.640624 -1.077825 -0.683356
      ESP Fit Center  143 is at   5.484072 -0.341305 -0.683356
      ESP Fit Center  144 is at   3.640540 -2.878709 -0.683356
      ESP Fit Center  145 is at   4.389389 -2.800002 -0.683356
      ESP Fit Center  146 is at   5.041484 -2.423514 -0.683356
      ESP Fit Center  147 is at   5.484072 -1.814345 -0.683356
      ESP Fit Center  148 is at   5.215749 -1.077825 -1.319226
      ESP Fit Center  149 is at   5.030070 -0.384860 -1.319226
      ESP Fit Center  150 is at   3.136855 -2.278075 -1.319226
      ESP Fit Center  151 is at   3.829820 -2.463754 -1.319226
      ESP Fit Center  152 is at   4.522785 -2.278075 -1.319226
      ESP Fit Center  153 is at   5.030070 -1.770790 -1.319226
      ESP Fit Center  154 is at   4.579880 -1.077825 -1.744101
      ESP Fit Center  155 is at   3.454790 -1.727395 -1.744101
      ESP Fit Center  156 is at   4.204850 -1.727395 -1.744101
      ESP Fit Center  157 is at   3.829820 -1.077825 -1.893297
      ESP Fit Center  158 is at   3.589029  1.086141  1.898618
      ESP Fit Center  159 is at   4.339089  1.086141  1.749422
      ESP Fit Center  160 is at   3.964059  1.735712  1.749422
      ESP Fit Center  161 is at   3.213999  1.735712  1.749422
      ESP Fit Center  162 is at   2.838970  1.086141  1.749422
      ESP Fit Center  163 is at   4.974958  1.086141  1.324547
      ESP Fit Center  164 is at   4.789279  1.779106  1.324547
      ESP Fit Center  165 is at   4.281994  2.286391  1.324547
      ESP Fit Center  166 is at   3.589029  2.472070  1.324547
      ESP Fit Center  167 is at   2.896064  2.286391  1.324547
      ESP Fit Center  168 is at   2.388779  1.779106  1.324547
      ESP Fit Center  169 is at   4.789279  0.393176  1.324547
      ESP Fit Center  170 is at   5.399833  1.086141  0.688678
      ESP Fit Center  171 is at   5.243281  1.822661  0.688678
      ESP Fit Center  172 is at   4.800693  2.431831  0.688678
      ESP Fit Center  173 is at   4.148598  2.808318  0.688678
      ESP Fit Center  174 is at   3.399749  2.887025  0.688678
      ESP Fit Center  175 is at   2.683627  2.654343  0.688678
      ESP Fit Center  176 is at   5.243281  0.349621  0.688678
      ESP Fit Center  177 is at   5.549029  1.086141 -0.061382
      ESP Fit Center  178 is at   5.416675  1.794175 -0.061382
      ESP Fit Center  179 is at   5.037487  2.406585 -0.061382
      ESP Fit Center  180 is at   4.462676  2.840661 -0.061382
      ESP Fit Center  181 is at   3.769875  3.037780 -0.061382
      ESP Fit Center  182 is at   3.052650  2.971319 -0.061382
      ESP Fit Center  183 is at   5.416675  0.378107 -0.061382
      ESP Fit Center  184 is at   5.399833  1.086141 -0.811441
      ESP Fit Center  185 is at   5.243281  1.822661 -0.811441
      ESP Fit Center  186 is at   4.800693  2.431831 -0.811441
      ESP Fit Center  187 is at   4.148598  2.808318 -0.811441
      ESP Fit Center  188 is at   3.399749  2.887025 -0.811441
      ESP Fit Center  189 is at   2.683627  2.654343 -0.811441
      ESP Fit Center  190 is at   5.243281  0.349621 -0.811441
      ESP Fit Center  191 is at   4.974958  1.086141 -1.447311
      ESP Fit Center  192 is at   4.789279  1.779106 -1.447311
      ESP Fit Center  193 is at   4.281994  2.286391 -1.447311
      ESP Fit Center  194 is at   3.589029  2.472070 -1.447311
      ESP Fit Center  195 is at   2.896064  2.286391 -1.447311
      ESP Fit Center  196 is at   2.388779  1.779106 -1.447311
      ESP Fit Center  197 is at   4.789279  0.393176 -1.447311
      ESP Fit Center  198 is at   4.339089  1.086141 -1.872186
      ESP Fit Center  199 is at   3.964059  1.735712 -1.872186
      ESP Fit Center  200 is at   3.213999  1.735712 -1.872186
      ESP Fit Center  201 is at   2.838970  1.086141 -1.872186
      ESP Fit Center  202 is at   3.964059  0.436571 -1.872186
      ESP Fit Center  203 is at   3.589029  1.086141 -2.021382
      ESP Fit Center  204 is at  -1.483437  2.201070  2.216778
      ESP Fit Center  205 is at  -0.747976  2.201070  2.100293
      ESP Fit Center  206 is at  -1.115707  2.837997  2.100293
      ESP Fit Center  207 is at  -1.851167  2.837997  2.100293
      ESP Fit Center  208 is at  -2.218897  2.201070  2.100293
      ESP Fit Center  209 is at  -1.851167  1.564143  2.100293
      ESP Fit Center  210 is at  -1.115707  1.564143  2.100293
      ESP Fit Center  211 is at  -0.084508  2.201070  1.762239
      ESP Fit Center  212 is at  -0.271929  2.900534  1.762239
      ESP Fit Center  213 is at  -0.783972  3.412578  1.762239
      ESP Fit Center  214 is at  -1.483437  3.599999  1.762239
      ESP Fit Center  215 is at  -2.182901  3.412578  1.762239
      ESP Fit Center  216 is at  -2.694945  2.900534  1.762239
      ESP Fit Center  217 is at  -2.882366  2.201070  1.762239
      ESP Fit Center  218 is at   0.295457  2.937912  1.235707
      ESP Fit Center  219 is at  -0.121931  3.562576  1.235707
      ESP Fit Center  220 is at  -0.746595  3.979964  1.235707
      ESP Fit Center  221 is at  -1.483437  4.126530  1.235707
      ESP Fit Center  222 is at  -2.220279  3.979964  1.235707
      ESP Fit Center  223 is at  -2.844943  3.562576  1.235707
      ESP Fit Center  224 is at  -3.262330  2.937912  1.235707
      ESP Fit Center  225 is at  -3.408897  2.201070  1.235707
      ESP Fit Center  226 is at   0.302794  3.591349  0.572239
      ESP Fit Center  227 is at  -0.245412  4.096009  0.572239
      ESP Fit Center  228 is at  -0.927777  4.395322  0.572239
      ESP Fit Center  229 is at  -1.670356  4.456854  0.572239
      ESP Fit Center  230 is at  -2.392680  4.273936  0.572239
      ESP Fit Center  231 is at  -3.016474  3.866392  0.572239
      ESP Fit Center  232 is at  -3.474139  3.278384  0.572239
      ESP Fit Center  233 is at  -3.716080  2.573632  0.572239
      ESP Fit Center  234 is at  -3.716080  1.828508  0.572239
      ESP Fit Center  235 is at   0.483011  3.541772 -0.163222
      ESP Fit Center  236 is at   0.000469  4.061829 -0.163222
      ESP Fit Center  237 is at  -0.613925  4.416550 -0.163222
      ESP Fit Center  238 is at  -1.305579  4.574415 -0.163222
      ESP Fit Center  239 is at  -2.013037  4.521398 -0.163222
      ESP Fit Center  240 is at  -2.673437  4.262211 -0.163222
      ESP Fit Center  241 is at  -3.228100  3.819881 -0.163222
      ESP Fit Center  242 is at  -3.627743  3.233713 -0.163222
      ESP Fit Center  243 is at  -3.836854  2.555791 -0.163222
      ESP Fit Center  244 is at  -3.836854  1.846349 -0.163222
      ESP Fit Center  245 is at   0.302794  3.591349 -0.898682
      ESP Fit Center  246 is at  -0.245412  4.096009 -0.898682
      ESP Fit Center  247 is at  -0.927777  4.395322 -0.898682
      ESP Fit Center  248 is at  -1.670356  4.456854 -0.898682
      ESP Fit Center  249 is at  -2.392680  4.273936 -0.898682
      ESP Fit Center  250 is at  -3.016474  3.866392 -0.898682
      ESP Fit Center  251 is at  -3.474139  3.278384 -0.898682
      ESP Fit Center  252 is at  -3.716080  2.573632 -0.898682
      ESP Fit Center  253 is at  -3.716080  1.828508 -0.898682
      ESP Fit Center  254 is at  -3.474139  1.123756 -0.898682
      ESP Fit Center  255 is at   0.295457  2.937912 -1.562151
      ESP Fit Center  256 is at  -0.121931  3.562576 -1.562151
      ESP Fit Center  257 is at  -0.746595  3.979964 -1.562151
      ESP Fit Center  258 is at  -1.483437  4.126530 -1.562151
      ESP Fit Center  259 is at  -2.220279  3.979964 -1.562151
      ESP Fit Center  260 is at  -2.844943  3.562576 -1.562151
      ESP Fit Center  261 is at  -3.262330  2.937912 -1.562151
      ESP Fit Center  262 is at  -3.408897  2.201070 -1.562151
      ESP Fit Center  263 is at  -3.262330  1.464228 -1.562151
      ESP Fit Center  264 is at  -2.844943  0.839564 -1.562151
      ESP Fit Center  265 is at  -0.084508  2.201070 -2.088682
      ESP Fit Center  266 is at  -0.271929  2.900534 -2.088682
      ESP Fit Center  267 is at  -0.783972  3.412578 -2.088682
      ESP Fit Center  268 is at  -1.483437  3.599999 -2.088682
      ESP Fit Center  269 is at  -2.182901  3.412578 -2.088682
      ESP Fit Center  270 is at  -2.694945  2.900534 -2.088682
      ESP Fit Center  271 is at  -2.882366  2.201070 -2.088682
      ESP Fit Center  272 is at  -2.694945  1.501606 -2.088682
      ESP Fit Center  273 is at  -2.182901  0.989562 -2.088682
      ESP Fit Center  274 is at  -1.483437  0.802141 -2.088682
      ESP Fit Center  275 is at  -0.271929  1.501606 -2.088682
      ESP Fit Center  276 is at  -0.747976  2.201070 -2.426736
      ESP Fit Center  277 is at  -1.115707  2.837997 -2.426736
      ESP Fit Center  278 is at  -1.851167  2.837997 -2.426736
      ESP Fit Center  279 is at  -2.218897  2.201070 -2.426736
      ESP Fit Center  280 is at  -1.851167  1.564143 -2.426736
      ESP Fit Center  281 is at  -1.115707  1.564143 -2.426736
      ESP Fit Center  282 is at  -1.483437  2.201070 -2.543222
      ESP Fit Center  283 is at  -2.775002 -2.055724  1.752248
      ESP Fit Center  284 is at  -2.022148 -1.947480  1.752248
      ESP Fit Center  285 is at  -2.772999 -2.528301  1.193555
      ESP Fit Center  286 is at  -2.020903 -2.449252  1.193555
      ESP Fit Center  287 is at  -3.492225  0.855390 -0.906445
      ESP Fit Center  288 is at  -4.054219  0.349368 -0.906445
      ESP Fit Center  289 is at  -2.775002  0.616504 -1.465138
      ESP Fit Center  290 is at  -3.466864  0.300542 -1.465138
      ESP Fit Center  291 is at  -3.263729 -0.156478  2.942190
      ESP Fit Center  292 is at  -2.513669 -0.156478  2.792994
      ESP Fit Center  293 is at  -2.888699  0.493093  2.792994
      ESP Fit Center  294 is at  -3.638759  0.493093  2.792994
      ESP Fit Center  295 is at  -4.013788 -0.156478  2.792994
      ESP Fit Center  296 is at  -3.638759 -0.806049  2.792994
      ESP Fit Center  297 is at  -2.888699 -0.806049  2.792994
      ESP Fit Center  298 is at  -1.877800 -0.156478  2.368119
      ESP Fit Center  299 is at  -2.063479  0.536487  2.368119
      ESP Fit Center  300 is at  -2.570764  1.043772  2.368119
      ESP Fit Center  301 is at  -3.263729  1.229451  2.368119
      ESP Fit Center  302 is at  -3.956694  1.043772  2.368119
      ESP Fit Center  303 is at  -4.463979  0.536487  2.368119
      ESP Fit Center  304 is at  -4.649658 -0.156478  2.368119
      ESP Fit Center  305 is at  -4.463979 -0.849443  2.368119
      ESP Fit Center  306 is at  -3.956694 -1.356728  2.368119
      ESP Fit Center  307 is at  -3.263729 -1.542407  2.368119
      ESP Fit Center  308 is at  -2.570764 -1.356728  2.368119
      ESP Fit Center  309 is at  -2.063479 -0.849443  2.368119
      ESP Fit Center  310 is at  -3.453009  1.644406  1.732250
      ESP Fit Center  311 is at  -4.169131  1.411724  1.732250
      ESP Fit Center  312 is at  -4.728700  0.907886  1.732250
      ESP Fit Center  313 is at  -5.034962  0.220009  1.732250
      ESP Fit Center  314 is at  -5.034962 -0.532965  1.732250
      ESP Fit Center  315 is at  -4.728700 -1.220842  1.732250
      ESP Fit Center  316 is at  -4.169131 -1.724680  1.732250
      ESP Fit Center  317 is at  -3.453009 -1.957362  1.732250
      ESP Fit Center  318 is at  -3.800108  1.728700  0.982190
      ESP Fit Center  319 is at  -4.444893  1.407636  0.982190
      ESP Fit Center  320 is at  -4.930154  0.875329  0.982190
      ESP Fit Center  321 is at  -5.190356  0.203671  0.982190
      ESP Fit Center  322 is at  -5.190356 -0.516627  0.982190
      ESP Fit Center  323 is at  -4.930154 -1.188285  0.982190
      ESP Fit Center  324 is at  -4.444893 -1.720592  0.982190
      ESP Fit Center  325 is at  -4.169131  1.411724  0.232131
      ESP Fit Center  326 is at  -4.728700  0.907886  0.232131
      ESP Fit Center  327 is at  -5.034962  0.220009  0.232131
      ESP Fit Center  328 is at  -5.034962 -0.532965  0.232131
      ESP Fit Center  329 is at  -3.956694  1.043772 -0.403739
      ESP Fit Center  330 is at  -4.463979  0.536487 -0.403739
      ESP Fit Center  331 is at  -4.649658 -0.156478 -0.403739
      ESP Fit Center  332 is at  -3.966545 -2.668067  0.875421
      ESP Fit Center  333 is at  -3.274683 -2.984029  0.875421
      ESP Fit Center  334 is at  -2.521829 -2.875785  0.875421
      ESP Fit Center  335 is at  -3.991906 -3.222915  0.316728
      ESP Fit Center  336 is at  -3.272680 -3.456606  0.316728
      ESP Fit Center  337 is at  -2.520584 -3.377557  0.316728
      ESP Fit Center  338 is at  -3.648540 -3.637063 -0.368611
      ESP Fit Center  339 is at  -2.891759 -3.707189 -0.368611
      ESP Fit Center  340 is at  -2.160749 -3.499199 -0.368611
      ESP Fit Center  341 is at  -4.328885  0.002461 -1.097933
      ESP Fit Center  342 is at  -3.648540 -3.637063 -1.097933
      ESP Fit Center  343 is at  -2.891759 -3.707189 -1.097933
      ESP Fit Center  344 is at  -2.160749 -3.499199 -1.097933
      ESP Fit Center  345 is at  -3.272680  0.160776 -1.783272
      ESP Fit Center  346 is at  -3.991906 -0.072915 -1.783272
      ESP Fit Center  347 is at  -3.991906 -3.222915 -1.783272
      ESP Fit Center  348 is at  -3.272680 -3.456606 -1.783272
      ESP Fit Center  349 is at  -3.274683 -0.311801 -2.341965
      ESP Fit Center  350 is at  -3.966545 -0.627763 -2.341965
      ESP Fit Center  351 is at  -4.377754 -1.267617 -2.341965
      ESP Fit Center  352 is at  -3.966545 -2.668067 -2.341965
      ESP Fit Center  353 is at  -3.800821 -1.647915 -2.706626
      ESP Fit Center  354 is at   2.530208 -2.362538  1.675822
      ESP Fit Center  355 is at   1.436821 -2.993805  1.675822
      ESP Fit Center  356 is at   2.165745 -2.993805  1.675822
      ESP Fit Center  357 is at   1.395396 -3.611729  1.209657
      ESP Fit Center  358 is at   2.207170 -3.611729  1.209657
      ESP Fit Center  359 is at   2.863908 -3.134580  1.209657
      ESP Fit Center  360 is at   1.220483 -3.893981  0.536029
      ESP Fit Center  361 is at   1.998708 -3.988475  0.536029
      ESP Fit Center  362 is at   2.731704 -3.710486  0.536029
      ESP Fit Center  363 is at   3.251553 -3.123698  0.536029
      ESP Fit Center  364 is at   1.220483 -3.893981 -0.211641
      ESP Fit Center  365 is at   1.998708 -3.988475 -0.211641
      ESP Fit Center  366 is at   2.731704 -3.710486 -0.211641
      ESP Fit Center  367 is at   3.251553 -3.123698 -0.211641
      ESP Fit Center  368 is at   1.395396 -3.611729 -0.885269
      ESP Fit Center  369 is at   2.207170 -3.611729 -0.885269
      ESP Fit Center  370 is at   2.863908 -3.134580 -0.885269
      ESP Fit Center  371 is at   2.530208 -2.362538 -1.351434
      ESP Fit Center  372 is at   1.436821 -2.993805 -1.351434
      ESP Fit Center  373 is at   2.165745 -2.993805 -1.351434
      ESP Fit Center  374 is at  -1.415794 -2.622587  1.694939
      ESP Fit Center  375 is at  -1.051331 -3.253854  1.694939
      ESP Fit Center  376 is at  -0.322407 -3.253854  1.694939
      ESP Fit Center  377 is at  -2.000346 -2.622587  1.228774
      ESP Fit Center  378 is at  -1.749494 -3.394629  1.228774
      ESP Fit Center  379 is at  -1.092756 -3.871778  1.228774
      ESP Fit Center  380 is at  -0.280982 -3.871778  1.228774
      ESP Fit Center  381 is at   0.375756 -3.394629  1.228774
      ESP Fit Center  382 is at  -1.912839 -3.708702  0.555146
      ESP Fit Center  383 is at  -1.267669 -4.154030  0.555146
      ESP Fit Center  384 is at  -0.489444 -4.248524  0.555146
      ESP Fit Center  385 is at   0.243552 -3.970535  0.555146
      ESP Fit Center  386 is at  -1.912839 -3.708702 -0.192524
      ESP Fit Center  387 is at  -1.267669 -4.154030 -0.192524
      ESP Fit Center  388 is at  -0.489444 -4.248524 -0.192524
      ESP Fit Center  389 is at   0.243552 -3.970535 -0.192524
      ESP Fit Center  390 is at  -1.749494 -3.394629 -0.866152
      ESP Fit Center  391 is at  -1.092756 -3.871778 -0.866152
      ESP Fit Center  392 is at  -0.280982 -3.871778 -0.866152
      ESP Fit Center  393 is at   0.375756 -3.394629 -0.866152
      ESP Fit Center  394 is at  -1.051331 -3.253854 -1.332317
      ESP Fit Center  395 is at  -0.322407 -3.253854 -1.332317
      ESP Fit Center  396 is at   2.065474  1.893405  1.391137
      ESP Fit Center  397 is at   1.701011  2.524672  1.391137
      ESP Fit Center  398 is at   0.972087  2.524672  1.391137
      ESP Fit Center  399 is at   2.399174  2.665447  0.924972
      ESP Fit Center  400 is at   1.742436  3.142596  0.924972
      ESP Fit Center  401 is at   0.930662  3.142596  0.924972
      ESP Fit Center  402 is at   2.266970  3.241353  0.251344
      ESP Fit Center  403 is at   1.533974  3.519342  0.251344
      ESP Fit Center  404 is at   0.755749  3.424848  0.251344
      ESP Fit Center  405 is at   2.266970  3.241353 -0.496326
      ESP Fit Center  406 is at   1.533974  3.519342 -0.496326
      ESP Fit Center  407 is at   0.755749  3.424848 -0.496326
      ESP Fit Center  408 is at   2.399174  2.665447 -1.169954
      ESP Fit Center  409 is at   1.742436  3.142596 -1.169954
      ESP Fit Center  410 is at   0.930662  3.142596 -1.169954
      ESP Fit Center  411 is at   2.065474  1.893405 -1.636119
      ESP Fit Center  412 is at   1.701011  2.524672 -1.636119
      ESP Fit Center  413 is at   0.972087  2.524672 -1.636119
      ESP Fit Center  414 is at  -1.643487 -3.243188 -1.196408
      ESP Fit Center  415 is at  -0.936029 -1.895240 -1.944078
      ESP Fit Center  416 is at  -3.154708 -3.426683 -1.944078
      ESP Fit Center  417 is at  -2.376483 -3.521177 -1.944078
      ESP Fit Center  418 is at  -1.643487 -3.243188 -1.944078
      ESP Fit Center  419 is at  -1.123638 -2.656400 -1.944078
      ESP Fit Center  420 is at  -1.260431 -1.895240 -2.617706
      ESP Fit Center  421 is at  -1.511283 -1.123198 -2.617706
      ESP Fit Center  422 is at  -2.168021 -0.646049 -2.617706
      ESP Fit Center  423 is at  -2.979795 -0.646049 -2.617706
      ESP Fit Center  424 is at  -3.636533 -2.667282 -2.617706
      ESP Fit Center  425 is at  -2.979795 -3.144431 -2.617706
      ESP Fit Center  426 is at  -2.168021 -3.144431 -2.617706
      ESP Fit Center  427 is at  -1.511283 -2.667282 -2.617706
      ESP Fit Center  428 is at  -1.844983 -1.895240 -3.083871
      ESP Fit Center  429 is at  -2.209446 -1.263973 -3.083871
      ESP Fit Center  430 is at  -2.938370 -1.263973 -3.083871
      ESP Fit Center  431 is at  -3.302833 -1.895240 -3.083871
      ESP Fit Center  432 is at  -2.938370 -2.526507 -3.083871
      ESP Fit Center  433 is at  -2.209446 -2.526507 -3.083871
      ESP Fit Center  434 is at  -2.573908 -1.895240 -3.250243
      ESP Fit Center  435 is at  -4.817987 -1.752817  0.760589
      ESP Fit Center  436 is at  -4.453524 -2.384084  0.760589
      ESP Fit Center  437 is at  -5.151687 -0.980775  0.294424
      ESP Fit Center  438 is at  -5.402539 -1.752817  0.294424
      ESP Fit Center  439 is at  -5.151687 -2.524859  0.294424
      ESP Fit Center  440 is at  -4.494949 -3.002008  0.294424
      ESP Fit Center  441 is at  -5.315032 -0.666702 -0.379204
      ESP Fit Center  442 is at  -5.679347 -1.360847 -0.379204
      ESP Fit Center  443 is at  -5.679347 -2.144787 -0.379204
      ESP Fit Center  444 is at  -5.315032 -2.838932 -0.379204
      ESP Fit Center  445 is at  -4.669862 -3.284260 -0.379204
      ESP Fit Center  446 is at  -4.669862 -0.221374 -1.126874
      ESP Fit Center  447 is at  -5.315032 -0.666702 -1.126874
      ESP Fit Center  448 is at  -5.679347 -1.360847 -1.126874
      ESP Fit Center  449 is at  -5.679347 -2.144787 -1.126874
      ESP Fit Center  450 is at  -5.315032 -2.838932 -1.126874
      ESP Fit Center  451 is at  -4.669862 -3.284260 -1.126874
      ESP Fit Center  452 is at  -4.494949 -0.503626 -1.800502
      ESP Fit Center  453 is at  -5.151687 -0.980775 -1.800502
      ESP Fit Center  454 is at  -5.402539 -1.752817 -1.800502
      ESP Fit Center  455 is at  -5.151687 -2.524859 -1.800502
      ESP Fit Center  456 is at  -4.494949 -3.002008 -1.800502
      ESP Fit Center  457 is at  -4.453524 -1.121550 -2.266667
      ESP Fit Center  458 is at  -4.817987 -1.752817 -2.266667
      ESP Fit Center  459 is at  -4.453524 -2.384084 -2.266667
      ESP Fit Center  460 is at   1.143844 -1.504486  2.472044
      ESP Fit Center  461 is at   1.875698 -1.504486  2.356130
      ESP Fit Center  462 is at   1.509771 -0.870682  2.356130
      ESP Fit Center  463 is at   0.777917 -0.870682  2.356130
      ESP Fit Center  464 is at   0.777917 -2.138290  2.356130
      ESP Fit Center  465 is at   1.509771 -2.138290  2.356130
      ESP Fit Center  466 is at   2.535912 -1.504486  2.019734
      ESP Fit Center  467 is at   0.945732 -2.882385  2.019734
      ESP Fit Center  468 is at   1.722130 -2.770756  2.019734
      ESP Fit Center  469 is at   2.314927 -2.257095  2.019734
      ESP Fit Center  470 is at   1.143844 -3.420504 -1.288352
      ESP Fit Center  471 is at   2.535912 -1.504486 -1.812302
      ESP Fit Center  472 is at   0.945732 -2.882385 -1.812302
      ESP Fit Center  473 is at   1.722130 -2.770756 -1.812302
      ESP Fit Center  474 is at   2.314927 -2.257095 -1.812302
      ESP Fit Center  475 is at   1.875698 -1.504486 -2.148698
      ESP Fit Center  476 is at   0.777917 -0.870682 -2.148698
      ESP Fit Center  477 is at   0.777917 -2.138290 -2.148698
      ESP Fit Center  478 is at   1.509771 -2.138290 -2.148698
      ESP Fit Center  479 is at   1.143844 -1.504486 -2.264612
      ESP Fit Center  480 is at  -0.241325 -1.635398  2.476216
      ESP Fit Center  481 is at   0.124602 -1.001594  2.360302
      ESP Fit Center  482 is at  -0.607252 -1.001594  2.360302
      ESP Fit Center  483 is at  -0.973179 -1.635398  2.360302
      ESP Fit Center  484 is at  -0.607252 -2.269202  2.360302
      ESP Fit Center  485 is at   0.124602 -2.269202  2.360302
      ESP Fit Center  486 is at   0.336961 -0.369128  2.023906
      ESP Fit Center  487 is at  -1.577005 -2.027589  2.023906
      ESP Fit Center  488 is at  -1.152936 -2.687453  2.023906
      ESP Fit Center  489 is at  -0.439437 -3.013297  2.023906
      ESP Fit Center  490 is at   0.336961 -2.901668  2.023906
      ESP Fit Center  491 is at   0.491903 -3.405567  1.499956
      ESP Fit Center  492 is at   0.491903 -3.405567 -1.284180
      ESP Fit Center  493 is at  -0.439437 -3.013297 -1.808130
      ESP Fit Center  494 is at   0.336961 -2.901668 -1.808130
      ESP Fit Center  495 is at   0.124602 -1.001594 -2.144526
      ESP Fit Center  496 is at  -0.607252 -2.269202 -2.144526
      ESP Fit Center  497 is at   0.124602 -2.269202 -2.144526
      ESP Fit Center  498 is at  -0.241325 -1.635398 -2.260440
      ESP Fit Center  499 is at  -1.085933 -0.516514  2.414064
      ESP Fit Center  500 is at  -0.354079 -0.516514  2.298150
      ESP Fit Center  501 is at  -0.720006  0.117290  2.298150
      ESP Fit Center  502 is at  -1.451860  0.117290  2.298150
      ESP Fit Center  503 is at  -1.451860 -1.150318  2.298150
      ESP Fit Center  504 is at  -0.354079 -0.516514 -2.206678
      ESP Fit Center  505 is at  -1.451860  0.117290 -2.206678
      ESP Fit Center  506 is at  -0.720006 -1.150318 -2.206678
      ESP Fit Center  507 is at  -1.085933 -0.516514 -2.322592
      ESP Fit Center  508 is at  -0.502688  0.759637  2.335612
      ESP Fit Center  509 is at  -0.136761  1.393441  2.219698
      ESP Fit Center  510 is at  -1.234542  0.759637  2.219698
      ESP Fit Center  511 is at  -0.136761  0.125833  2.219698
      ESP Fit Center  512 is at  -0.868615  0.125833 -2.285130
      ESP Fit Center  513 is at  -0.136761  0.125833 -2.285130
      ESP Fit Center  514 is at  -0.502688  0.759637 -2.401044
      ESP Fit Center  515 is at   0.881355  0.914224  2.317713
      ESP Fit Center  516 is at   1.613209  0.914224  2.201799
      ESP Fit Center  517 is at   1.247282  1.548028  2.201799
      ESP Fit Center  518 is at   0.515428  1.548028  2.201799
      ESP Fit Center  519 is at   0.515428  0.280420  2.201799
      ESP Fit Center  520 is at   2.052438  1.666833  1.865403
      ESP Fit Center  521 is at   1.459641  2.180494  1.865403
      ESP Fit Center  522 is at   0.683243  2.292123  1.865403
      ESP Fit Center  523 is at   2.052438  1.666833 -1.966633
      ESP Fit Center  524 is at   0.683243  2.292123 -1.966633
      ESP Fit Center  525 is at   1.613209  0.914224 -2.303029
      ESP Fit Center  526 is at   1.247282  1.548028 -2.303029
      ESP Fit Center  527 is at   0.515428  1.548028 -2.303029
      ESP Fit Center  528 is at   0.515428  0.280420 -2.303029
      ESP Fit Center  529 is at   1.247282  0.280420 -2.303029
      ESP Fit Center  530 is at   0.881355  0.914224 -2.418943
      ESP Fit Center  531 is at   1.679300 -0.223199  2.391869
      ESP Fit Center  532 is at   2.411154 -0.223199  2.275955
      ESP Fit Center  533 is at   2.045227  0.410605  2.275955
      ESP Fit Center  534 is at   1.313373  0.410605  2.275955
      ESP Fit Center  535 is at   0.947446 -0.223199  2.275955
      ESP Fit Center  536 is at   2.045227 -0.857003  2.275955
      ESP Fit Center  537 is at   2.257586  1.043071  1.939559
      ESP Fit Center  538 is at   2.045227  0.410605 -2.228873
      ESP Fit Center  539 is at   0.947446 -0.223199 -2.228873
      ESP Fit Center  540 is at   1.313373 -0.857003 -2.228873
      ESP Fit Center  541 is at   2.045227 -0.857003 -2.228873
      ESP Fit Center  542 is at   1.679300 -0.223199 -2.344787
      ESP Fit Center  543 is at   3.145370 -0.057949  2.377359
      ESP Fit Center  544 is at   3.877224 -0.057949  2.261445
      ESP Fit Center  545 is at   3.511297  0.575855  2.261445
      ESP Fit Center  546 is at   2.779443  0.575855  2.261445
      ESP Fit Center  547 is at   2.779443 -0.691753  2.261445
      ESP Fit Center  548 is at   3.511297 -0.691753  2.261445
      ESP Fit Center  549 is at   4.537438 -0.057949  1.925049
      ESP Fit Center  550 is at   4.537438 -0.057949 -1.906987
      ESP Fit Center  551 is at   3.877224 -0.057949 -2.243383
      ESP Fit Center  552 is at   3.511297  0.575855 -2.243383
      ESP Fit Center  553 is at   2.779443  0.575855 -2.243383
      ESP Fit Center  554 is at   2.413516 -0.057949 -2.243383
      ESP Fit Center  555 is at   2.779443 -0.691753 -2.243383
      ESP Fit Center  556 is at   3.511297 -0.691753 -2.243383
      ESP Fit Center  557 is at   3.145370 -0.057949 -2.359297
      ESP Fit Center  558 is at   3.829820 -1.077825  2.277143
      ESP Fit Center  559 is at   4.585835 -1.077825  2.143837
      ESP Fit Center  560 is at   4.207828 -0.423097  2.143837
      ESP Fit Center  561 is at   3.451813 -1.732553  2.143837
      ESP Fit Center  562 is at   4.207828 -1.732553  2.143837
      ESP Fit Center  563 is at   5.250663 -1.077825  1.759998
      ESP Fit Center  564 is at   5.060306 -0.367403  1.759998
      ESP Fit Center  565 is at   3.119399 -2.308311  1.759998
      ESP Fit Center  566 is at   3.829820 -2.498668  1.759998
      ESP Fit Center  567 is at   4.540242 -2.308311  1.759998
      ESP Fit Center  568 is at   5.060306 -1.788246  1.759998
      ESP Fit Center  569 is at   5.744117 -1.077825  1.171923
      ESP Fit Center  570 is at   5.598400 -0.345255  1.171923
      ESP Fit Center  571 is at   3.829820 -2.992122  1.171923
      ESP Fit Center  572 is at   4.562390 -2.846405  1.171923
      ESP Fit Center  573 is at   5.183432 -2.431437  1.171923
      ESP Fit Center  574 is at   5.598400 -1.810395  1.171923
      ESP Fit Center  575 is at   6.006678 -1.077825  0.450542
      ESP Fit Center  576 is at   5.875398 -0.333296  0.450542
      ESP Fit Center  577 is at   4.207828 -3.221612  0.450542
      ESP Fit Center  578 is at   4.918249 -2.963039  0.450542
      ESP Fit Center  579 is at   5.497390 -2.477082  0.450542
      ESP Fit Center  580 is at   5.875398 -1.822354  0.450542
      ESP Fit Center  581 is at   6.006678 -1.077825 -0.317136
      ESP Fit Center  582 is at   5.875398 -0.333296 -0.317136
      ESP Fit Center  583 is at   3.451813 -3.221612 -0.317136
      ESP Fit Center  584 is at   4.207828 -3.221612 -0.317136
      ESP Fit Center  585 is at   4.918249 -2.963039 -0.317136
      ESP Fit Center  586 is at   5.497390 -2.477082 -0.317136
      ESP Fit Center  587 is at   5.875398 -1.822354 -0.317136
      ESP Fit Center  588 is at   5.744117 -1.077825 -1.038517
      ESP Fit Center  589 is at   5.598400 -0.345255 -1.038517
      ESP Fit Center  590 is at   3.829820 -2.992122 -1.038517
      ESP Fit Center  591 is at   4.562390 -2.846405 -1.038517
      ESP Fit Center  592 is at   5.183432 -2.431437 -1.038517
      ESP Fit Center  593 is at   5.598400 -1.810395 -1.038517
      ESP Fit Center  594 is at   5.250663 -1.077825 -1.626592
      ESP Fit Center  595 is at   5.060306 -0.367403 -1.626592
      ESP Fit Center  596 is at   3.119399 -2.308311 -1.626592
      ESP Fit Center  597 is at   3.829820 -2.498668 -1.626592
      ESP Fit Center  598 is at   4.540242 -2.308311 -1.626592
      ESP Fit Center  599 is at   5.060306 -1.788246 -1.626592
      ESP Fit Center  600 is at   4.585835 -1.077825 -2.010431
      ESP Fit Center  601 is at   3.451813 -1.732553 -2.010431
      ESP Fit Center  602 is at   4.207828 -1.732553 -2.010431
      ESP Fit Center  603 is at   3.829820 -1.077825 -2.143737
      ESP Fit Center  604 is at   3.589029  1.086141  2.149058
      ESP Fit Center  605 is at   4.345044  1.086141  2.015752
      ESP Fit Center  606 is at   3.967037  1.740869  2.015752
      ESP Fit Center  607 is at   3.211022  1.740869  2.015752
      ESP Fit Center  608 is at   5.009872  1.086141  1.631913
      ESP Fit Center  609 is at   4.819515  1.796563  1.631913
      ESP Fit Center  610 is at   4.299451  2.316627  1.631913
      ESP Fit Center  611 is at   3.589029  2.506984  1.631913
      ESP Fit Center  612 is at   2.878607  2.316627  1.631913
      ESP Fit Center  613 is at   2.358543  1.796563  1.631913
      ESP Fit Center  614 is at   4.819515  0.375720  1.631913
      ESP Fit Center  615 is at   5.503326  1.086141  1.043838
      ESP Fit Center  616 is at   5.357609  1.818711  1.043838
      ESP Fit Center  617 is at   4.942641  2.439753  1.043838
      ESP Fit Center  618 is at   4.321599  2.854721  1.043838
      ESP Fit Center  619 is at   3.589029  3.000438  1.043838
      ESP Fit Center  620 is at   2.856459  2.854721  1.043838
      ESP Fit Center  621 is at   5.357609  0.353571  1.043838
      ESP Fit Center  622 is at   5.765887  1.086141  0.322457
      ESP Fit Center  623 is at   5.634607  1.830670  0.322457
      ESP Fit Center  624 is at   5.256599  2.485399  0.322457
      ESP Fit Center  625 is at   4.677458  2.971356  0.322457
      ESP Fit Center  626 is at   3.967037  3.229928  0.322457
      ESP Fit Center  627 is at   3.211022  3.229928  0.322457
      ESP Fit Center  628 is at   5.634607  0.341612  0.322457
      ESP Fit Center  629 is at   5.765887  1.086141 -0.445221
      ESP Fit Center  630 is at   5.634607  1.830670 -0.445221
      ESP Fit Center  631 is at   5.256599  2.485399 -0.445221
      ESP Fit Center  632 is at   4.677458  2.971356 -0.445221
      ESP Fit Center  633 is at   3.967037  3.229928 -0.445221
      ESP Fit Center  634 is at   3.211022  3.229928 -0.445221
      ESP Fit Center  635 is at   5.634607  0.341612 -0.445221
      ESP Fit Center  636 is at   5.503326  1.086141 -1.166602
      ESP Fit Center  637 is at   5.357609  1.818711 -1.166602
      ESP Fit Center  638 is at   4.942641  2.439753 -1.166602
      ESP Fit Center  639 is at   4.321599  2.854721 -1.166602
      ESP Fit Center  640 is at   3.589029  3.000438 -1.166602
      ESP Fit Center  641 is at   2.856459  2.854721 -1.166602
      ESP Fit Center  642 is at   5.357609  0.353571 -1.166602
      ESP Fit Center  643 is at   5.009872  1.086141 -1.754677
      ESP Fit Center  644 is at   4.819515  1.796563 -1.754677
      ESP Fit Center  645 is at   4.299451  2.316627 -1.754677
      ESP Fit Center  646 is at   3.589029  2.506984 -1.754677
      ESP Fit Center  647 is at   2.878607  2.316627 -1.754677
      ESP Fit Center  648 is at   2.358543  1.796563 -1.754677
      ESP Fit Center  649 is at   4.819515  0.375720 -1.754677
      ESP Fit Center  650 is at   4.345044  1.086141 -2.138516
      ESP Fit Center  651 is at   3.967037  1.740869 -2.138516
      ESP Fit Center  652 is at   3.211022  1.740869 -2.138516
      ESP Fit Center  653 is at   2.833014  1.086141 -2.138516
      ESP Fit Center  654 is at   3.589029  1.086141 -2.271822
      ESP Fit Center  655 is at  -1.483437  2.201070  2.520883
      ESP Fit Center  656 is at  -0.727237  2.201070  2.412158
      ESP Fit Center  657 is at  -1.105337  2.855958  2.412158
      ESP Fit Center  658 is at  -1.861537  2.855958  2.412158
      ESP Fit Center  659 is at  -2.239637  2.201070  2.412158
      ESP Fit Center  660 is at  -1.861537  1.546182  2.412158
      ESP Fit Center  661 is at  -1.105337  1.546182  2.412158
      ESP Fit Center  662 is at  -0.032300  2.201070  2.094791
      ESP Fit Center  663 is at  -0.226716  2.926638  2.094791
      ESP Fit Center  664 is at  -0.757869  3.457791  2.094791
      ESP Fit Center  665 is at  -1.483437  3.652207  2.094791
      ESP Fit Center  666 is at  -2.209005  3.457791  2.094791
      ESP Fit Center  667 is at  -2.740158  2.926638  2.094791
      ESP Fit Center  668 is at  -2.934574  2.201070  2.094791
      ESP Fit Center  669 is at   0.408094  2.933853  1.594493
      ESP Fit Center  670 is at   0.015651  3.567669  1.594493
      ESP Fit Center  671 is at  -0.579252  4.016919  1.594493
      ESP Fit Center  672 is at  -1.296270  4.220928  1.594493
      ESP Fit Center  673 is at  -2.038565  4.152144  1.594493
      ESP Fit Center  674 is at  -2.705888  3.819857  1.594493
      ESP Fit Center  675 is at  -3.208112  3.268944  1.594493
      ESP Fit Center  676 is at  -3.477409  2.573808  1.594493
      ESP Fit Center  677 is at   0.491817  3.636176  0.951796
      ESP Fit Center  678 is at  -0.048331  4.176324  0.951796
      ESP Fit Center  679 is at  -0.728957  4.523120  0.951796
      ESP Fit Center  680 is at  -1.483437  4.642618  0.951796
      ESP Fit Center  681 is at  -2.237917  4.523120  0.951796
      ESP Fit Center  682 is at  -2.918543  4.176324  0.951796
      ESP Fit Center  683 is at  -3.458691  3.636176  0.951796
      ESP Fit Center  684 is at  -3.805487  2.955550  0.951796
      ESP Fit Center  685 is at  -3.924985  2.201070  0.951796
      ESP Fit Center  686 is at   0.256387  4.208934  0.218766
      ESP Fit Center  687 is at  -0.379769  4.617767  0.218766
      ESP Fit Center  688 is at  -1.105337  4.830813  0.218766
      ESP Fit Center  689 is at  -1.861537  4.830813  0.218766
      ESP Fit Center  690 is at  -2.587105  4.617767  0.218766
      ESP Fit Center  691 is at  -3.223261  4.208934  0.218766
      ESP Fit Center  692 is at  -3.718467  3.637436  0.218766
      ESP Fit Center  693 is at  -4.032603  2.949573  0.218766
      ESP Fit Center  694 is at  -4.140222  2.201070  0.218766
      ESP Fit Center  695 is at   0.256387  4.208934 -0.545210
      ESP Fit Center  696 is at  -0.379769  4.617767 -0.545210
      ESP Fit Center  697 is at  -1.105337  4.830813 -0.545210
      ESP Fit Center  698 is at  -1.861537  4.830813 -0.545210
      ESP Fit Center  699 is at  -2.587105  4.617767 -0.545210
      ESP Fit Center  700 is at  -3.223261  4.208934 -0.545210
      ESP Fit Center  701 is at  -3.718467  3.637436 -0.545210
      ESP Fit Center  702 is at  -4.032603  2.949573 -0.545210
      ESP Fit Center  703 is at  -4.140222  2.201070 -0.545210
      ESP Fit Center  704 is at  -4.032603  1.452567 -0.545210
      ESP Fit Center  705 is at   0.491817  3.636176 -1.278240
      ESP Fit Center  706 is at  -0.048331  4.176324 -1.278240
      ESP Fit Center  707 is at  -0.728957  4.523120 -1.278240
      ESP Fit Center  708 is at  -1.483437  4.642618 -1.278240
      ESP Fit Center  709 is at  -2.237917  4.523120 -1.278240
      ESP Fit Center  710 is at  -2.918543  4.176324 -1.278240
      ESP Fit Center  711 is at  -3.458691  3.636176 -1.278240
      ESP Fit Center  712 is at  -3.805487  2.955550 -1.278240
      ESP Fit Center  713 is at  -3.924985  2.201070 -1.278240
      ESP Fit Center  714 is at  -3.805487  1.446590 -1.278240
      ESP Fit Center  715 is at   0.408094  2.933853 -1.920937
      ESP Fit Center  716 is at   0.015651  3.567669 -1.920937
      ESP Fit Center  717 is at  -0.579252  4.016919 -1.920937
      ESP Fit Center  718 is at  -1.296270  4.220928 -1.920937
      ESP Fit Center  719 is at  -2.038565  4.152144 -1.920937
      ESP Fit Center  720 is at  -2.705888  3.819857 -1.920937
      ESP Fit Center  721 is at  -3.208112  3.268944 -1.920937
      ESP Fit Center  722 is at  -3.477409  2.573808 -1.920937
      ESP Fit Center  723 is at  -3.477409  1.828332 -1.920937
      ESP Fit Center  724 is at  -3.208112  1.133196 -1.920937
      ESP Fit Center  725 is at  -2.705888  0.582283 -1.920937
      ESP Fit Center  726 is at  -0.032300  2.201070 -2.421235
      ESP Fit Center  727 is at  -0.226716  2.926638 -2.421235
      ESP Fit Center  728 is at  -0.757869  3.457791 -2.421235
      ESP Fit Center  729 is at  -1.483437  3.652207 -2.421235
      ESP Fit Center  730 is at  -2.209005  3.457791 -2.421235
      ESP Fit Center  731 is at  -2.740158  2.926638 -2.421235
      ESP Fit Center  732 is at  -2.934574  2.201070 -2.421235
      ESP Fit Center  733 is at  -2.740158  1.475502 -2.421235
      ESP Fit Center  734 is at  -2.209005  0.944349 -2.421235
      ESP Fit Center  735 is at  -1.483437  0.749933 -2.421235
      ESP Fit Center  736 is at  -0.757869  0.944349 -2.421235
      ESP Fit Center  737 is at  -0.226716  1.475502 -2.421235
      ESP Fit Center  738 is at  -0.727237  2.201070 -2.738602
      ESP Fit Center  739 is at  -1.105337  2.855958 -2.738602
      ESP Fit Center  740 is at  -1.861537  2.855958 -2.738602
      ESP Fit Center  741 is at  -2.239637  2.201070 -2.738602
      ESP Fit Center  742 is at  -1.861537  1.546182 -2.738602
      ESP Fit Center  743 is at  -1.105337  1.546182 -2.738602
[...]
 2096 Fit       0.010561
 2097 Fit       0.016605
 2098 Fit       0.020812
 2099 Fit       0.023330
 2100 Fit       0.024345
 2101 Fit       0.024027
 2102 Fit       0.013728
 2103 Fit       0.018764
 2104 Fit       0.022820
 2105 Fit       0.025618
 2106 Fit       0.027177
 2107 Fit       0.027662
 2108 Fit       0.027382
 2109 Fit       0.019667
 2110 Fit       0.023633
 2111 Fit       0.026837
 2112 Fit       0.028997
 2113 Fit       0.030276
 2114 Fit       0.027224
 2115 Fit       0.030298
 2116 Fit       0.032874
 2117 Fit       0.005120
 2118 Fit       0.005510
 2119 Fit       0.004932
 2120 Fit       0.003637
 2121 Fit       0.006617
 2122 Fit       0.006669
 2123 Fit       0.004873
 2124 Fit       0.002343
 2125 Fit       0.009840
 2126 Fit       0.008301
 2127 Fit       0.005853
 2128 Fit       0.013084
 2129 Fit       0.010711
 2130 Fit       0.006790
 2131 Fit       0.016992
 2132 Fit       0.021301
 2133 Fit       0.019443
 2134 Fit       0.015313
 2135 Fit       0.010661
 2136 Fit       0.011338
 2137 Fit       0.018931
 2138 Fit       0.015003
 2139 Fit       0.011816
 2140 Fit       0.014009
 2141 Fit       0.017766
 2142 Fit       0.021035
 2143 Fit       0.019669
 2144 Fit       0.015842
 2145 Fit       0.016838
 2146 Fit       0.002584
 2147 Fit       0.004701
 2148 Fit       0.001820
 2149 Fit      -0.001435
 2150 Fit       0.000053
 2151 Fit       0.004647
 2152 Fit       0.006171
 2153 Fit       0.003273
 2154 Fit       0.007745
 2155 Fit       0.009750
 2156 Fit       0.009820
 2157 Fit       0.005542
 2158 Fit       0.010466
 2159 Fit       0.013165
 2160 Fit       0.014133
 2161 Fit       0.018499
 2162 Fit       0.022698
 2163 Fit       0.026479
 2164 Fit       0.027571
 2165 Fit       0.024878
 2166 Fit       0.033666
 2167 Fit       0.027416
 2168 Fit       0.029014
 2169 Fit       0.023330
 2170 Fit       0.022087
 2171 Fit       0.024948
 2172 Fit       0.027141
 2173 Fit      -0.007895
 2174 Fit      -0.002109
 2175 Fit      -0.007041
 2176 Fit      -0.006985
 2177 Fit       0.022980
 2178 Fit       0.028033
 2179 Fit      -0.006489
 2180 Fit      -0.001442
 2181 Fit      -0.002347
 2182 Fit       0.019626
 2183 Fit       0.020180
 2184 Fit       0.017409
 2185 Fit       0.000976
 2186 Fit       0.002934
 2187 Fit       0.000998
 2188 Fit      -0.001036
 2189 Fit       0.001093
 2190 Fit       0.001699
 2191 Fit       0.000885
 2192 Fit      -0.000233
 2193 Fit      -0.000577
 2194 Fit       0.000760
 2195 Fit       0.000537
 2196 Fit       0.003246
 2197 Fit       0.005793
 2198 Fit       0.008740
 2199 Fit       0.006648
 2200 Fit       0.007037
 2201 Fit       0.007416
 2202 Fit       0.010209
 2203 Fit       0.008991
 2204 Fit       0.009709
 2205 Fit       0.012614
 2206 Fit       0.014580
 2207 Fit       0.012935
 2208 Fit       0.011408
 2209 Fit       0.004421
 2210 Fit       0.004849
 2211 Fit       0.004108
 2212 Fit       0.003234
 2213 Fit       0.003341
 2214 Fit       0.005475
 2215 Fit       0.012113
 2216 Fit       0.011103
 2217 Fit       0.010952
 2218 Fit       0.015295
 2219 Fit       0.015349
 2220 Fit       0.012946
 2221 Fit       0.013064
 2222 Fit       0.001353
 2223 Fit      -0.003131
 2224 Fit      -0.001725
 2225 Fit       0.002181
 2226 Fit       0.004684
 2227 Fit       0.003658
 2228 Fit      -0.000725
 2229 Fit      -0.008405
 2230 Fit      -0.007934
 2231 Fit      -0.002169
 2232 Fit       0.002345
 2233 Fit      -0.012252
 2234 Fit      -0.005970
 2235 Fit       0.006676
 2236 Fit       0.006151
 2237 Fit      -0.004067
 2238 Fit       0.000105
 2239 Fit       0.001162
 2240 Fit       0.006481
 2241 Fit       0.010465
 2242 Fit       0.009067
 2243 Fit       0.003639
 2244 Fit       0.005679
 2245 Fit      -0.003711
 2246 Fit      -0.008713
 2247 Fit      -0.001661
 2248 Fit      -0.006594
 2249 Fit      -0.012974
 2250 Fit      -0.012334
 2251 Fit       0.001180
 2252 Fit      -0.004037
 2253 Fit      -0.008545
 2254 Fit      -0.011602
 2255 Fit      -0.016456
 2256 Fit      -0.016905
 2257 Fit       0.001608
 2258 Fit      -0.004399
 2259 Fit      -0.009076
 2260 Fit      -0.012529
 2261 Fit      -0.014982
 2262 Fit      -0.019129
 2263 Fit      -0.020303
 2264 Fit      -0.021323
 2265 Fit      -0.003025
 2266 Fit      -0.008280
 2267 Fit      -0.012134
 2268 Fit      -0.015114
 2269 Fit      -0.017432
 2270 Fit      -0.020945
 2271 Fit      -0.022596
 2272 Fit      -0.024632
 2273 Fit       0.000278
 2274 Fit      -0.006122
 2275 Fit      -0.010572
 2276 Fit      -0.013973
 2277 Fit      -0.016754
 2278 Fit      -0.019061
 2279 Fit      -0.021842
 2280 Fit      -0.023817
 2281 Fit      -0.000649
 2282 Fit      -0.006863
 2283 Fit      -0.011193
 2284 Fit      -0.014562
 2285 Fit      -0.017380
 2286 Fit      -0.019784
 2287 Fit      -0.021760
 2288 Fit      -0.023828
 2289 Fit      -0.000477
 2290 Fit      -0.006650
 2291 Fit      -0.010991
 2292 Fit      -0.014383
 2293 Fit      -0.017227
 2294 Fit      -0.019658
 2295 Fit      -0.020657
 2296 Fit      -0.022563
 2297 Fit       0.000846
 2298 Fit      -0.005437
 2299 Fit      -0.009926
 2300 Fit      -0.013401
 2301 Fit      -0.016259
 2302 Fit      -0.018649
 2303 Fit      -0.018514
 2304 Fit      -0.020068
 2305 Fit       0.005466
 2306 Fit      -0.001719
 2307 Fit      -0.007045
 2308 Fit      -0.011042
 2309 Fit      -0.014165
 2310 Fit      -0.016625
 2311 Fit      -0.015328
 2312 Fit      -0.016196
 2313 Fit       0.004040
 2314 Fit      -0.002266
 2315 Fit      -0.007233
 2316 Fit      -0.010943
 2317 Fit      -0.013614
 2318 Fit      -0.011105
 2319 Fit      -0.010775
 2320 Fit       0.005160
 2321 Fit      -0.000936
 2322 Fit      -0.006011
 2323 Fit      -0.009449
 2324 Fit      -0.005857
 2325 Fit       0.002712
 2326 Fit      -0.003268
 2327 Fit      -0.009065
 2328 Fit      -0.008630
 2329 Fit      -0.004406
 2330 Fit      -0.013695
 2331 Fit      -0.013589
 2332 Fit      -0.011918
 2333 Fit      -0.008819
 2334 Fit      -0.004399
 2335 Fit      -0.017739
 2336 Fit      -0.017160
 2337 Fit      -0.015834
 2338 Fit      -0.013738
 2339 Fit      -0.010786
 2340 Fit      -0.006733
 2341 Fit      -0.001569
 2342 Fit      -0.020956
 2343 Fit      -0.019880
 2344 Fit      -0.018476
 2345 Fit      -0.016615
 2346 Fit      -0.014246
 2347 Fit      -0.011154
 2348 Fit      -0.006863
 2349 Fit      -0.022227
 2350 Fit      -0.023132
 2351 Fit      -0.021710
 2352 Fit      -0.020186
 2353 Fit      -0.018361
 2354 Fit      -0.016192
 2355 Fit      -0.013554
 2356 Fit      -0.010060
 2357 Fit      -0.004906
 2358 Fit      -0.025164
 2359 Fit      -0.024106
 2360 Fit      -0.022505
 2361 Fit      -0.020870
 2362 Fit      -0.018972
 2363 Fit      -0.016771
 2364 Fit      -0.014157
 2365 Fit      -0.010750
 2366 Fit      -0.005663
 2367 Fit      -0.026482
 2368 Fit      -0.023814
 2369 Fit      -0.022283
 2370 Fit      -0.020666
 2371 Fit      -0.018761
 2372 Fit      -0.016537
 2373 Fit      -0.013880
 2374 Fit      -0.010396
 2375 Fit      -0.005154
 2376 Fit      -0.025992
 2377 Fit      -0.022301
 2378 Fit      -0.021064
 2379 Fit      -0.019585
 2380 Fit      -0.017733
 2381 Fit      -0.015488
 2382 Fit      -0.012711
 2383 Fit      -0.008967
 2384 Fit      -0.003319
 2385 Fit      -0.023814
 2386 Fit      -0.019701
 2387 Fit      -0.018870
 2388 Fit      -0.017502
 2389 Fit      -0.015564
 2390 Fit      -0.013019
 2391 Fit      -0.009611
 2392 Fit      -0.004740
 2393 Fit      -0.020266
 2394 Fit      -0.016197
 2395 Fit      -0.015844
 2396 Fit      -0.014494
 2397 Fit      -0.012208
 2398 Fit      -0.008884
 2399 Fit      -0.004187
 2400 Fit      -0.015505
 2401 Fit      -0.011971
 2402 Fit      -0.011986
 2403 Fit      -0.010136
 2404 Fit      -0.006598
 2405 Fit      -0.001485
 2406 Fit      -0.009684
 2407 Fit      -0.007172
 2408 Fit      -0.006618
 2409 Fit      -0.001869
 2410 Fit      -0.001926
 2411 Fit      -0.013921
 2412 Fit      -0.009228
 2413 Fit      -0.010731
 2414 Fit      -0.014226
 2415 Fit      -0.018939
 2416 Fit      -0.019058
 2417 Fit      -0.012249
 2418 Fit      -0.004858
 2419 Fit      -0.006407
 2420 Fit      -0.008517
 2421 Fit      -0.010686
 2422 Fit      -0.013445
 2423 Fit      -0.017701
 2424 Fit      -0.023901
 2425 Fit      -0.005228
 2426 Fit      -0.002541
 2427 Fit      -0.004838
 2428 Fit      -0.006801
 2429 Fit      -0.008340
 2430 Fit      -0.009829
 2431 Fit      -0.011861
 2432 Fit      -0.015065
 2433 Fit      -0.020123
 2434 Fit      -0.027922
 2435 Fit      -0.001362
 2436 Fit      -0.003848
 2437 Fit      -0.005588
 2438 Fit      -0.006712
 2439 Fit      -0.007591
 2440 Fit      -0.008688
 2441 Fit      -0.010455
 2442 Fit      -0.013320
 2443 Fit      -0.017797
 2444 Fit      -0.024798
 2445 Fit      -0.001227
 2446 Fit      -0.003540
 2447 Fit      -0.004827
 2448 Fit      -0.005476
 2449 Fit      -0.005938
 2450 Fit      -0.006653
 2451 Fit      -0.008009
 2452 Fit      -0.010332
 2453 Fit      -0.013971
 2454 Fit      -0.019545
 2455 Fit       0.001812
 2456 Fit      -0.001431
 2457 Fit      -0.003161
 2458 Fit      -0.003914
 2459 Fit      -0.004148
 2460 Fit      -0.004282
 2461 Fit      -0.004688
 2462 Fit      -0.005663
 2463 Fit      -0.007429
 2464 Fit      -0.010170
 2465 Fit      -0.014159
 2466 Fit      -0.020048
 2467 Fit      -0.000063
 2468 Fit      -0.002051
 2469 Fit      -0.002839
 2470 Fit      -0.002960
 2471 Fit      -0.002855
 2472 Fit      -0.002903
 2473 Fit      -0.003397
 2474 Fit      -0.004538
 2475 Fit      -0.006432
 2476 Fit      -0.009141
 2477 Fit      -0.012790
 2478 Fit      -0.017800
 2479 Fit       0.000525
 2480 Fit      -0.001386
 2481 Fit      -0.002083
 2482 Fit      -0.002097
 2483 Fit      -0.001863
 2484 Fit      -0.001750
 2485 Fit      -0.002033
 2486 Fit      -0.002873
 2487 Fit      -0.004310
 2488 Fit      -0.006273
 2489 Fit      -0.008617
 2490 Fit      -0.011137
 2491 Fit       0.003459
 2492 Fit       0.000404
 2493 Fit      -0.001099
 2494 Fit      -0.001573
 2495 Fit      -0.001471
 2496 Fit      -0.001193
 2497 Fit      -0.001071
 2498 Fit      -0.001328
 2499 Fit      -0.002047
 2500 Fit      -0.003153
 2501 Fit      -0.004404
 2502 Fit      -0.005372
 2503 Fit      -0.005323
 2504 Fit       0.005155
 2505 Fit       0.001808
 2506 Fit      -0.000197
 2507 Fit      -0.001061
 2508 Fit      -0.001168
 2509 Fit      -0.000939
 2510 Fit      -0.000746
 2511 Fit      -0.000834
 2512 Fit      -0.001256
 2513 Fit      -0.001839
 2514 Fit      -0.002154
 2515 Fit      -0.001486
 2516 Fit       0.001211
 2517 Fit       0.006160
 2518 Fit       0.003166
 2519 Fit       0.000900
 2520 Fit      -0.000380
 2521 Fit      -0.000822
 2522 Fit      -0.000769
 2523 Fit      -0.000587
 2524 Fit      -0.000517
 2525 Fit      -0.000575
 2526 Fit      -0.000493
 2527 Fit       0.000290
 2528 Fit       0.002568
 2529 Fit       0.007088
 2530 Fit       0.007171
 2531 Fit       0.004265
 2532 Fit       0.001842
 2533 Fit       0.000315
 2534 Fit      -0.000305
 2535 Fit      -0.000341
 2536 Fit      -0.000148
 2537 Fit       0.000176
 2538 Fit       0.000945
 2539 Fit       0.002857
 2540 Fit       0.006664
 2541 Fit       0.012550
 2542 Fit       0.023812
 2543 Fit       0.005989
 2544 Fit       0.003102
 2545 Fit       0.001217
 2546 Fit       0.000524
 2547 Fit       0.000694
 2548 Fit       0.001613
 2549 Fit       0.003858
 2550 Fit       0.008008
 2551 Fit       0.012872
 2552 Fit       0.014824
 2553 Fit       0.012698
 2554 Fit       0.009306
 2555 Fit       0.005302
 2556 Fit       0.002658
 2557 Fit       0.002299
 2558 Fit       0.004451
 2559 Fit       0.008127
 2560 Fit       0.008404
 2561 Fit       0.004861
 2562 Fit      -0.003276
 2563 Fit      -0.004296
 2564 Fit       0.001694
 2565 Fit      -0.003191
 2566 Fit       0.002102
 2567 Fit       0.008148
 2568 Fit      -0.001990
 2569 Fit      -0.022621
 2570 Fit      -0.020486
 2571 Fit      -0.023761
 2572 Fit      -0.025122
 2573 Fit      -0.023741
 2574 Fit      -0.020913
 2575 Fit      -0.019035
 2576 Fit      -0.017097
 2577 Fit      -0.020804
 2578 Fit      -0.024348
 2579 Fit      -0.026369
 2580 Fit      -0.026697
 2581 Fit      -0.025818
 2582 Fit      -0.024020
 2583 Fit      -0.021499
 2584 Fit      -0.018597
 2585 Fit      -0.015840
 2586 Fit      -0.014140
 2587 Fit      -0.014564
 2588 Fit      -0.012270
 2589 Fit      -0.016337
 2590 Fit      -0.027150
 2591 Fit      -0.027637
 2592 Fit      -0.027218
 2593 Fit      -0.026181
 2594 Fit      -0.024551
 2595 Fit      -0.022313
 2596 Fit      -0.019578
 2597 Fit      -0.016573
 2598 Fit      -0.013451
 2599 Fit      -0.010327
 2600 Fit      -0.007876
 2601 Fit      -0.007369
 2602 Fit      -0.009129
 2603 Fit      -0.027878
 2604 Fit      -0.027351
 2605 Fit      -0.026466
 2606 Fit      -0.025143
 2607 Fit      -0.023267
 2608 Fit      -0.020779
 2609 Fit      -0.017790
 2610 Fit      -0.014603
 2611 Fit      -0.011484
 2612 Fit      -0.008280
 2613 Fit      -0.004524
 2614 Fit      -0.026399
 2615 Fit      -0.025478
 2616 Fit      -0.024142
 2617 Fit      -0.022217
 2618 Fit      -0.019564
 2619 Fit      -0.016189
 2620 Fit      -0.012391
 2621 Fit      -0.008786
 2622 Fit      -0.005926
 2623 Fit      -0.023903
 2624 Fit      -0.022575
 2625 Fit      -0.020524
 2626 Fit      -0.017503
 2627 Fit      -0.013334
 2628 Fit      -0.008141
 2629 Fit      -0.002728
 2630 Fit      -0.020997
 2631 Fit      -0.019374
 2632 Fit      -0.016687
 2633 Fit      -0.012528
 2634 Fit      -0.006433
 2635 Fit      -0.016410
 2636 Fit      -0.013733
 2637 Fit      -0.009238
 2638 Fit      -0.001966
 2639 Fit      -0.010697
 2640 Fit      -0.006441
 2641 Fit      -0.002142
 2642 Fit       0.001293
 2643 Fit       0.003722
 2644 Fit       0.007456
 2645 Fit       0.004969
 2646 Fit       0.006416
 2647 Fit       0.006581
 2648 Fit       0.007441
 2649 Fit       0.010501
 2650 Fit       0.011648
 2651 Fit       0.010439
 2652 Fit       0.010568
 2653 Fit       0.012983
 2654 Fit       0.014762
 2655 Fit       0.013607
 2656 Fit       0.014312
 2657 Fit       0.017588
 2658 Fit       0.020226
 2659 Fit       0.017971
 2660 Fit       0.017087
 2661 Fit       0.018035
 2662 Fit       0.021232
 2663 Fit       0.004018
 2664 Fit       0.022136
 2665 Fit       0.020945
 2666 Fit       0.021361
 2667 Fit       0.023612
 2668 Fit       0.027711
 2669 Fit       0.006028
 2670 Fit       0.008915
 2671 Fit       0.013690
 2672 Fit       0.026273
 2673 Fit       0.024966
 2674 Fit       0.024883
 2675 Fit       0.026343
 2676 Fit       0.029285
 2677 Fit       0.011373
 2678 Fit       0.012160
 2679 Fit       0.015182
 2680 Fit       0.019752
 2681 Fit       0.028492
 2682 Fit       0.028033
 2683 Fit       0.028528
 2684 Fit       0.022794
 2685 Fit       0.018566
 2686 Fit       0.016723
 2687 Fit       0.017549
 2688 Fit       0.020516
 2689 Fit       0.024316
 2690 Fit       0.027378
 2691 Fit       0.029026
 2692 Fit       0.029940
 2693 Fit       0.031326
 2694 Fit       0.022970
 2695 Fit       0.021891
 2696 Fit       0.023702
 2697 Fit       0.026789
 2698 Fit       0.029525
 2699 Fit       0.026992
 2700 Fit       0.028871
 2701 Fit       0.010783
 2702 Fit       0.005447
 2703 Fit       0.016145
 2704 Fit       0.011957
 2705 Fit       0.006336
 2706 Fit       0.022081
 2707 Fit       0.018052
 2708 Fit       0.013920
 2709 Fit       0.008720
 2710 Fit       0.022757
 2711 Fit       0.018300
 2712 Fit       0.013703
 2713 Fit       0.007788
 2714 Fit       0.023612
 2715 Fit       0.018919
 2716 Fit       0.014146
 2717 Fit       0.008069
 2718 Fit       0.024880
 2719 Fit       0.020075
 2720 Fit       0.015389
 2721 Fit       0.009723
 2722 Fit       0.019535
 2723 Fit       0.014376
 2724 Fit       0.007968
 2725 Fit       0.014432
 2726 Fit       0.008153
 2727 Fit       0.012930
 2728 Fit       0.015427
 2729 Fit       0.013951
 2730 Fit       0.016693
 2731 Fit       0.018416
 2732 Fit       0.019685
 2733 Fit       0.016847
 2734 Fit       0.019142
 2735 Fit       0.020591
 2736 Fit       0.021855
 2737 Fit       0.023761
 2738 Fit       0.019636
 2739 Fit       0.021532
 2740 Fit       0.022719
 2741 Fit       0.024052
 2742 Fit       0.022023
 2743 Fit       0.023493
 2744 Fit       0.024310
 2745 Fit       0.025374
 2746 Fit       0.025777
 2747 Fit       0.025857
 2748 Fit       0.026170
 2749 Fit       0.029737
 2750 Fit       0.028027
 2751 Fit       0.027293
 2752 Fit       0.032154
 2753 Fit       0.000932
 2754 Fit       0.000510
 2755 Fit       0.001942
 2756 Fit      -0.003066
 2757 Fit       0.001197
 2758 Fit       0.002399
 2759 Fit       0.000962
 2760 Fit       0.002964
 2761 Fit       0.001507
 2762 Fit       0.003548
 2763 Fit      -0.001424
 2764 Fit       0.002829
 2765 Fit       0.004188
 2766 Fit       0.003147
 2767 Fit       0.004874
 2768 Fit       0.004517
 2769 Fit       0.031219
 2770 Fit       0.030288
 2771 Fit       0.031611
 2772 Fit       0.033055
 2773 Fit       0.033602
 2774 Fit       0.031520
 2775 Fit       0.030059
 2776 Fit       0.028314
 2777 Fit       0.025910
 2778 Fit       0.031491
 2779 Fit       0.031714
 2780 Fit       0.032481
 2781 Fit       0.033042
 2782 Fit       0.032710
 2783 Fit       0.031658
 2784 Fit       0.029991
 2785 Fit       0.027835
 2786 Fit       0.026074
 2787 Fit       0.031812
 2788 Fit       0.032130
 2789 Fit       0.032581
 2790 Fit       0.032585
 2791 Fit       0.031362
 2792 Fit       0.029645
 2793 Fit       0.028835
 2794 Fit       0.030278
 2795 Fit       0.031608
 2796 Fit       0.032053
 2797 Fit       0.030824
 2798 Fit       0.003026
 2799 Fit       0.008155
 2800 Fit       0.010081
 2801 Fit       0.004239
 2802 Fit       0.010148
 2803 Fit       0.013627
 2804 Fit       0.015240
 2805 Fit       0.015318
 2806 Fit       0.000898
 2807 Fit       0.008242
 2808 Fit       0.013470
 2809 Fit       0.016920
 2810 Fit       0.018878
 2811 Fit       0.019565
 2812 Fit       0.019163
 2813 Fit       0.008684
 2814 Fit       0.013742
 2815 Fit       0.017677
 2816 Fit       0.020429
 2817 Fit       0.022080
 2818 Fit       0.022770
 2819 Fit       0.022688
 2820 Fit       0.015698
 2821 Fit       0.019189
 2822 Fit       0.021946
 2823 Fit       0.023871
 2824 Fit       0.025038
 2825 Fit       0.025650
 2826 Fit       0.021352
 2827 Fit       0.024056
 2828 Fit       0.026087
 2829 Fit       0.027593
 2830 Fit       0.024691
 2831 Fit       0.027365
 -----------------------------------------------------------------
 Leave Link  602 at Thu Jan 16 21:47:19 2014, MaxMem=   235929600 cpu:         0.9

 Test job not archived.
 1\1\GINC-G30\SP\RHF\Gen\C7H5Cl1N2O3\KOLAR\16-Jan-2014\0\\# hf/gen pop=
 mk iop(6/33=2,6/41=5,6/42=2)\\na resp\\0,1\C,0,1.143844,-1.504486,0.10
 3716\C,0,-0.241325,-1.635398,0.107888\C,0,-1.085933,-0.516514,0.045736
 \C,0,-0.502688,0.759637,-0.032716\C,0,0.881355,0.914224,-0.050615\C,0,
 1.6793,-0.223199,0.023541\N,0,3.14537,-0.057949,0.009031\O,0,3.82982,-
 1.077825,0.066703\O,0,3.589029,1.086141,-0.061382\Cl,0,-1.483437,2.201
 07,-0.163222\C,0,-2.582898,-0.71961,0.143555\O,0,-3.263729,-0.156478,0
 .98219\N,0,-3.082579,-1.647915,-0.733272\H,0,1.801283,-2.362538,0.1621
 94\H,0,-0.686869,-2.622587,0.181311\H,0,1.336549,1.893405,-0.122491\H,
 0,-2.573908,-1.89524,-1.570243\H,0,-4.089062,-1.752817,-0.753039\\Vers
 ion=AM64L-G09RevD.01\State=1-A\HF=-1060.8320366\RMSD=5.387e-09\Dipole=
 -1.0167363,-1.3655251,-1.2084235\Quadrupole=-11.8701732,8.1185034,3.75
 16698,5.1529454,8.0883316,2.0021667\PG=C01 [X(C7H5Cl1N2O3)]\\@


 HAPPINESS IS NOT HAVING WHAT YOU WANT --
 HAPPINESS IS WANTING WHAT YOU HAVE!

              -- FROM MRS. SEVERN'S DESK
 Job cpu time:       0 days  0 hours  0 minutes 26.8 seconds.
 File lengths (MBytes):  RWF=     16 Int=      0 D2E=      0 Chk=      2 Scr=      1
 Normal termination of Gaussian 09 at Thu Jan 16 21:47:19 2014.
26.06user 0.76system 0:31.00elapsed 86%CPU (0avgtext+0avgdata 6160352maxresident)k
8inputs+35080outputs (0major+539035minor)pagefaults 0swaps
