Linux g25 2.6.38.6-client #1 SMP Tue Jun 12 11:27:21 CEST 2012 x86_64 GNU/Linux
Thu Jan 16 21:46:46 CET 2014

 Entering Gaussian System, Link 0=/usr/local/programs/common/gaussian/gaussian09_d01/arch/amd64-pgi_10.4.0-acml/g09/g09
 Initial command:
 /usr/local/programs/common/gaussian/gaussian09_d01/arch/amd64-pgi_10.4.0-acml/g09/l1.exe "/scratch/kolar/g09_17812/Gau-15196.inp" -scrdir="/scratch/kolar/g09_17812/"
 Entering Link 1 = /usr/local/programs/common/gaussian/gaussian09_d01/arch/amd64-pgi_10.4.0-acml/g09/l1.exe PID=     15203.
  
 Copyright (c) 1988,1990,1992,1993,1995,1998,2003,2009,2013,
            Gaussian, Inc.  All Rights Reserved.
  
 This is part of the Gaussian(R) 09 program.  It is based on
 the Gaussian(R) 03 system (copyright 2003, Gaussian, Inc.),
 the Gaussian(R) 98 system (copyright 1998, Gaussian, Inc.),
 the Gaussian(R) 94 system (copyright 1995, Gaussian, Inc.),
 the Gaussian 92(TM) system (copyright 1992, Gaussian, Inc.),
 the Gaussian 90(TM) system (copyright 1990, Gaussian, Inc.),
 the Gaussian 88(TM) system (copyright 1988, Gaussian, Inc.),
 the Gaussian 86(TM) system (copyright 1986, Carnegie Mellon
 University), and the Gaussian 82(TM) system (copyright 1983,
 Carnegie Mellon University). Gaussian is a federally registered
 trademark of Gaussian, Inc.
  
 This software contains proprietary and confidential information,
 including trade secrets, belonging to Gaussian, Inc.
  
 This software is provided under written license and may be
 used, copied, transmitted, or stored only in accord with that
 written license.
  
 The following legend is applicable only to US Government
 contracts under FAR:
  
                    RESTRICTED RIGHTS LEGEND
  
 Use, reproduction and disclosure by the US Government is
 subject to restrictions as set forth in subparagraphs (a)
 and (c) of the Commercial Computer Software - Restricted
 Rights clause in FAR 52.227-19.
  
 Gaussian, Inc.
 340 Quinnipiac St., Bldg. 40, Wallingford CT 06492
  
  
 ---------------------------------------------------------------
 Warning -- This program may not be used in any manner that
 competes with the business of Gaussian, Inc. or will provide
 assistance to any competitor of Gaussian, Inc.  The licensee
 of this program is prohibited from giving any competitor of
 Gaussian, Inc. access to this program.  By using this program,
 the user acknowledges that Gaussian, Inc. is engaged in the
 business of creating and licensing software in the field of
 computational chemistry and represents and warrants to the
 licensee that it is not a competitor of Gaussian, Inc. and that
 it will not use this program in any manner prohibited above.
 ---------------------------------------------------------------
  

 Cite this work as:
 Gaussian 09, Revision D.01,
 M. J. Frisch, G. W. Trucks, H. B. Schlegel, G. E. Scuseria, 
 M. A. Robb, J. R. Cheeseman, G. Scalmani, V. Barone, B. Mennucci, 
 G. A. Petersson, H. Nakatsuji, M. Caricato, X. Li, H. P. Hratchian, 
 A. F. Izmaylov, J. Bloino, G. Zheng, J. L. Sonnenberg, M. Hada, 
 M. Ehara, K. Toyota, R. Fukuda, J. Hasegawa, M. Ishida, T. Nakajima, 
 Y. Honda, O. Kitao, H. Nakai, T. Vreven, J. A. Montgomery, Jr., 
 J. E. Peralta, F. Ogliaro, M. Bearpark, J. J. Heyd, E. Brothers, 
 K. N. Kudin, V. N. Staroverov, T. Keith, R. Kobayashi, J. Normand, 
 K. Raghavachari, A. Rendell, J. C. Burant, S. S. Iyengar, J. Tomasi, 
 M. Cossi, N. Rega, J. M. Millam, M. Klene, J. E. Knox, J. B. Cross, 
 V. Bakken, C. Adamo, J. Jaramillo, R. Gomperts, R. E. Stratmann, 
 O. Yazyev, A. J. Austin, R. Cammi, C. Pomelli, J. W. Ochterski, 
 R. L. Martin, K. Morokuma, V. G. Zakrzewski, G. A. Voth, 
 P. Salvador, J. J. Dannenberg, S. Dapprich, A. D. Daniels, 
 O. Farkas, J. B. Foresman, J. V. Ortiz, J. Cioslowski, 
 and D. J. Fox, Gaussian, Inc., Wallingford CT, 2013.
 
 ******************************************
 Gaussian 09:  AM64L-G09RevD.01 24-Apr-2013
                16-Jan-2014 
 ******************************************
 %mem=1800mb
 -----------------------------------------
 # hf/gen pop=mk iop(6/33=2,6/41=5,6/42=2)
 -----------------------------------------
 1/38=1/1;
 2/12=2,17=6,18=5,40=1/2;
 3/5=7,11=9,16=1,25=1,30=1/1,2,3;
 4//1;
 5/5=2,38=5/2;
 6/7=2,8=2,9=2,10=2,15=8,20=1,28=1,33=2,41=5,42=2/1,2;
 99/5=1,9=1/99;
 -------
 na resp
 -------
 Symbolic Z-matrix:
 Charge =  0 Multiplicity = 1
 6                    -0.84388   0.14851   2.54634 
 6                    -1.36754  -0.1472    1.17225 
 6                    -0.63624  -0.05284   0.02351 
 6                    -1.26403  -0.40293  -1.2625 
 8                    -0.69572  -0.38987  -2.34558 
 7                    -2.61589  -0.7755   -1.17642 
 1                    -3.07158  -1.01976  -2.04901 
 6                    -3.39263  -0.87904  -0.03577 
 8                    -4.55961  -1.22212  -0.02512 
 7                    -2.69058  -0.54659   1.1195 
 1                    -3.23289  -0.61756   1.97049 
 7                     0.73203   0.3516    0.03521 
 6                     0.98084   1.64689  -0.62245 
 6                     0.60042   2.81308   0.28098 
 9                     0.85294   4.00162  -0.39477 
 6                     1.68174  -0.70552  -0.3627 
 6                     2.92581  -0.63003   0.52126 
 17                    4.1311   -1.90321   0.04733 
 1                    -1.42223   0.95308   3.01778 
 1                    -0.92557  -0.73748   3.18853 
 1                     0.20162   0.44857   2.48734 
 1                     2.05085   1.72337  -0.84042 
 1                     0.45094   1.72975  -1.58035 
 1                    -0.46425   2.78571   0.54409 
 1                     1.19246   2.7997    1.20445 
 1                     1.95675  -0.63403  -1.42223 
 1                     1.20344  -1.67787  -0.21915 
 1                     3.43703   0.33048   0.42923 
 1                     2.67499  -0.80022   1.56955 
 
                          Input orientation:                          
 ---------------------------------------------------------------------
 Center     Atomic      Atomic             Coordinates (Angstroms)
 Number     Number       Type             X           Y           Z
 ---------------------------------------------------------------------
      1          6           0       -0.843883    0.148512    2.546340
      2          6           0       -1.367544   -0.147201    1.172254
      3          6           0       -0.636239   -0.052837    0.023513
      4          6           0       -1.264025   -0.402933   -1.262501
      5          8           0       -0.695722   -0.389867   -2.345583
      6          7           0       -2.615894   -0.775502   -1.176417
      7          1           0       -3.071582   -1.019757   -2.049008
      8          6           0       -3.392629   -0.879038   -0.035772
      9          8           0       -4.559613   -1.222124   -0.025116
     10          7           0       -2.690583   -0.546591    1.119503
     11          1           0       -3.232888   -0.617562    1.970485
     12          7           0        0.732033    0.351596    0.035205
     13          6           0        0.980843    1.646887   -0.622454
     14          6           0        0.600424    2.813082    0.280981
     15          9           0        0.852943    4.001624   -0.394767
     16          6           0        1.681744   -0.705517   -0.362696
     17          6           0        2.925813   -0.630025    0.521260
     18         17           0        4.131102   -1.903208    0.047331
     19          1           0       -1.422227    0.953081    3.017783
     20          1           0       -0.925569   -0.737478    3.188531
     21          1           0        0.201616    0.448573    2.487337
     22          1           0        2.050855    1.723374   -0.840415
     23          1           0        0.450941    1.729749   -1.580349
     24          1           0       -0.464248    2.785706    0.544087
     25          1           0        1.192457    2.799699    1.204448
     26          1           0        1.956750   -0.634028   -1.422234
     27          1           0        1.203437   -1.677869   -0.219147
     28          1           0        3.437027    0.330477    0.429234
     29          1           0        2.674987   -0.800222    1.569549
 ---------------------------------------------------------------------
                    Distance matrix (angstroms):
                    1          2          3          4          5
     1  C    0.000000
     2  C    1.499926   0.000000
     3  C    2.539353   1.365034   0.000000
     4  C    3.871418   2.450336   1.473267   0.000000
     5  O    4.923689   3.589625   2.393688   1.223195   0.000000
     6  N    4.225251   2.733019   2.425100   1.404909   2.280948
     7  H    5.238771   3.747216   3.340834   2.065509   2.475768
     8  C    3.770844   2.468984   2.878161   2.502498   3.584386
     9  O    4.722042   3.574697   4.094198   3.614290   4.583325
    10  N    2.435022   1.383014   2.380193   2.780225   4.001356
    11  H    2.574067   2.082767   3.294268   3.791396   5.011736
    12  N    2.971625   2.439242   1.426840   2.497519   2.873396
    13  C    3.951710   3.457550   2.433370   3.106582   3.150938
    14  C    3.783888   3.664770   3.131951   4.025079   4.340244
    15  F    5.135738   4.959724   4.339502   4.963329   5.048687
    16  C    3.945966   3.459183   2.438892   3.094957   3.111884
    17  C    4.349446   4.369191   3.642679   4.559399   4.625147
    18  Cl   5.933387   5.880826   5.113901   5.750990   5.595933
    19  H    1.097302   2.149323   3.255042   4.492731   5.576470
    20  H    1.097297   2.146891   3.251120   4.476400   5.549782
    21  H    1.089305   2.132288   2.650253   4.115149   4.986513
    22  H    4.725443   4.385811   3.334932   3.960779   3.778228
    23  H    4.605045   3.795610   2.632859   2.755080   2.528476
    24  H    3.332856   3.132488   2.891004   3.751109   4.299772
    25  H    3.602242   3.903698   3.588272   4.730433   5.132375
    26  H    4.919908   4.244914   3.025154   3.233003   2.819184
    27  H    3.895524   3.299831   2.466581   2.966887   3.128496
    28  H    4.779272   4.885095   4.111330   5.049727   5.029724
    29  H    3.773150   4.114163   3.730017   4.867665   5.182502
                    6          7          8          9         10
     6  N    0.000000
     7  H    1.014262   0.000000
     8  C    1.383874   2.043524   0.000000
     9  O    2.302826   2.520184   1.216418   0.000000
    10  N    2.308512   3.226222   1.392139   2.293419   0.000000
    11  H    3.210704   4.042784   2.029521   2.471461   1.011584
    12  N    3.734567   4.548850   4.304920   5.521028   3.700911
    13  C    4.371654   5.056500   5.084462   6.267750   4.617914
    14  C    5.034545   5.796821   5.447619   6.557634   4.777159
    15  F    5.955228   6.584275   6.478782   7.531265   5.961195
    16  C    4.374555   5.053366   5.087853   6.271792   4.619460
    17  C    5.797740   6.536583   6.347834   7.528659   5.648784
    18  Cl   6.949190   7.553395   7.593573   8.717663   7.037425
    19  H    4.690859   5.681974   4.069809   4.882002   2.731522
    20  H    4.680963   5.667175   4.062334   4.875314   2.726278
    21  H    4.781194   5.783446   4.587726   5.636750   3.350543
    22  H    5.304321   5.935051   6.086996   7.282785   5.610281
    23  H    3.980568   4.493061   4.895357   6.019797   4.726531
    24  H    4.502435   5.291869   4.726733   5.758360   4.048688
    25  H    5.740568   6.584470   6.007850   7.125531   5.126682
    26  H    4.581431   5.081905   5.531561   6.690350   5.297714
    27  H    4.039545   4.696519   4.668574   5.784297   4.270265
    28  H    6.359179   7.094139   6.951500   8.158631   6.228429
    29  H    5.961071   6.794498   6.276881   7.420269   5.390381
                   11         12         13         14         15
    11  H    0.000000
    12  N    4.517209   0.000000
    13  C    5.441194   1.473839   0.000000
    14  C    5.414612   2.477224   1.523458   0.000000
    15  F    6.604946   3.677254   2.369174   1.390336   0.000000
    16  C    5.441055   1.475725   2.468307   3.736859   4.779656
    17  C    6.326927   2.452040   3.205514   4.161749   5.156362
    18  Cl   7.718792   4.078965   4.793320   5.896072   6.768221
    19  H    2.615769   3.728055   4.416722   3.878248   5.110334
    20  H    2.611845   3.725210   4.882951   4.836215   6.201791
    21  H    3.633125   2.510717   3.422565   3.258521   4.621139
    22  H    6.426436   2.094702   1.094661   2.132778   2.612282
    23  H    5.629288   2.142039   1.097827   2.158820   2.593960
    24  H    4.613265   2.759518   2.178535   1.097042   2.023585
    25  H    5.643418   2.751786   2.170559   1.097029   2.029133
    26  H    6.200255   2.143715   2.606648   4.077147   4.874766
    27  H    5.059616   2.098963   3.356517   4.558771   5.693007
    28  H    6.911006   2.733623   2.978561   3.772482   4.564404
    29  H    5.924281   2.730562   3.696396   4.361214   5.498737
                   16         17         18         19         20
    16  C    0.000000
    17  C    1.528000   0.000000
    18  Cl   2.757162   1.816129   0.000000
    19  H    4.879879   5.257785   6.915304   0.000000
    20  H    4.405714   4.686046   6.065969   1.770258   0.000000
    21  H    3.412534   3.528467   5.188966   1.781226   1.780151
    22  H    2.502792   2.856256   4.274063   5.247985   5.580976
    23  H    2.987989   4.013762   5.421375   5.025414   5.542942
    24  H    4.197163   4.812510   6.584066   3.224191   4.429303
    25  H    3.870644   3.903111   5.664970   3.678961   4.575395
    26  H    1.096978   2.171697   2.915175   5.800875   5.438531
    27  H    1.093093   2.147733   2.948391   4.928867   4.126654
    28  H    2.186654   1.091958   2.370008   5.540810   5.271289
    29  H    2.174643   1.091233   2.377813   4.686002   3.948296
                   21         22         23         24         25
    21  H    0.000000
    22  H    4.014815   0.000000
    23  H    4.271960   1.762744   0.000000
    24  H    3.111557   3.061231   2.542802   0.000000
    25  H    2.855760   2.465114   3.074042   1.783520   0.000000
    26  H    4.420098   2.429962   2.807116   4.628416   4.390226
    27  H    3.584753   3.559852   3.745795   4.825681   4.698442
    28  H    3.836355   2.339582   3.861748   4.610996   3.425800
    29  H    2.918799   3.544856   4.611832   4.874961   3.910323
                   26         27         28         29
    26  H    0.000000
    27  H    1.761960   0.000000
    28  H    2.559184   3.072910   0.000000
    29  H    3.081274   2.476925   1.777499   0.000000
 Stoichiometry    C9H13ClFN3O2
 Framework group  C1[X(C9H13ClFN3O2)]
 Deg. of freedom    81
 Full point group                 C1      NOp   1
 Largest Abelian subgroup         C1      NOp   1
 Largest concise Abelian subgroup C1      NOp   1
                         Standard orientation:                         
 ---------------------------------------------------------------------
 Center     Atomic      Atomic             Coordinates (Angstroms)
 Number     Number       Type             X           Y           Z
 ---------------------------------------------------------------------
      1          6           0       -0.843883    0.148512    2.546340
      2          6           0       -1.367544   -0.147201    1.172254
      3          6           0       -0.636239   -0.052837    0.023513
      4          6           0       -1.264025   -0.402933   -1.262501
      5          8           0       -0.695722   -0.389867   -2.345583
      6          7           0       -2.615894   -0.775502   -1.176417
      7          1           0       -3.071582   -1.019757   -2.049008
      8          6           0       -3.392629   -0.879038   -0.035772
      9          8           0       -4.559613   -1.222124   -0.025116
     10          7           0       -2.690583   -0.546591    1.119503
     11          1           0       -3.232888   -0.617562    1.970485
     12          7           0        0.732033    0.351596    0.035205
     13          6           0        0.980843    1.646887   -0.622454
     14          6           0        0.600424    2.813082    0.280981
     15          9           0        0.852943    4.001624   -0.394767
     16          6           0        1.681744   -0.705517   -0.362696
     17          6           0        2.925813   -0.630025    0.521260
     18         17           0        4.131102   -1.903208    0.047331
     19          1           0       -1.422227    0.953081    3.017783
     20          1           0       -0.925569   -0.737478    3.188531
     21          1           0        0.201616    0.448573    2.487337
     22          1           0        2.050855    1.723374   -0.840415
     23          1           0        0.450941    1.729749   -1.580349
     24          1           0       -0.464248    2.785706    0.544087
     25          1           0        1.192457    2.799699    1.204448
     26          1           0        1.956750   -0.634028   -1.422234
     27          1           0        1.203437   -1.677869   -0.219147
     28          1           0        3.437027    0.330477    0.429234
     29          1           0        2.674987   -0.800222    1.569549
 ---------------------------------------------------------------------
 Rotational constants (GHZ):      0.5346042      0.2731857      0.2291754
 General basis read from cards:  (5D, 7F)
 There are   270 symmetry adapted cartesian basis functions of A   symmetry.
 There are   254 symmetry adapted basis functions of A   symmetry.
   254 basis functions,   524 primitive gaussians,   270 cartesian basis functions
    65 alpha electrons       65 beta electrons
       nuclear repulsion energy      1254.9462913744 Hartrees.
 NAtoms=   29 NActive=   29 NUniq=   29 SFac= 1.00D+00 NAtFMM=   60 NAOKFM=F Big=F
 Integral buffers will be    131072 words long.
 Raffenetti 1 integral format.
 Two-electron integral symmetry is turned on.
 One-electron integrals computed using PRISM.
 NBasis=   254 RedAO= T EigKep=  1.03D-03  NBF=   254
 NBsUse=   254 1.00D-06 EigRej= -1.00D+00 NBFU=   254
 ExpMin= 1.43D-01 ExpMax= 2.52D+04 ExpMxC= 3.78D+03 IAcc=1 IRadAn=         1 AccDes= 0.00D+00
 Harris functional with IExCor=  205 and IRadAn=       1 diagonalized for initial guess.
 HarFok:  IExCor=  205 AccDes= 0.00D+00 IRadAn=         1 IDoV= 1 UseB2=F ITyADJ=14
 ICtDFT=  3500011 ScaDFX=  1.000000  1.000000  1.000000  1.000000
 FoFCou: FMM=F IPFlag=           0 FMFlag=      100000 FMFlg1=           0
         NFxFlg=           0 DoJE=T BraDBF=F KetDBF=T FulRan=T
         wScrn=  0.000000 ICntrl=     500 IOpCl=  0 I1Cent=   200000004 NGrid=           0
         NMat0=    1 NMatS0=      1 NMatT0=    0 NMatD0=    1 NMtDS0=    0 NMtDT0=    0
 Petite list used in FoFCou.
 Requested convergence on RMS density matrix=1.00D-08 within 128 cycles.
 Requested convergence on MAX density matrix=1.00D-06.
 Requested convergence on             energy=1.00D-06.
 No special actions if energy rises.
 Integral accuracy reduced to 1.0D-05 until final iterations.
 Initial convergence to 1.0D-05 achieved.  Increase integral accuracy.
 SCF Done:  E(RHF) =  -1220.39791412     A.U. after   15 cycles
            NFock= 15  Conv=0.95D-08     -V/T= 2.0007

 **********************************************************************

            Population analysis using the SCF density.

 **********************************************************************

 Orbital symmetries:
 BldTbl:  Degeneracy threshold= 1.00D-02
       Occupied  (A) (A) (A) (A) (A) (A) (A) (A) (A) (A) (A) (A)
                 (A) (A) (A) (A) (A) (A) (A) (A) (A) (A) (A) (A)
                 (A) (A) (A) (A) (A) (A) (A) (A) (A) (A) (A) (A)
                 (A) (A) (A) (A) (A) (A) (A) (A) (A) (A) (A) (A)
                 (A) (A) (A) (A) (A) (A) (A) (A) (A) (A) (A) (A)
                 (A) (A) (A) (A) (A)
       Virtual   (A) (A) (A) (A) (A) (A) (A) (A) (A) (A) (A) (A)
                 (A) (A) (A) (A) (A) (A) (A) (A) (A) (A) (A) (A)
                 (A) (A) (A) (A) (A) (A) (A) (A) (A) (A) (A) (A)
                 (A) (A) (A) (A) (A) (A) (A) (A) (A) (A) (A) (A)
                 (A) (A) (A) (A) (A) (A) (A) (A) (A) (A) (A) (A)
                 (A) (A) (A) (A) (A) (A) (A) (A) (A) (A) (A) (A)
                 (A) (A) (A) (A) (A) (A) (A) (A) (A) (A) (A) (A)
                 (A) (A) (A) (A) (A) (A) (A) (A) (A) (A) (A) (A)
                 (A) (A) (A) (A) (A) (A) (A) (A) (A) (A) (A) (A)
                 (A) (A) (A) (A) (A) (A) (A) (A) (A) (A) (A) (A)
                 (A) (A) (A) (A) (A) (A) (A) (A) (A) (A) (A) (A)
                 (A) (A) (A) (A) (A) (A) (A) (A) (A) (A) (A) (A)
                 (A) (A) (A) (A) (A) (A) (A) (A) (A) (A) (A) (A)
                 (A) (A) (A) (A) (A) (A) (A) (A) (A) (A) (A) (A)
                 (A) (A) (A) (A) (A) (A) (A) (A) (A) (A) (A) (A)
                 (A) (A) (A) (A) (A) (A) (A) (A) (A)
 The electronic state is 1-A.
 Alpha  occ. eigenvalues -- -104.80717 -26.27583 -20.55652 -20.55511 -15.64755
 Alpha  occ. eigenvalues --  -15.63444 -15.58917 -11.42826 -11.38988 -11.35118
 Alpha  occ. eigenvalues --  -11.31510 -11.30034 -11.28865 -11.27602 -11.27140
 Alpha  occ. eigenvalues --  -11.26786 -10.54619  -8.01465  -8.01147  -8.01142
 Alpha  occ. eigenvalues --   -1.58350  -1.43728  -1.40326  -1.31562  -1.26346
 Alpha  occ. eigenvalues --   -1.24734  -1.13620  -1.09499  -1.03535  -1.01919
 Alpha  occ. eigenvalues --   -0.95776  -0.90497  -0.88644  -0.86869  -0.84434
 Alpha  occ. eigenvalues --   -0.77949  -0.77364  -0.71194  -0.70005  -0.69099
 Alpha  occ. eigenvalues --   -0.68126  -0.67399  -0.67146  -0.65156  -0.65134
 Alpha  occ. eigenvalues --   -0.63863  -0.62070  -0.61819  -0.60131  -0.59483
 Alpha  occ. eigenvalues --   -0.58154  -0.57572  -0.56398  -0.54202  -0.52924
 Alpha  occ. eigenvalues --   -0.50908  -0.50570  -0.49917  -0.48426  -0.45615
 Alpha  occ. eigenvalues --   -0.44086  -0.43703  -0.43591  -0.38875  -0.35919
 Alpha virt. eigenvalues --    0.09354   0.16617   0.17607   0.19406   0.22266
 Alpha virt. eigenvalues --    0.23393   0.24709   0.24838   0.25143   0.26545
 Alpha virt. eigenvalues --    0.27566   0.27900   0.29334   0.30259   0.31841
 Alpha virt. eigenvalues --    0.33036   0.33832   0.35310   0.35851   0.37712
 Alpha virt. eigenvalues --    0.38825   0.40366   0.41457   0.42353   0.43349
 Alpha virt. eigenvalues --    0.44836   0.47881   0.49264   0.53513   0.55475
 Alpha virt. eigenvalues --    0.55640   0.59489   0.64936   0.65394   0.66967
 Alpha virt. eigenvalues --    0.67836   0.68529   0.68684   0.70241   0.71061
 Alpha virt. eigenvalues --    0.72348   0.73272   0.75210   0.77670   0.78944
 Alpha virt. eigenvalues --    0.79206   0.80318   0.82118   0.83415   0.85491
 Alpha virt. eigenvalues --    0.86140   0.86858   0.88065   0.89342   0.89738
 Alpha virt. eigenvalues --    0.91630   0.93676   0.95272   0.97088   0.99021
 Alpha virt. eigenvalues --    1.00026   1.01190   1.03359   1.06957   1.07371
 Alpha virt. eigenvalues --    1.07983   1.09153   1.10103   1.10347   1.10563
 Alpha virt. eigenvalues --    1.11746   1.11961   1.14017   1.14709   1.15532
 Alpha virt. eigenvalues --    1.16057   1.16445   1.17441   1.18487   1.18756
 Alpha virt. eigenvalues --    1.19521   1.20704   1.23789   1.24352   1.24941
 Alpha virt. eigenvalues --    1.26126   1.29398   1.29671   1.31824   1.32225
 Alpha virt. eigenvalues --    1.35769   1.37016   1.37736   1.38876   1.41822
 Alpha virt. eigenvalues --    1.43487   1.46117   1.51036   1.52533   1.53182
 Alpha virt. eigenvalues --    1.55333   1.56989   1.58389   1.61090   1.62086
 Alpha virt. eigenvalues --    1.62489   1.63533   1.65817   1.68291   1.70648
 Alpha virt. eigenvalues --    1.71491   1.72408   1.75310   1.77635   1.80086
 Alpha virt. eigenvalues --    1.81361   1.83645   1.87734   1.90687   1.92061
 Alpha virt. eigenvalues --    2.00240   2.02261   2.03828   2.06163   2.07466
 Alpha virt. eigenvalues --    2.08566   2.09302   2.11049   2.11430   2.12025
 Alpha virt. eigenvalues --    2.13943   2.15423   2.16460   2.17702   2.20238
 Alpha virt. eigenvalues --    2.21759   2.22991   2.24304   2.25272   2.27907
 Alpha virt. eigenvalues --    2.29041   2.29615   2.31489   2.33168   2.34013
 Alpha virt. eigenvalues --    2.36280   2.37427   2.40722   2.43434   2.44174
 Alpha virt. eigenvalues --    2.45280   2.46778   2.49962   2.53941   2.56444
 Alpha virt. eigenvalues --    2.57300   2.57924   2.59487   2.60946   2.64001
 Alpha virt. eigenvalues --    2.65589   2.66287   2.68419   2.68708   2.72426
 Alpha virt. eigenvalues --    2.75605   2.78528   2.83126   2.87910   2.88616
 Alpha virt. eigenvalues --    2.91853   2.94520   2.95093   2.97904   2.99395
 Alpha virt. eigenvalues --    3.00749   3.02035   3.07505   3.10656   3.18165
 Alpha virt. eigenvalues --    3.24151   3.24754   3.31186   3.33904   3.36806
 Alpha virt. eigenvalues --    3.39169   3.44402   3.62824   3.78770
          Condensed to atoms (all electrons):
               1          2          3          4          5          6
     1  C    5.180149   0.324057  -0.025686   0.002698  -0.000032  -0.000365
     2  C    0.324057   4.680450   0.603959  -0.062397   0.003760  -0.003947
     3  C   -0.025686   0.603959   5.132280   0.350118  -0.083918  -0.097039
     4  C    0.002698  -0.062397   0.350118   4.090382   0.611239   0.211071
     5  O   -0.000032   0.003760  -0.083918   0.611239   8.160440  -0.087370
     6  N   -0.000365  -0.003947  -0.097039   0.211071  -0.087370   7.561327
     7  H    0.000010  -0.000866   0.004415  -0.011500   0.004389   0.303010
     8  C    0.000944  -0.025807  -0.002280  -0.012057   0.000640   0.271742
     9  O   -0.000072   0.001201  -0.000005   0.000294  -0.000014  -0.083211
    10  N   -0.066032   0.212990  -0.041162  -0.009324  -0.000050  -0.118135
    11  H   -0.002760  -0.025383   0.001617  -0.000315   0.000002   0.004039
    12  N   -0.015358  -0.057954   0.305048  -0.064052  -0.000912   0.003268
    13  C    0.000288   0.000611  -0.062886  -0.003734  -0.002633  -0.000087
    14  C   -0.000046  -0.001407  -0.003587   0.000257   0.000103   0.000011
    15  F   -0.000001   0.000006  -0.000054   0.000000   0.000000   0.000000
    16  C    0.000751  -0.000879  -0.056264  -0.004292   0.004154  -0.000058
    17  C   -0.000100   0.000092   0.001197   0.000159   0.000185   0.000005
    18  Cl   0.000000  -0.000009  -0.000060   0.000002  -0.000001   0.000000
    19  H    0.385051  -0.039752  -0.000928  -0.000031   0.000000   0.000005
    20  H    0.386357  -0.039192  -0.000587  -0.000017   0.000001   0.000005
    21  H    0.388018  -0.036145  -0.003995   0.000269  -0.000002  -0.000007
    22  H    0.000012  -0.000133   0.005401   0.000010   0.000071   0.000001
    23  H   -0.000024   0.000379  -0.003919   0.002466   0.005386  -0.000237
    24  H    0.000250  -0.000985   0.007102   0.000502   0.000007  -0.000022
    25  H   -0.000482   0.000523  -0.000228  -0.000036  -0.000003   0.000000
    26  H   -0.000023  -0.000086  -0.000393   0.001399   0.001308  -0.000004
    27  H    0.000112   0.000537   0.004096  -0.001068  -0.000210  -0.000189
    28  H    0.000004  -0.000009  -0.000003  -0.000004   0.000000   0.000000
    29  H   -0.000140   0.000045  -0.000288   0.000008  -0.000002   0.000000
               7          8          9         10         11         12
     1  C    0.000010   0.000944  -0.000072  -0.066032  -0.002760  -0.015358
     2  C   -0.000866  -0.025807   0.001201   0.212990  -0.025383  -0.057954
     3  C    0.004415  -0.002280  -0.000005  -0.041162   0.001617   0.305048
     4  C   -0.011500  -0.012057   0.000294  -0.009324  -0.000315  -0.064052
     5  O    0.004389   0.000640  -0.000014  -0.000050   0.000002  -0.000912
     6  N    0.303010   0.271742  -0.083211  -0.118135   0.004039   0.003268
     7  H    0.271920  -0.014484   0.002557   0.003528  -0.000065  -0.000071
     8  C   -0.014484   3.776371   0.668789   0.273037  -0.011333   0.000008
     9  O    0.002557   0.668789   8.106805  -0.086779   0.004908   0.000000
    10  N    0.003528   0.273037  -0.086779   7.456229   0.319707   0.002924
    11  H   -0.000065  -0.011333   0.004908   0.319707   0.279517  -0.000056
    12  N   -0.000071   0.000008   0.000000   0.002924  -0.000056   7.336810
    13  C    0.000002   0.000000   0.000000  -0.000009   0.000002   0.201192
    14  C    0.000000   0.000002   0.000000  -0.000021   0.000000  -0.051083
    15  F    0.000000   0.000000   0.000000   0.000000   0.000000   0.001177
    16  C   -0.000002  -0.000007   0.000000  -0.000042   0.000002   0.217586
    17  C    0.000000   0.000000   0.000000   0.000001   0.000000  -0.055138
    18  Cl   0.000000   0.000000   0.000000   0.000000   0.000000   0.004319
    19  H    0.000000  -0.000092  -0.000001  -0.000794   0.000888   0.000490
    20  H    0.000000  -0.000096  -0.000001  -0.001138   0.000891   0.000376
    21  H    0.000000  -0.000004   0.000000   0.003360   0.000051   0.011514
    22  H    0.000000   0.000000   0.000000   0.000000   0.000000  -0.036435
    23  H    0.000013  -0.000005   0.000000   0.000019   0.000000  -0.040874
    24  H    0.000000   0.000008   0.000000  -0.000146  -0.000003  -0.000715
    25  H    0.000000   0.000000   0.000000   0.000004   0.000000   0.006073
    26  H    0.000002  -0.000001   0.000000   0.000004   0.000000  -0.041446
    27  H    0.000001   0.000007   0.000000  -0.000078   0.000000  -0.041690
    28  H    0.000000   0.000000   0.000000   0.000000   0.000000  -0.001698
    29  H    0.000000   0.000000   0.000000   0.000001   0.000000   0.001698
              13         14         15         16         17         18
     1  C    0.000288  -0.000046  -0.000001   0.000751  -0.000100   0.000000
     2  C    0.000611  -0.001407   0.000006  -0.000879   0.000092  -0.000009
     3  C   -0.062886  -0.003587  -0.000054  -0.056264   0.001197  -0.000060
     4  C   -0.003734   0.000257   0.000000  -0.004292   0.000159   0.000002
     5  O   -0.002633   0.000103   0.000000   0.004154   0.000185  -0.000001
     6  N   -0.000087   0.000011   0.000000  -0.000058   0.000005   0.000000
     7  H    0.000002   0.000000   0.000000  -0.000002   0.000000   0.000000
     8  C    0.000000   0.000002   0.000000  -0.000007   0.000000   0.000000
     9  O    0.000000   0.000000   0.000000   0.000000   0.000000   0.000000
    10  N   -0.000009  -0.000021   0.000000  -0.000042   0.000001   0.000000
    11  H    0.000002   0.000000   0.000000   0.000002   0.000000   0.000000
    12  N    0.201192  -0.051083   0.001177   0.217586  -0.055138   0.004319
    13  C    5.079524   0.343317  -0.022184  -0.042004  -0.002988  -0.000089
    14  C    0.343317   4.653366   0.180402   0.003330   0.000051   0.000001
    15  F   -0.022184   0.180402   9.349947  -0.000021   0.000000   0.000000
    16  C   -0.042004   0.003330  -0.000021   5.018637   0.294283  -0.062582
    17  C   -0.002988   0.000051   0.000000   0.294283   5.271585   0.212057
    18  Cl  -0.000089   0.000001   0.000000  -0.062582   0.212057  17.041505
    19  H    0.000058   0.000112   0.000000  -0.000032   0.000002   0.000000
    20  H   -0.000041   0.000005   0.000000   0.000078  -0.000010   0.000001
    21  H   -0.000795  -0.000325   0.000001  -0.000800  -0.000132   0.000008
    22  H    0.399573  -0.038601   0.002318  -0.003932  -0.001224  -0.000033
    23  H    0.395354  -0.043111   0.002553  -0.001233  -0.000054   0.000010
    24  H   -0.047893   0.391964  -0.027215  -0.000067  -0.000011   0.000000
    25  H   -0.047272   0.385231  -0.026985  -0.000368   0.000150   0.000001
    26  H   -0.003100  -0.000157   0.000001   0.405151  -0.051280   0.003111
    27  H    0.003267  -0.000094   0.000000   0.409262  -0.043300   0.000712
    28  H    0.000830  -0.000153  -0.000001  -0.033792   0.383361  -0.044951
    29  H    0.000189  -0.000030   0.000000  -0.032683   0.377933  -0.043590
              19         20         21         22         23         24
     1  C    0.385051   0.386357   0.388018   0.000012  -0.000024   0.000250
     2  C   -0.039752  -0.039192  -0.036145  -0.000133   0.000379  -0.000985
     3  C   -0.000928  -0.000587  -0.003995   0.005401  -0.003919   0.007102
     4  C   -0.000031  -0.000017   0.000269   0.000010   0.002466   0.000502
     5  O    0.000000   0.000001  -0.000002   0.000071   0.005386   0.000007
     6  N    0.000005   0.000005  -0.000007   0.000001  -0.000237  -0.000022
     7  H    0.000000   0.000000   0.000000   0.000000   0.000013   0.000000
     8  C   -0.000092  -0.000096  -0.000004   0.000000  -0.000005   0.000008
     9  O   -0.000001  -0.000001   0.000000   0.000000   0.000000   0.000000
    10  N   -0.000794  -0.001138   0.003360   0.000000   0.000019  -0.000146
    11  H    0.000888   0.000891   0.000051   0.000000   0.000000  -0.000003
    12  N    0.000490   0.000376   0.011514  -0.036435  -0.040874  -0.000715
    13  C    0.000058  -0.000041  -0.000795   0.399573   0.395354  -0.047893
    14  C    0.000112   0.000005  -0.000325  -0.038601  -0.043111   0.391964
    15  F    0.000000   0.000000   0.000001   0.002318   0.002553  -0.027215
    16  C   -0.000032   0.000078  -0.000800  -0.003932  -0.001233  -0.000067
    17  C    0.000002  -0.000010  -0.000132  -0.001224  -0.000054  -0.000011
    18  Cl   0.000000   0.000001   0.000008  -0.000033   0.000010   0.000000
    19  H    0.498512  -0.028319  -0.019103  -0.000001   0.000003   0.000008
    20  H   -0.028319   0.494305  -0.019001   0.000001   0.000000   0.000024
    21  H   -0.019103  -0.019001   0.437481  -0.000020   0.000066  -0.000284
    22  H   -0.000001   0.000001  -0.000020   0.516635  -0.027009   0.004608
    23  H    0.000003   0.000000   0.000066  -0.027009   0.493499  -0.004495
    24  H    0.000008   0.000024  -0.000284   0.004608  -0.004495   0.569966
    25  H   -0.000016   0.000005   0.001061  -0.005960   0.004449  -0.043650
    26  H    0.000000   0.000000   0.000044  -0.001162   0.002615  -0.000003
    27  H    0.000002  -0.000002  -0.000013   0.000234  -0.000057   0.000006
    28  H    0.000000   0.000000   0.000004   0.000973   0.000067  -0.000002
    29  H    0.000003   0.000001   0.000810  -0.000004   0.000003   0.000002
              25         26         27         28         29
     1  C   -0.000482  -0.000023   0.000112   0.000004  -0.000140
     2  C    0.000523  -0.000086   0.000537  -0.000009   0.000045
     3  C   -0.000228  -0.000393   0.004096  -0.000003  -0.000288
     4  C   -0.000036   0.001399  -0.001068  -0.000004   0.000008
     5  O   -0.000003   0.001308  -0.000210   0.000000  -0.000002
     6  N    0.000000  -0.000004  -0.000189   0.000000   0.000000
     7  H    0.000000   0.000002   0.000001   0.000000   0.000000
     8  C    0.000000  -0.000001   0.000007   0.000000   0.000000
     9  O    0.000000   0.000000   0.000000   0.000000   0.000000
    10  N    0.000004   0.000004  -0.000078   0.000000   0.000001
    11  H    0.000000   0.000000   0.000000   0.000000   0.000000
    12  N    0.006073  -0.041446  -0.041690  -0.001698   0.001698
    13  C   -0.047272  -0.003100   0.003267   0.000830   0.000189
    14  C    0.385231  -0.000157  -0.000094  -0.000153  -0.000030
    15  F   -0.026985   0.000001   0.000000  -0.000001   0.000000
    16  C   -0.000368   0.405151   0.409262  -0.033792  -0.032683
    17  C    0.000150  -0.051280  -0.043300   0.383361   0.377933
    18  Cl   0.000001   0.003111   0.000712  -0.044951  -0.043590
    19  H   -0.000016   0.000000   0.000002   0.000000   0.000003
    20  H    0.000005   0.000000  -0.000002   0.000000   0.000001
    21  H    0.001061   0.000044  -0.000013   0.000004   0.000810
    22  H   -0.005960  -0.001162   0.000234   0.000973  -0.000004
    23  H    0.004449   0.002615  -0.000057   0.000067   0.000003
    24  H   -0.043650  -0.000003   0.000006  -0.000002   0.000002
    25  H    0.575382   0.000024   0.000003   0.000231   0.000005
    26  H    0.000024   0.493281  -0.023332  -0.002745   0.003580
    27  H    0.000003  -0.023332   0.495246   0.003504  -0.003094
    28  H    0.000231  -0.002745   0.003504   0.504109  -0.028291
    29  H    0.000005   0.003580  -0.003094  -0.028291   0.509208
 Mulliken charges:
               1
     1  C   -0.557581
     2  C    0.466340
     3  C   -0.031951
     4  C    0.897953
     5  O   -0.616538
     6  N   -0.963808
     7  H    0.437142
     8  C    1.074618
     9  O   -0.614472
    10  N   -0.948093
    11  H    0.428292
    12  N   -0.685005
    13  C   -0.188492
    14  C    0.180463
    15  F   -0.459945
    16  C   -0.114178
    17  C   -0.386823
    18  Cl  -0.110414
    19  H    0.203935
    20  H    0.206354
    21  H    0.237939
    22  H    0.184678
    23  H    0.214133
    24  H    0.151046
    25  H    0.151859
    26  H    0.213210
    27  H    0.196137
    28  H    0.218566
    29  H    0.214634
 Sum of Mulliken charges =   0.00000
 Mulliken charges with hydrogens summed into heavy atoms:
               1
     1  C    0.090647
     2  C    0.466340
     3  C   -0.031951
     4  C    0.897953
     5  O   -0.616538
     6  N   -0.526667
     8  C    1.074618
     9  O   -0.614472
    10  N   -0.519801
    12  N   -0.685005
    13  C    0.210320
    14  C    0.483368
    15  F   -0.459945
    16  C    0.295169
    17  C    0.046377
    18  Cl  -0.110414
 DipInt: DoE/N= T F RetVal/Mat= T F Init=T NMatP=  1 IDeriv=0 Min/MaxMlt=  0  4
 Entering OneElI...
 OneElI was handed   235740580 working-precision words.
 Multipole integrals L=0 to 4 MinM= 0 MaxM= 0.
 Requested accuracy = 0.1000D-12
 ShPair: Thresh= 1.00D-13 NBox=     0 BxSize= 0.00D+00 RnKept= 1.65D+01
         NSMCal=                 4186 NSMKep=                3601
 PrsmSu:  NPrtUS=   1 ThrOK=F IAlg=1 NPAlg=1 LenDen=           0.
 Prism:   IPart=     0 DynPar=F LinDyn=F Incr=          36.
 PRISM was handed   235421014 working-precision words and  3601 shell-pairs
 IPart=  0 NShTot=        3601 NBatch=         109 AvBLen=        33.0
 PrSmSu:  NxtVal=             37.
 Electronic moments (au):
       -130.00000000         -0.35416690          0.21214210          2.04228440
      -2931.85323984      -1262.74880458       -675.27786637          0.34569784
         -1.86978109          1.45716236       -701.80983021      -4364.19420222
       -385.92874948      -2442.21943368       6153.53192989       -298.41011633
       1022.15318001        108.39496834        327.23240263        316.31053476
    -150852.54616399     -44442.24196478     -12758.06314842      12541.68881860
      -1923.61785752      -2915.33480955       2370.55126625        789.47260519
       -895.17978354     -23188.38802870      -6485.72325050      -2239.68251908
        286.40729499        316.99212262       -788.55027171
 Electronic spatial extent (au):  <R**2>=           4869.8799
 DipInt: DoE/N= F T RetVal/Mat= T F Init=T NMatP=  1 IDeriv=0 Min/MaxMlt=  0  4
 Nuclear    moments (au):
        130.00000000          0.00000000          0.00000000          0.00000000
       2839.43769342       1177.16290018        603.79774326          0.00000000
          0.00009624         -0.00004591        782.03849003       4320.81515881
        427.16120657       2418.86362821      -6059.84173610        298.69309993
      -1059.14024957       -102.72461792       -319.52530621       -316.25638189
     138644.00030037      39895.75668349      10501.44868987     -12614.55303769
       1896.12959593       2857.77962644      -2270.86773302       -847.42276641
        852.04498384      20653.02391535       4728.28379792       1251.15179926
       -243.70039410       -295.83558819        874.75180836
 Total      moments (au):
          0.00000000         -0.35416690          0.21214210          2.04228440
        -92.41554642        -85.58590440        -71.48012311          0.34569784
         -1.86968485          1.45711646         80.22865982        -43.37904340
         41.23245709        -23.35580548         93.69019379          0.28298360
        -36.98706956          5.67035042          7.70709642          0.05415287
     -12208.54586362      -4546.48528129      -2256.61445855        -72.86421910
        -27.48826159        -57.55518311         99.68353323        -57.95016123
        -43.13479970      -2535.36411335      -1757.43945258       -988.53071982
         42.70690088         21.15653442         86.20153665
 Traceless Quadrup. (au):
         -9.25502177         -2.42537976         11.68040153          0.34569784
         -1.86968485          1.45711646
 Charge=              0.0000 electrons
 Dipole moment (field-independent basis, Debye):
    X=             -0.9002    Y=              0.5392    Z=              5.1910  Tot=              5.2960
 Quadrupole moment (field-independent basis, Debye-Ang):
   XX=           -124.3021   YY=           -115.1160   ZZ=            -96.1432
   XY=              0.4650   XZ=             -2.5148   YZ=              1.9599
 Traceless Quadrupole moment (field-independent basis, Debye-Ang):
   XX=            -12.4483   YY=             -3.2622   ZZ=             15.7105
   XY=              0.4650   XZ=             -2.5148   YZ=              1.9599
 Octapole moment (field-independent basis, Debye-Ang**2):
  XXX=             57.1037  YYY=            -30.8755  ZZZ=             29.3477  XYY=            -16.6238
  XXY=             66.6851  XXZ=              0.2014  XZZ=            -26.3260  YZZ=              4.0359
  YYZ=              5.4856  XYZ=              0.0385
 Hexadecapole moment (field-independent basis, Debye-Ang**3):
 XXXX=          -4598.3235 YYYY=          -1712.4243 ZZZZ=           -849.9492 XXXY=            -27.4442
 XXXZ=            -10.3534 YYYX=            -21.6780 YYYZ=             37.5456 ZZZX=            -21.8268
 ZZZY=            -16.2466 XXYY=           -954.9396 XXZZ=           -661.9359 YYZZ=           -372.3280
 XXYZ=             16.0855 YYXZ=              7.9686 ZZXY=             32.4676
 N-N= 1.254946291374D+03 E-N=-5.390388682321D+03  KE= 1.219509489553D+03
 Entering OneElI...
 OneElI was handed   235784570 working-precision words.
 Calculate electrostatic properties
    NBasis =   254  MinDer = 0  MaxDer = 0
    NGrid  =    29  NMatD  =   1
 Requested accuracy = 0.1000D-12
 PrtBox:  NBox=     1 Levels=  1 BoxLen=   32.45 SMaxX=       16.42
          Shift=            8.616420            3.596542            4.432510
 Box      1 Number                   0 centers from      1 to     91:
 ShPair: Thresh= 1.00D-13 NBox=     1 BxSize= 3.24D+01 RnKept= 1.65D+01
         NSMCal=                 4186 NSMKep=                3284
 PrsmSu:  NPrtUS=   1 ThrOK=F IAlg=1 NPAlg=1 LenDen=           0.
 Prism:   IPart=     0 DynPar=F LinDyn=F Incr=         512.
 PRISM was handed   235493823 working-precision words and  3284 shell-pairs
 IPart=  0 NShTot=       95236 NBatch=        3385 AvBLen=        28.1
 PrSmSu:  NxtVal=            513.
 --------------------------------------------------------
       Center         ----      EFG at Nuclei      ----
                      3XX-RR        3YY-RR        3ZZ-RR
 --------------------------------------------------------
     1   Atom        0.078184      0.024857     -0.103041
     2   Atom       -0.013056     -0.379746      0.392802
     3   Atom       -0.081430      0.025064      0.056367
     4   Atom        0.031220     -0.455587      0.424367
     5   Atom        0.908506     -0.498521     -0.409985
     6   Atom       -0.334480      0.750462     -0.415982
     7   Atom        0.054923      0.186952     -0.241876
     8   Atom        0.297861     -0.371772      0.073911
     9   Atom       -1.037870     -0.468000      1.505870
    10   Atom       -0.371100      0.811477     -0.440377
    11   Atom        0.012416      0.224223     -0.236639
    12   Atom       -0.641053     -0.571783      1.212836
    13   Atom        0.109913     -0.159862      0.049950
    14   Atom        0.250349     -0.312511      0.062162
    15   Atom        1.349646     -1.739220      0.389574
    16   Atom       -0.064229     -0.053319      0.117548
    17   Atom       -0.061791     -0.120054      0.181845
    18   Atom       -0.546112     -0.826034      1.372146
    19   Atom        0.022383     -0.085000      0.062617
    20   Atom        0.146062     -0.139594     -0.006469
    21   Atom       -0.262741      0.117159      0.145582
    22   Atom       -0.269137      0.131442      0.137695
    23   Atom        0.040649      0.132850     -0.173499
    24   Atom       -0.254101      0.133094      0.121007
    25   Atom        0.021504      0.135172     -0.156676
    26   Atom        0.113493      0.135653     -0.249146
    27   Atom        0.051715     -0.198691      0.146977
    28   Atom        0.045194     -0.194906      0.149712
    29   Atom        0.122167      0.136251     -0.258417
 --------------------------------------------------------
                        XY            XZ            YZ
 --------------------------------------------------------
     1   Atom        0.010309     -0.058373     -0.030336
     2   Atom        0.109501     -0.086798      0.061176
     3   Atom       -0.046129     -0.040489     -0.013176
     4   Atom        0.155320     -0.009635      0.123201
     5   Atom        0.620494      1.028528      0.333396
     6   Atom       -0.337306      0.098652     -0.120270
     7   Atom       -0.076263     -0.207933     -0.119860
     8   Atom        0.213850     -0.028267      0.048527
     9   Atom       -0.179642     -0.022703      0.206803
    10   Atom       -0.391657      0.000712     -0.147293
    11   Atom       -0.039764      0.245233      0.022992
    12   Atom        0.039562      0.368036      0.300721
    13   Atom       -0.058426      0.072640      0.116970
    14   Atom       -0.131467      0.078396      0.335299
    15   Atom       -0.685227      0.419288      1.826967
    16   Atom        0.169190     -0.012571     -0.087302
    17   Atom        0.335096      0.119585     -0.143936
    18   Atom        2.410974      0.882363     -0.967197
    19   Atom        0.171609      0.093699     -0.139403
    20   Atom       -0.031243      0.014666      0.204558
    21   Atom       -0.120311      0.014110      0.003972
    22   Atom       -0.025664      0.083229      0.009076
    23   Atom        0.013361     -0.176772      0.032025
    24   Atom       -0.010539      0.100810      0.008501
    25   Atom       -0.000922     -0.193218      0.008591
    26   Atom       -0.002112      0.105141      0.030617
    27   Atom       -0.164558      0.025996      0.053112
    28   Atom       -0.175448      0.018110      0.034091
    29   Atom       -0.010504      0.098883      0.068575
 --------------------------------------------------------


 ---------------------------------------------------------------------------------
              Nuclear Quadrupole Coupling Constant in Principal Axis System
 ---------------------------------------------------------------------------------

       Atom             a.u.   MegaHertz   Gauss  10(-4) cm-1        Axes

              Baa    -0.4928     2.367     0.845     0.790 -0.6976 -0.1209  0.7062
     6 N(14)  Bbb    -0.3699     1.777     0.634     0.593  0.6604  0.2739  0.6992
              Bcc     0.8627    -4.144    -1.479    -1.382 -0.2780  0.9541 -0.1112
 
              Baa    -0.5169     2.482     0.886     0.828  0.7801  0.2914  0.5537
    10 N(14)  Bbb    -0.4270     2.051     0.732     0.684 -0.5575 -0.0780  0.8265
              Bcc     0.9439    -4.533    -1.617    -1.512 -0.2840  0.9534 -0.1016
 
              Baa    -0.7146     3.432     1.225     1.145  0.9609  0.1788 -0.2114
    12 N(14)  Bbb    -0.6168     2.962     1.057     0.988 -0.2067  0.9712 -0.1181
              Bcc     1.3314    -6.394    -2.282    -2.133  0.1842  0.1571  0.9702
 
              Baa    -3.4560   -66.303   -23.659   -22.116 -0.6616  0.7027  0.2617
    18 Cl(35) Bbb     1.7067    32.743    11.684    10.922  0.6329  0.3362  0.6974
              Bcc     1.7493    33.560    11.975    11.195 -0.4021 -0.6270  0.6672
 

 ---------------------------------------------------------------------------------

 No NMR shielding tensors so no spin-rotation constants.
 Leave Link  601 at Thu Jan 16 22:01:12 2014, MaxMem=   235929600 cpu:         0.4
 FitSet:  NAtFit=    29 NAtPot=    29 NAtFrz=     0 MDM=    33 TotChg=   0.00000
 Merz-Kollman atomic radii used.
 Atom Element Radius
    1     6    1.50
    2     6    1.50
    3     6    1.50
    4     6    1.50
    5     8    1.40
    6     7    1.50
    7     1    1.20
    8     6    1.50
    9     8    1.40
   10     7    1.50
   11     1    1.20
   12     7    1.50
   13     6    1.50
   14     6    1.50
   15     9    1.35
   16     6    1.50
   17     6    1.50
   18    17    1.70
   19     1    1.20
   20     1    1.20
   21     1    1.20
   22     1    1.20
   23     1    1.20
   24     1    1.20
   25     1    1.20
   26     1    1.20
   27     1    1.20
   28     1    1.20
   29     1    1.20
 Generate VDW surfaces: Layer= 5 Dens= 2 Start= 1.400 Inc= 0.179

 **********************************************************************

            Electrostatic Properties Using The SCF Density

 **********************************************************************

       Atomic Center    1 is at  -0.843883  0.148512  2.546340
       Atomic Center    2 is at  -1.367544 -0.147201  1.172254
       Atomic Center    3 is at  -0.636239 -0.052837  0.023513
       Atomic Center    4 is at  -1.264025 -0.402933 -1.262501
       Atomic Center    5 is at  -0.695722 -0.389867 -2.345583
       Atomic Center    6 is at  -2.615894 -0.775502 -1.176417
       Atomic Center    7 is at  -3.071582 -1.019757 -2.049008
       Atomic Center    8 is at  -3.392629 -0.879038 -0.035772
       Atomic Center    9 is at  -4.559613 -1.222124 -0.025116
       Atomic Center   10 is at  -2.690583 -0.546591  1.119503
       Atomic Center   11 is at  -3.232888 -0.617562  1.970485
       Atomic Center   12 is at   0.732033  0.351596  0.035205
       Atomic Center   13 is at   0.980843  1.646887 -0.622454
       Atomic Center   14 is at   0.600424  2.813082  0.280981
       Atomic Center   15 is at   0.852943  4.001624 -0.394767
       Atomic Center   16 is at   1.681744 -0.705517 -0.362696
       Atomic Center   17 is at   2.925813 -0.630025  0.521260
       Atomic Center   18 is at   4.131102 -1.903208  0.047331
       Atomic Center   19 is at  -1.422227  0.953081  3.017783
       Atomic Center   20 is at  -0.925569 -0.737478  3.188531
       Atomic Center   21 is at   0.201616  0.448573  2.487337
       Atomic Center   22 is at   2.050855  1.723374 -0.840415
       Atomic Center   23 is at   0.450941  1.729749 -1.580349
       Atomic Center   24 is at  -0.464248  2.785706  0.544087
       Atomic Center   25 is at   1.192457  2.799699  1.204448
       Atomic Center   26 is at   1.956750 -0.634028 -1.422234
       Atomic Center   27 is at   1.203437 -1.677869 -0.219147
       Atomic Center   28 is at   3.437027  0.330477  0.429234
       Atomic Center   29 is at   2.674987 -0.800222  1.569549
      ESP Fit Center   30 is at  -0.843883  0.148512  4.646340
      ESP Fit Center   31 is at  -0.125641  0.148512  4.519694
      ESP Fit Center   32 is at  -0.484762  0.770528  4.519694
      ESP Fit Center   33 is at  -1.562125  0.148512  4.519694
      ESP Fit Center   34 is at   0.505971  0.148512  4.155033
      ESP Fit Center   35 is at   0.291686  0.878298  4.155033
      ESP Fit Center   36 is at  -2.622795 -0.229607  3.596340
      ESP Fit Center   37 is at   0.684458 -1.244755  2.911001
      ESP Fit Center   38 is at  -0.653063  2.207786  2.181679
      ESP Fit Center   39 is at   0.077947 -1.702772  2.181679
      ESP Fit Center   40 is at   0.684458 -1.244755  2.181679
      ESP Fit Center   41 is at  -1.933506  1.841947  1.536915
      ESP Fit Center   42 is at  -1.176724 -2.206475  1.536915
      ESP Fit Center   43 is at  -0.445714 -1.998485  1.536915
      ESP Fit Center   44 is at   0.160797 -1.540468  1.536915
      ESP Fit Center   45 is at  -1.933506  1.841947  0.807593
      ESP Fit Center   46 is at  -1.176724 -2.206475  0.807593
      ESP Fit Center   47 is at  -0.445714 -1.998485  0.807593
      ESP Fit Center   48 is at  -2.276871  1.427799  0.122254
      ESP Fit Center   49 is at  -0.445419 -2.112111  0.388174
      ESP Fit Center   50 is at  -1.882546  1.597539 -0.341148
      ESP Fit Center   51 is at  -0.445419 -2.112111 -0.341148
      ESP Fit Center   52 is at  -1.829987  1.586215 -0.897840
      ESP Fit Center   53 is at  -1.073205 -2.462207 -0.897840
      ESP Fit Center   54 is at  -0.342195 -2.254217 -0.897840
      ESP Fit Center   55 is at  -1.829987  1.586215 -1.627162
      ESP Fit Center   56 is at  -1.073205 -2.462207 -1.627162
      ESP Fit Center   57 is at  -0.342195 -2.254217 -1.627162
      ESP Fit Center   58 is at  -2.173352  1.172067 -2.312501
      ESP Fit Center   59 is at  -1.454126 -2.211624 -2.312501
      ESP Fit Center   60 is at  -1.232102  1.495311 -2.345583
      ESP Fit Center   61 is at  -1.232102 -2.275045 -2.345583
      ESP Fit Center   62 is at  -0.514876 -2.341506 -2.345583
      ESP Fit Center   63 is at   0.177925 -2.144387 -2.345583
      ESP Fit Center   64 is at   0.752735 -1.710310 -2.345583
      ESP Fit Center   65 is at   1.115082 -0.389867 -3.095643
      ESP Fit Center   66 is at   0.958530  0.346653 -3.095643
      ESP Fit Center   67 is at   0.515942  0.955823 -3.095643
      ESP Fit Center   68 is at  -0.885003  1.411017 -3.095643
      ESP Fit Center   69 is at  -1.601124  1.178335 -3.095643
      ESP Fit Center   70 is at  -2.160693  0.674497 -3.095643
      ESP Fit Center   71 is at  -1.601124 -1.958069 -3.095643
      ESP Fit Center   72 is at  -0.885003 -2.190751 -3.095643
      ESP Fit Center   73 is at  -0.136153 -2.112044 -3.095643
      ESP Fit Center   74 is at   0.515942 -1.735557 -3.095643
      ESP Fit Center   75 is at   0.958530 -1.126387 -3.095643
      ESP Fit Center   76 is at   0.690207 -0.389867 -3.731512
      ESP Fit Center   77 is at   0.504528  0.303098 -3.731512
      ESP Fit Center   78 is at  -0.002757  0.810383 -3.731512
      ESP Fit Center   79 is at  -0.695722  0.996062 -3.731512
      ESP Fit Center   80 is at  -1.388687  0.810383 -3.731512
      ESP Fit Center   81 is at  -1.895972  0.303098 -3.731512
      ESP Fit Center   82 is at  -2.081651 -0.389867 -3.731512
      ESP Fit Center   83 is at  -1.895972 -1.082832 -3.731512
      ESP Fit Center   84 is at  -1.388687 -1.590117 -3.731512
      ESP Fit Center   85 is at  -0.695722 -1.775796 -3.731512
      ESP Fit Center   86 is at  -0.002757 -1.590117 -3.731512
      ESP Fit Center   87 is at   0.504528 -1.082832 -3.731512
      ESP Fit Center   88 is at   0.054337 -0.389867 -4.156387
      ESP Fit Center   89 is at  -0.320692  0.259704 -4.156387
      ESP Fit Center   90 is at  -1.070752  0.259704 -4.156387
      ESP Fit Center   91 is at  -1.445782 -0.389867 -4.156387
      ESP Fit Center   92 is at  -1.070752 -1.039438 -4.156387
      ESP Fit Center   93 is at  -0.320692 -1.039438 -4.156387
      ESP Fit Center   94 is at  -0.695722 -0.389867 -4.305583
      ESP Fit Center   95 is at  -2.053899 -2.505144 -0.126417
      ESP Fit Center   96 is at  -3.181856  1.213646 -0.811756
      ESP Fit Center   97 is at  -2.425074 -2.834776 -0.811756
      ESP Fit Center   98 is at  -1.694064 -2.626786 -0.811756
      ESP Fit Center   99 is at  -3.181856  1.213646 -1.541078
      ESP Fit Center  100 is at  -3.862201  0.874874 -1.541078
      ESP Fit Center  101 is at  -4.374225  0.313210 -1.541078
      ESP Fit Center  102 is at  -3.862201 -2.425878 -1.541078
      ESP Fit Center  103 is at  -3.181856 -2.764650 -1.541078
      ESP Fit Center  104 is at  -2.425074 -2.834776 -1.541078
      ESP Fit Center  105 is at  -1.694064 -2.626786 -1.541078
      ESP Fit Center  106 is at  -2.805995  1.033189 -2.226417
      ESP Fit Center  107 is at  -3.525221  0.799498 -2.226417
      ESP Fit Center  108 is at  -2.053899 -2.505144 -2.226417
      ESP Fit Center  109 is at  -2.807998  0.560612 -2.785110
      ESP Fit Center  110 is at  -3.652382 -2.551200 -1.675173
      ESP Fit Center  111 is at  -4.297552  0.066358 -2.422843
      ESP Fit Center  112 is at  -4.661867 -0.627787 -2.422843
      ESP Fit Center  113 is at  -4.661867 -1.411727 -2.422843
      ESP Fit Center  114 is at  -4.297552 -2.105872 -2.422843
      ESP Fit Center  115 is at  -3.652382 -2.551200 -2.422843
      ESP Fit Center  116 is at  -2.874158 -2.645694 -2.422843
      ESP Fit Center  117 is at  -2.665695  0.229434 -3.096471
      ESP Fit Center  118 is at  -3.477469  0.229434 -3.096471
      ESP Fit Center  119 is at  -4.134207 -0.247715 -3.096471
      ESP Fit Center  120 is at  -4.385059 -1.019757 -3.096471
      ESP Fit Center  121 is at  -4.134207 -1.791799 -3.096471
      ESP Fit Center  122 is at  -3.477469 -2.268948 -3.096471
      ESP Fit Center  123 is at  -2.665695 -2.268948 -3.096471
      ESP Fit Center  124 is at  -2.008957 -1.791799 -3.096471
      ESP Fit Center  125 is at  -2.342657 -1.019757 -3.562636
      ESP Fit Center  126 is at  -2.707120 -0.388490 -3.562636
      ESP Fit Center  127 is at  -3.436044 -0.388490 -3.562636
      ESP Fit Center  128 is at  -3.800507 -1.019757 -3.562636
      ESP Fit Center  129 is at  -3.436044 -1.651024 -3.562636
      ESP Fit Center  130 is at  -2.707120 -1.651024 -3.562636
      ESP Fit Center  131 is at  -3.071582 -1.019757 -3.729008
      ESP Fit Center  132 is at  -3.582730 -2.687729  1.014228
      ESP Fit Center  133 is at  -3.958591  1.110110  0.328889
      ESP Fit Center  134 is at  -4.638936  0.771338  0.328889
      ESP Fit Center  135 is at  -3.201809 -2.938312  0.328889
      ESP Fit Center  136 is at  -2.470799 -2.730322  0.328889
      ESP Fit Center  137 is at  -3.201809  1.180236 -0.400433
      ESP Fit Center  138 is at  -3.958591  1.110110 -0.400433
      ESP Fit Center  139 is at  -4.638936  0.771338 -0.400433
      ESP Fit Center  140 is at  -3.201809 -2.938312 -0.400433
      ESP Fit Center  141 is at  -2.470799 -2.730322 -0.400433
      ESP Fit Center  142 is at  -4.301956  0.695962 -1.085772
      ESP Fit Center  143 is at  -3.582730 -2.687729 -1.085772
      ESP Fit Center  144 is at  -4.934643 -0.572553  1.785688
      ESP Fit Center  145 is at  -5.309673 -1.222124  1.785688
      ESP Fit Center  146 is at  -4.934643 -1.871695  1.785688
      ESP Fit Center  147 is at  -5.252578 -0.021874  1.360813
      ESP Fit Center  148 is at  -5.759863 -0.529159  1.360813
      ESP Fit Center  149 is at  -5.945542 -1.222124  1.360813
      ESP Fit Center  150 is at  -5.759863 -1.915089  1.360813
      ESP Fit Center  151 is at  -5.252578 -2.422374  1.360813
      ESP Fit Center  152 is at  -4.559613 -2.608053  1.360813
      ESP Fit Center  153 is at  -3.866648 -2.422374  1.360813
      ESP Fit Center  154 is at  -4.748894  0.578760  0.724943
      ESP Fit Center  155 is at  -5.465015  0.346078  0.724943
      ESP Fit Center  156 is at  -6.024584 -0.157760  0.724943
      ESP Fit Center  157 is at  -6.330847 -0.845637  0.724943
      ESP Fit Center  158 is at  -6.330847 -1.598611  0.724943
      ESP Fit Center  159 is at  -6.024584 -2.286488  0.724943
      ESP Fit Center  160 is at  -5.465015 -2.790326  0.724943
      ESP Fit Center  161 is at  -4.748894 -3.023008  0.724943
      ESP Fit Center  162 is at  -4.000044 -2.944301  0.724943
      ESP Fit Center  163 is at  -5.095993  0.663054 -0.025116
      ESP Fit Center  164 is at  -5.740777  0.341990 -0.025116
      ESP Fit Center  165 is at  -6.226039 -0.190317 -0.025116
      ESP Fit Center  166 is at  -6.486240 -0.861975 -0.025116
      ESP Fit Center  167 is at  -6.486240 -1.582273 -0.025116
      ESP Fit Center  168 is at  -6.226039 -2.253931 -0.025116
      ESP Fit Center  169 is at  -5.740777 -2.786238 -0.025116
      ESP Fit Center  170 is at  -5.095993 -3.107302 -0.025116
      ESP Fit Center  171 is at  -4.378767 -3.173763 -0.025116
      ESP Fit Center  172 is at  -3.685966 -2.976644 -0.025116
      ESP Fit Center  173 is at  -4.748894  0.578760 -0.775176
      ESP Fit Center  174 is at  -5.465015  0.346078 -0.775176
      ESP Fit Center  175 is at  -6.024584 -0.157760 -0.775176
      ESP Fit Center  176 is at  -6.330847 -0.845637 -0.775176
      ESP Fit Center  177 is at  -6.330847 -1.598611 -0.775176
      ESP Fit Center  178 is at  -6.024584 -2.286488 -0.775176
      ESP Fit Center  179 is at  -5.465015 -2.790326 -0.775176
      ESP Fit Center  180 is at  -4.748894 -3.023008 -0.775176
      ESP Fit Center  181 is at  -4.000044 -2.944301 -0.775176
      ESP Fit Center  182 is at  -5.252578 -0.021874 -1.411045
      ESP Fit Center  183 is at  -5.759863 -0.529159 -1.411045
      ESP Fit Center  184 is at  -5.945542 -1.222124 -1.411045
      ESP Fit Center  185 is at  -5.759863 -1.915089 -1.411045
      ESP Fit Center  186 is at  -5.252578 -2.422374 -1.411045
      ESP Fit Center  187 is at  -4.559613 -2.608053 -1.411045
      ESP Fit Center  188 is at  -4.934643 -0.572553 -1.835920
      ESP Fit Center  189 is at  -5.309673 -1.222124 -1.835920
      ESP Fit Center  190 is at  -4.934643 -1.871695 -1.835920
      ESP Fit Center  191 is at  -2.880684  1.262100  2.169503
      ESP Fit Center  192 is at  -3.599910  1.028409  2.169503
      ESP Fit Center  193 is at  -2.880684 -2.355282  2.169503
      ESP Fit Center  194 is at  -2.128588 -2.276233  2.169503
      ESP Fit Center  195 is at  -3.256545  1.442557  1.484164
      ESP Fit Center  196 is at  -3.936890  1.103785  1.484164
      ESP Fit Center  197 is at  -4.448914  0.542121  1.484164
      ESP Fit Center  198 is at  -3.256545 -2.535739  1.484164
      ESP Fit Center  199 is at  -2.499763 -2.605865  1.484164
      ESP Fit Center  200 is at  -1.768753 -2.397875  1.484164
      ESP Fit Center  201 is at  -3.256545  1.442557  0.754842
      ESP Fit Center  202 is at  -3.936890  1.103785  0.754842
      ESP Fit Center  203 is at  -1.768753 -2.397875  0.754842
      ESP Fit Center  204 is at  -2.880684  1.262100  0.069503
      ESP Fit Center  205 is at  -3.232888 -0.617562  3.650485
      ESP Fit Center  206 is at  -2.868426  0.013705  3.484113
      ESP Fit Center  207 is at  -3.597350  0.013705  3.484113
      ESP Fit Center  208 is at  -3.961813 -0.617562  3.484113
      ESP Fit Center  209 is at  -3.597350 -1.248829  3.484113
      ESP Fit Center  210 is at  -2.868426 -1.248829  3.484113
      ESP Fit Center  211 is at  -3.638775  0.631629  3.017948
      ESP Fit Center  212 is at  -4.295513  0.154480  3.017948
      ESP Fit Center  213 is at  -4.546365 -0.617562  3.017948
      ESP Fit Center  214 is at  -4.295513 -1.389604  3.017948
      ESP Fit Center  215 is at  -3.638775 -1.866753  3.017948
      ESP Fit Center  216 is at  -2.827001 -1.866753  3.017948
      ESP Fit Center  217 is at  -3.813688  0.913881  2.344320
      ESP Fit Center  218 is at  -4.458858  0.468553  2.344320
      ESP Fit Center  219 is at  -4.823173 -0.225592  2.344320
      ESP Fit Center  220 is at  -4.823173 -1.009532  2.344320
      ESP Fit Center  221 is at  -4.458858 -1.703677  2.344320
      ESP Fit Center  222 is at  -3.813688 -2.149005  2.344320
      ESP Fit Center  223 is at  -3.035464 -2.243499  2.344320
      ESP Fit Center  224 is at   1.867602  1.081382  1.643898
      ESP Fit Center  225 is at   1.541592  2.874757 -2.231147
      ESP Fit Center  226 is at   0.408320  4.149196  1.889674
      ESP Fit Center  227 is at  -0.283542  3.833234  1.889674
      ESP Fit Center  228 is at  -0.308903  4.388082  1.330981
      ESP Fit Center  229 is at  -0.694752  3.193380 -1.327712
      ESP Fit Center  230 is at   1.214579  4.627996  1.351365
      ESP Fit Center  231 is at   0.491307  4.627996  1.351365
      ESP Fit Center  232 is at   1.977221  4.724154  0.941665
      ESP Fit Center  233 is at   1.408117  5.217285  0.941665
      ESP Fit Center  234 is at   0.662749  5.324453  0.941665
      ESP Fit Center  235 is at  -0.022234  5.011632  0.941665
      ESP Fit Center  236 is at   2.599075  4.001624  0.328505
      ESP Fit Center  237 is at   2.426154  4.759242  0.328505
      ESP Fit Center  238 is at   1.941639  5.366805  0.328505
      ESP Fit Center  239 is at   1.241494  5.703977  0.328505
      ESP Fit Center  240 is at   0.464392  5.703977  0.328505
      ESP Fit Center  241 is at  -0.235753  5.366805  0.328505
      ESP Fit Center  242 is at  -0.720268  4.759242  0.328505
      ESP Fit Center  243 is at   2.742943  4.001624 -0.394767
      ESP Fit Center  244 is at   2.599075  4.724896 -0.394767
      ESP Fit Center  245 is at   2.189375  5.338056 -0.394767
      ESP Fit Center  246 is at   1.576215  5.747756 -0.394767
      ESP Fit Center  247 is at   0.852943  5.891624 -0.394767
      ESP Fit Center  248 is at   0.129671  5.747756 -0.394767
      ESP Fit Center  249 is at  -0.483489  5.338056 -0.394767
      ESP Fit Center  250 is at  -0.893189  4.724896 -0.394767
      ESP Fit Center  251 is at   2.599075  3.278352 -0.394767
      ESP Fit Center  252 is at   2.599075  4.001624 -1.118039
      ESP Fit Center  253 is at   2.426154  4.759242 -1.118039
      ESP Fit Center  254 is at   1.941639  5.366805 -1.118039
      ESP Fit Center  255 is at   1.241494  5.703977 -1.118039
      ESP Fit Center  256 is at   0.464392  5.703977 -1.118039
      ESP Fit Center  257 is at  -0.235753  5.366805 -1.118039
      ESP Fit Center  258 is at  -0.720268  4.759242 -1.118039
      ESP Fit Center  259 is at  -0.893189  4.001624 -1.118039
      ESP Fit Center  260 is at   2.189375  4.001624 -1.731199
      ESP Fit Center  261 is at   1.977221  4.724154 -1.731199
      ESP Fit Center  262 is at   1.408117  5.217285 -1.731199
      ESP Fit Center  263 is at   0.662749  5.324453 -1.731199
      ESP Fit Center  264 is at  -0.022234  5.011632 -1.731199
      ESP Fit Center  265 is at  -0.429354  4.378140 -1.731199
      ESP Fit Center  266 is at  -0.429354  3.625108 -1.731199
      ESP Fit Center  267 is at   1.977221  3.279094 -1.731199
      ESP Fit Center  268 is at   1.576215  4.001624 -2.140899
      ESP Fit Center  269 is at   1.214579  4.627996 -2.140899
      ESP Fit Center  270 is at   0.491307  4.627996 -2.140899
      ESP Fit Center  271 is at   0.129671  4.001624 -2.140899
      ESP Fit Center  272 is at   0.491307  3.375252 -2.140899
      ESP Fit Center  273 is at   1.214579  3.375252 -2.140899
      ESP Fit Center  274 is at   0.852943  4.001624 -2.284767
      ESP Fit Center  275 is at   2.243739 -2.435159 -1.412696
      ESP Fit Center  276 is at   0.797778 -1.725669 -1.971389
      ESP Fit Center  277 is at   4.275667 -0.630025  2.129953
      ESP Fit Center  278 is at   4.061382  0.099761  2.129953
      ESP Fit Center  279 is at   3.486563  0.597845  2.129953
      ESP Fit Center  280 is at   4.131102 -1.903208  2.427331
      ESP Fit Center  281 is at   4.866562 -1.903208  2.310845
      ESP Fit Center  282 is at   4.498832 -1.266281  2.310845
      ESP Fit Center  283 is at   3.763372 -2.540135  2.310845
      ESP Fit Center  284 is at   4.498832 -2.540135  2.310845
      ESP Fit Center  285 is at   5.530031 -1.903208  1.972791
      ESP Fit Center  286 is at   5.342610 -1.203743  1.972791
      ESP Fit Center  287 is at   4.830566 -0.691700  1.972791
      ESP Fit Center  288 is at   2.919594 -2.602672  1.972791
      ESP Fit Center  289 is at   3.431637 -3.114716  1.972791
      ESP Fit Center  290 is at   4.131102 -3.302137  1.972791
      ESP Fit Center  291 is at   4.830566 -3.114716  1.972791
      ESP Fit Center  292 is at   5.342610 -2.602672  1.972791
      ESP Fit Center  293 is at   6.056562 -1.903208  1.446260
      ESP Fit Center  294 is at   5.909995 -1.166366  1.446260
      ESP Fit Center  295 is at   5.492608 -0.541702  1.446260
      ESP Fit Center  296 is at   4.867944 -0.124314  1.446260
      ESP Fit Center  297 is at   2.352208 -2.640050  1.446260
      ESP Fit Center  298 is at   2.769596 -3.264714  1.446260
      ESP Fit Center  299 is at   3.394260 -3.682101  1.446260
      ESP Fit Center  300 is at   4.131102 -3.828668  1.446260
      ESP Fit Center  301 is at   4.867944 -3.682101  1.446260
      ESP Fit Center  302 is at   5.492608 -3.264714  1.446260
      ESP Fit Center  303 is at   5.909995 -2.640050  1.446260
      ESP Fit Center  304 is at   6.394616 -1.903208  0.782791
      ESP Fit Center  305 is at   6.271973 -1.168246  0.782791
      ESP Fit Center  306 is at   5.917333 -0.512929  0.782791
      ESP Fit Center  307 is at   5.369127 -0.008269  0.782791
      ESP Fit Center  308 is at   2.140400 -2.980522  0.782791
      ESP Fit Center  309 is at   2.598065 -3.568530  0.782791
      ESP Fit Center  310 is at   3.221858 -3.976074  0.782791
      ESP Fit Center  311 is at   3.944182 -4.158991  0.782791
      ESP Fit Center  312 is at   4.686762 -4.097459  0.782791
      ESP Fit Center  313 is at   5.369127 -3.798146  0.782791
      ESP Fit Center  314 is at   5.917333 -3.293487  0.782791
      ESP Fit Center  315 is at   6.271973 -2.638170  0.782791
      ESP Fit Center  316 is at   6.511102 -1.903208  0.047331
      ESP Fit Center  317 is at   6.405365 -1.201691  0.047331
      ESP Fit Center  318 is at   6.097550 -0.562506  0.047331
      ESP Fit Center  319 is at   5.615008 -0.042449  0.047331
      ESP Fit Center  320 is at   2.386438 -3.522019  0.047331
      ESP Fit Center  321 is at   2.941102 -3.964348  0.047331
      ESP Fit Center  322 is at   3.601502 -4.223536  0.047331
      ESP Fit Center  323 is at   4.308960 -4.276553  0.047331
      ESP Fit Center  324 is at   5.000614 -4.118687  0.047331
      ESP Fit Center  325 is at   5.615008 -3.763967  0.047331
      ESP Fit Center  326 is at   6.097550 -3.243910  0.047331
      ESP Fit Center  327 is at   6.405365 -2.604725  0.047331
      ESP Fit Center  328 is at   6.394616 -1.903208 -0.688130
      ESP Fit Center  329 is at   6.271973 -1.168246 -0.688130
      ESP Fit Center  330 is at   5.917333 -0.512929 -0.688130
      ESP Fit Center  331 is at   5.369127 -0.008269 -0.688130
      ESP Fit Center  332 is at   2.598065 -3.568530 -0.688130
      ESP Fit Center  333 is at   3.221858 -3.976074 -0.688130
      ESP Fit Center  334 is at   3.944182 -4.158991 -0.688130
      ESP Fit Center  335 is at   4.686762 -4.097459 -0.688130
      ESP Fit Center  336 is at   5.369127 -3.798146 -0.688130
      ESP Fit Center  337 is at   5.917333 -3.293487 -0.688130
      ESP Fit Center  338 is at   6.271973 -2.638170 -0.688130
      ESP Fit Center  339 is at   6.056562 -1.903208 -1.351598
      ESP Fit Center  340 is at   5.909995 -1.166366 -1.351598
      ESP Fit Center  341 is at   5.492608 -0.541702 -1.351598
      ESP Fit Center  342 is at   4.867944 -0.124314 -1.351598
      ESP Fit Center  343 is at   4.131102  0.022253 -1.351598
      ESP Fit Center  344 is at   2.352208 -2.640050 -1.351598
      ESP Fit Center  345 is at   2.769596 -3.264714 -1.351598
      ESP Fit Center  346 is at   3.394260 -3.682101 -1.351598
      ESP Fit Center  347 is at   4.131102 -3.828668 -1.351598
      ESP Fit Center  348 is at   4.867944 -3.682101 -1.351598
      ESP Fit Center  349 is at   5.492608 -3.264714 -1.351598
      ESP Fit Center  350 is at   5.909995 -2.640050 -1.351598
      ESP Fit Center  351 is at   5.530031 -1.903208 -1.878130
      ESP Fit Center  352 is at   5.342610 -1.203743 -1.878130
      ESP Fit Center  353 is at   4.830566 -0.691700 -1.878130
      ESP Fit Center  354 is at   4.131102 -0.504279 -1.878130
      ESP Fit Center  355 is at   2.919594 -2.602672 -1.878130
      ESP Fit Center  356 is at   3.431637 -3.114716 -1.878130
      ESP Fit Center  357 is at   4.131102 -3.302137 -1.878130
      ESP Fit Center  358 is at   4.830566 -3.114716 -1.878130
      ESP Fit Center  359 is at   5.342610 -2.602672 -1.878130
      ESP Fit Center  360 is at   4.866562 -1.903208 -2.216184
      ESP Fit Center  361 is at   4.498832 -1.266281 -2.216184
      ESP Fit Center  362 is at   3.763372 -1.266281 -2.216184
      ESP Fit Center  363 is at   3.395641 -1.903208 -2.216184
      ESP Fit Center  364 is at   3.763372 -2.540135 -2.216184
      ESP Fit Center  365 is at   4.498832 -2.540135 -2.216184
      ESP Fit Center  366 is at   4.131102 -1.903208 -2.332669
      ESP Fit Center  367 is at  -1.422227  0.953081  4.697783
      ESP Fit Center  368 is at  -0.693302  0.953081  4.531411
      ESP Fit Center  369 is at  -1.057765  1.584348  4.531411
      ESP Fit Center  370 is at  -1.786689  1.584348  4.531411
      ESP Fit Center  371 is at  -2.151152  0.953081  4.531411
      ESP Fit Center  372 is at  -1.786689  0.321814  4.531411
      ESP Fit Center  373 is at  -0.359602  1.725123  4.065246
      ESP Fit Center  374 is at  -1.016340  2.202272  4.065246
      ESP Fit Center  375 is at  -1.828114  2.202272  4.065246
      ESP Fit Center  376 is at  -2.484852  1.725123  4.065246
      ESP Fit Center  377 is at  -2.735704  0.953081  4.065246
      ESP Fit Center  378 is at  -2.484852  0.181039  4.065246
      ESP Fit Center  379 is at  -0.491806  2.301029  3.391618
      ESP Fit Center  380 is at  -1.224803  2.579018  3.391618
      ESP Fit Center  381 is at  -2.003027  2.484524  3.391618
      ESP Fit Center  382 is at  -2.648197  2.039196  3.391618
      ESP Fit Center  383 is at  -3.012512  1.345051  3.391618
      ESP Fit Center  384 is at  -3.012512  0.561111  3.391618
      ESP Fit Center  385 is at  -0.491806  2.301029  2.643948
      ESP Fit Center  386 is at  -1.224803  2.579018  2.643948
      ESP Fit Center  387 is at  -2.003027  2.484524  2.643948
      ESP Fit Center  388 is at  -2.648197  2.039196  2.643948
      ESP Fit Center  389 is at  -3.012512  1.345051  2.643948
      ESP Fit Center  390 is at  -1.828114  2.202272  1.970320
      ESP Fit Center  391 is at  -2.484852  1.725123  1.970320
      ESP Fit Center  392 is at  -0.925569 -0.737478  4.868531
      ESP Fit Center  393 is at  -0.196644 -0.737478  4.702159
      ESP Fit Center  394 is at  -0.561107 -0.106211  4.702159
      ESP Fit Center  395 is at  -1.290031 -0.106211  4.702159
      ESP Fit Center  396 is at  -1.654494 -0.737478  4.702159
      ESP Fit Center  397 is at  -1.290031 -1.368745  4.702159
      ESP Fit Center  398 is at  -0.561107 -1.368745  4.702159
      ESP Fit Center  399 is at   0.387908 -0.737478  4.235994
      ESP Fit Center  400 is at  -2.239046 -0.737478  4.235994
      ESP Fit Center  401 is at  -1.988194 -1.509520  4.235994
      ESP Fit Center  402 is at  -1.331456 -1.986669  4.235994
      ESP Fit Center  403 is at  -0.519682 -1.986669  4.235994
      ESP Fit Center  404 is at   0.137056 -1.509520  4.235994
      ESP Fit Center  405 is at  -2.515854 -1.129448  3.562366
      ESP Fit Center  406 is at  -2.151539 -1.823593  3.562366
      ESP Fit Center  407 is at  -1.506369 -2.268921  3.562366
      ESP Fit Center  408 is at  -0.728145 -2.363415  3.562366
      ESP Fit Center  409 is at   0.004852 -2.085426  3.562366
      ESP Fit Center  410 is at   0.524701 -1.498638  3.562366
      ESP Fit Center  411 is at  -2.151539 -1.823593  2.814696
      ESP Fit Center  412 is at  -1.506369 -2.268921  2.814696
      ESP Fit Center  413 is at  -0.728145 -2.363415  2.814696
      ESP Fit Center  414 is at   0.004852 -2.085426  2.814696
      ESP Fit Center  415 is at   0.524701 -1.498638  2.814696
      ESP Fit Center  416 is at  -0.519682 -1.986669  2.141068
      ESP Fit Center  417 is at   0.930541  0.448573  4.000965
      ESP Fit Center  418 is at   0.566078  1.079840  4.000965
      ESP Fit Center  419 is at   1.515093  0.448573  3.534800
      ESP Fit Center  420 is at   1.264241  1.220615  3.534800
      ESP Fit Center  421 is at   0.607503  1.697764  3.534800
      ESP Fit Center  422 is at   1.264241 -0.323469  3.534800
      ESP Fit Center  423 is at   1.839495  0.448573  2.861172
      ESP Fit Center  424 is at   1.651886  1.209733  2.861172
      ESP Fit Center  425 is at   1.132037  1.796521  2.861172
      ESP Fit Center  426 is at   0.399040  2.074510  2.861172
      ESP Fit Center  427 is at   1.132037 -0.899375  2.861172
      ESP Fit Center  428 is at   1.651886 -0.312587  2.861172
      ESP Fit Center  429 is at   1.651886  1.209733  2.113502
      ESP Fit Center  430 is at   3.113480  2.495416  0.207048
      ESP Fit Center  431 is at   3.501125  2.484534 -0.466580
      ESP Fit Center  432 is at   2.981276  3.071322 -0.466580
      ESP Fit Center  433 is at   3.688734  1.723374 -1.214250
      ESP Fit Center  434 is at   3.501125  2.484534 -1.214250
      ESP Fit Center  435 is at   2.981276  3.071322 -1.214250
      ESP Fit Center  436 is at   3.501125  0.962214 -1.214250
      ESP Fit Center  437 is at   3.364332  1.723374 -1.887878
      ESP Fit Center  438 is at   3.113480  2.495416 -1.887878
      ESP Fit Center  439 is at   2.456742  2.972565 -1.887878
      ESP Fit Center  440 is at   3.113480  0.951332 -1.887878
      ESP Fit Center  441 is at   2.779780  1.723374 -2.354043
      ESP Fit Center  442 is at   2.415317  2.354641 -2.354043
      ESP Fit Center  443 is at   2.415317  1.092107 -2.354043
      ESP Fit Center  444 is at   2.050855  1.723374 -2.520415
      ESP Fit Center  445 is at  -1.139344  2.121719 -1.206514
      ESP Fit Center  446 is at  -0.129859  3.261192 -1.954184
      ESP Fit Center  447 is at  -0.775029  2.815864 -1.954184
      ESP Fit Center  448 is at  -1.139344  2.121719 -1.954184
      ESP Fit Center  449 is at   1.764418  1.729749 -2.627812
      ESP Fit Center  450 is at   1.513566  2.501791 -2.627812
      ESP Fit Center  451 is at   0.856828  2.978940 -2.627812
      ESP Fit Center  452 is at   0.045054  2.978940 -2.627812
      ESP Fit Center  453 is at  -0.611684  2.501791 -2.627812
      ESP Fit Center  454 is at  -0.862536  1.729749 -2.627812
      ESP Fit Center  455 is at   1.513566  0.957707 -2.627812
      ESP Fit Center  456 is at   1.179866  1.729749 -3.093977
      ESP Fit Center  457 is at   0.815403  2.361016 -3.093977
      ESP Fit Center  458 is at   0.086479  2.361016 -3.093977
      ESP Fit Center  459 is at  -0.277984  1.729749 -3.093977
      ESP Fit Center  460 is at   0.815403  1.098482 -3.093977
      ESP Fit Center  461 is at   0.450941  1.729749 -3.260349
      ESP Fit Center  462 is at  -0.464248  2.785706  2.224087
      ESP Fit Center  463 is at  -0.828710  3.416973  2.057715
      ESP Fit Center  464 is at  -1.193173  2.785706  2.057715
      ESP Fit Center  465 is at  -0.870135  4.034897  1.591550
      ESP Fit Center  466 is at  -1.526873  3.557748  1.591550
      ESP Fit Center  467 is at  -1.777725  2.785706  1.591550
      ESP Fit Center  468 is at  -1.526873  2.013664  1.591550
      ESP Fit Center  469 is at  -1.045048  4.317149  0.917922
      ESP Fit Center  470 is at  -1.690218  3.871821  0.917922
      ESP Fit Center  471 is at  -2.054533  3.177676  0.917922
      ESP Fit Center  472 is at  -2.054533  2.393736  0.917922
      ESP Fit Center  473 is at  -1.045048  4.317149  0.170252
      ESP Fit Center  474 is at  -1.690218  3.871821  0.170252
      ESP Fit Center  475 is at  -2.054533  3.177676  0.170252
      ESP Fit Center  476 is at  -2.054533  2.393736  0.170252
      ESP Fit Center  477 is at  -1.526873  3.557748 -0.503376
      ESP Fit Center  478 is at  -1.777725  2.785706 -0.503376
      ESP Fit Center  479 is at  -1.526873  2.013664 -0.503376
      ESP Fit Center  480 is at  -1.193173  2.785706 -0.969541
      ESP Fit Center  481 is at   1.192457  2.799699  2.884448
      ESP Fit Center  482 is at   1.921382  2.799699  2.718076
      ESP Fit Center  483 is at   1.556919  3.430966  2.718076
      ESP Fit Center  484 is at   0.827995  3.430966  2.718076
      ESP Fit Center  485 is at   0.463532  2.799699  2.718076
      ESP Fit Center  486 is at   0.827995  2.168432  2.718076
[...]
 2757 Fit       0.005052
 2758 Fit       0.003689
 2759 Fit       0.000769
 2760 Fit       0.000973
 2761 Fit       0.003632
 2762 Fit       0.005178
 2763 Fit       0.003613
 2764 Fit      -0.002814
 2765 Fit       0.000041
 2766 Fit       0.005050
 2767 Fit       0.001087
 2768 Fit       0.004792
 2769 Fit       0.002902
 2770 Fit       0.001397
 2771 Fit       0.001391
 2772 Fit       0.002944
 2773 Fit       0.005053
 2774 Fit       0.006452
 2775 Fit       0.006191
 2776 Fit       0.005085
 2777 Fit       0.006902
 2778 Fit       0.007068
 2779 Fit       0.006810
 2780 Fit       0.007024
 2781 Fit       0.007662
 2782 Fit       0.007780
 2783 Fit       0.006141
 2784 Fit       0.001290
 2785 Fit       0.001737
 2786 Fit       0.006521
 2787 Fit       0.008196
 2788 Fit       0.008649
 2789 Fit       0.008412
 2790 Fit       0.006379
 2791 Fit       0.000438
 2792 Fit       0.004076
 2793 Fit       0.007095
 2794 Fit       0.006167
 2795 Fit       0.000313
 2796 Fit       0.002238
 2797 Fit       0.008318
 2798 Fit       0.007183
 2799 Fit       0.001205
 2800 Fit       0.007984
 2801 Fit       0.013215
 2802 Fit       0.012082
 2803 Fit       0.006404
 2804 Fit       0.001030
 2805 Fit       0.007030
 2806 Fit       0.011595
 2807 Fit       0.008108
 2808 Fit       0.002432
 2809 Fit      -0.001313
 2810 Fit       0.004501
 2811 Fit       0.003585
 2812 Fit      -0.002394
 2813 Fit       0.006987
 2814 Fit       0.000962
 2815 Fit      -0.000124
 2816 Fit       0.003287
 2817 Fit       0.005776
 2818 Fit      -0.002094
 2819 Fit      -0.006795
 2820 Fit      -0.008962
 2821 Fit      -0.008933
 2822 Fit      -0.006754
 2823 Fit      -0.002220
 2824 Fit       0.005003
 2825 Fit       0.001854
 2826 Fit      -0.005116
 2827 Fit      -0.009956
 2828 Fit      -0.012996
 2829 Fit      -0.014529
 2830 Fit      -0.014730
 2831 Fit      -0.013635
 2832 Fit      -0.011143
 2833 Fit      -0.007054
 2834 Fit      -0.001139
 2835 Fit       0.004386
 2836 Fit      -0.003031
 2837 Fit      -0.008799
 2838 Fit      -0.012990
 2839 Fit      -0.015821
 2840 Fit      -0.017510
 2841 Fit      -0.018212
 2842 Fit      -0.017998
 2843 Fit      -0.016850
 2844 Fit      -0.014664
 2845 Fit      -0.011267
 2846 Fit      -0.006453
 2847 Fit      -0.000059
 2848 Fit      -0.004030
 2849 Fit      -0.009770
 2850 Fit      -0.014035
 2851 Fit      -0.017026
 2852 Fit      -0.018949
 2853 Fit      -0.019966
 2854 Fit      -0.020176
 2855 Fit      -0.019596
 2856 Fit      -0.018168
 2857 Fit      -0.015761
 2858 Fit      -0.012194
 2859 Fit      -0.007265
 2860 Fit      -0.005924
 2861 Fit      -0.011297
 2862 Fit      -0.015285
 2863 Fit      -0.018082
 2864 Fit      -0.019873
 2865 Fit      -0.020808
 2866 Fit      -0.020971
 2867 Fit      -0.020371
 2868 Fit      -0.018946
 2869 Fit      -0.016567
 2870 Fit      -0.013064
 2871 Fit      -0.008265
 2872 Fit      -0.008481
 2873 Fit      -0.013158
 2874 Fit      -0.016570
 2875 Fit      -0.018872
 2876 Fit      -0.020215
 2877 Fit      -0.020705
 2878 Fit      -0.020381
 2879 Fit      -0.019202
 2880 Fit      -0.017056
 2881 Fit      -0.013788
 2882 Fit      -0.009254
 2883 Fit      -0.003449
 2884 Fit      -0.007750
 2885 Fit      -0.012551
 2886 Fit      -0.015951
 2887 Fit      -0.018066
 2888 Fit      -0.019029
 2889 Fit      -0.018908
 2890 Fit      -0.017669
 2891 Fit      -0.015176
 2892 Fit      -0.011232
 2893 Fit      -0.005676
 2894 Fit      -0.007110
 2895 Fit      -0.011793
 2896 Fit      -0.014605
 2897 Fit      -0.015675
 2898 Fit      -0.015048
 2899 Fit      -0.012587
 2900 Fit      -0.007961
 2901 Fit      -0.006271
 2902 Fit      -0.009256
 2903 Fit      -0.008802
 2904 Fit      -0.004566
 2905 Fit       0.031653
 2906 Fit       0.023646
 2907 Fit       0.026015
 2908 Fit       0.026300
 2909 Fit       0.023035
 2910 Fit       0.019929
 2911 Fit       0.013583
 2912 Fit       0.016938
 2913 Fit       0.019948
 2914 Fit       0.023263
 2915 Fit       0.023372
 2916 Fit       0.019462
 2917 Fit       0.015576
 2918 Fit       0.010497
 2919 Fit       0.008805
 2920 Fit       0.013562
 2921 Fit       0.017120
 2922 Fit       0.020437
 2923 Fit       0.020670
 2924 Fit       0.016618
 2925 Fit       0.012287
 2926 Fit       0.015405
 2927 Fit       0.018509
 2928 Fit       0.016941
 2929 Fit       0.016979
 2930 Fit       0.038100
 2931 Fit       0.037095
 2932 Fit       0.034038
 2933 Fit       0.034594
 2934 Fit       0.033847
 2935 Fit       0.030426
 2936 Fit       0.028833
 2937 Fit       0.029489
 2938 Fit       0.032403
 2939 Fit       0.034193
 2940 Fit       0.029544
 2941 Fit       0.025959
 2942 Fit       0.023350
 2943 Fit       0.022291
 2944 Fit       0.023153
 2945 Fit       0.025641
 2946 Fit       0.029360
 2947 Fit       0.026831
 2948 Fit       0.022513
 2949 Fit       0.018376
 2950 Fit       0.014874
 2951 Fit       0.013018
 2952 Fit       0.013551
 2953 Fit       0.016223
 2954 Fit       0.020024
 2955 Fit       0.011697
 2956 Fit      -0.004323
 2957 Fit      -0.008141
 2958 Fit      -0.004291
 2959 Fit      -0.004700
 2960 Fit      -0.006907
 2961 Fit       0.018067
 2962 Fit       0.023381
 2963 Fit       0.009798
 2964 Fit       0.011409
 2965 Fit       0.015090
 2966 Fit       0.003729
 2967 Fit       0.003428
 2968 Fit       0.005290
 2969 Fit       0.008915
 2970 Fit       0.013913
 2971 Fit       0.002137
 2972 Fit       0.007077
 2973 Fit       0.003348
 2974 Fit       0.003891
 2975 Fit       0.007196
 2976 Fit       0.004435
 2977 Fit       0.001062
 2978 Fit      -0.002045
 2979 Fit      -0.004204
 2980 Fit      -0.004610
 2981 Fit      -0.003338
 2982 Fit      -0.000202
 2983 Fit      -0.000719
 2984 Fit      -0.004773
 2985 Fit      -0.007219
 2986 Fit      -0.008414
 2987 Fit      -0.008552
 2988 Fit      -0.007659
 2989 Fit      -0.005592
 2990 Fit      -0.002062
 2991 Fit       0.002322
 2992 Fit      -0.003263
 2993 Fit      -0.006977
 2994 Fit      -0.009329
 2995 Fit      -0.010675
 2996 Fit      -0.011241
 2997 Fit      -0.011130
 2998 Fit      -0.010322
 2999 Fit      -0.008682
 3000 Fit      -0.005982
 3001 Fit      -0.001917
 3002 Fit      -0.000486
 3003 Fit      -0.005616
 3004 Fit      -0.008957
 3005 Fit      -0.011061
 3006 Fit      -0.012286
 3007 Fit      -0.012868
 3008 Fit      -0.012925
 3009 Fit      -0.012465
 3010 Fit      -0.011398
 3011 Fit      -0.009547
 3012 Fit      -0.006686
 3013 Fit      -0.002551
 3014 Fit      -0.003179
 3015 Fit      -0.007781
 3016 Fit      -0.010701
 3017 Fit      -0.012482
 3018 Fit      -0.013479
 3019 Fit      -0.013916
 3020 Fit      -0.013899
 3021 Fit      -0.013416
 3022 Fit      -0.012355
 3023 Fit      -0.010532
 3024 Fit      -0.007736
 3025 Fit      -0.003771
 3026 Fit      -0.005785
 3027 Fit      -0.009768
 3028 Fit      -0.012223
 3029 Fit      -0.013628
 3030 Fit      -0.014317
 3031 Fit      -0.014483
 3032 Fit      -0.014166
 3033 Fit      -0.013268
 3034 Fit      -0.011602
 3035 Fit      -0.008970
 3036 Fit      -0.005253
 3037 Fit      -0.008169
 3038 Fit      -0.011409
 3039 Fit      -0.013352
 3040 Fit      -0.014335
 3041 Fit      -0.014625
 3042 Fit      -0.014306
 3043 Fit      -0.013278
 3044 Fit      -0.011358
 3045 Fit      -0.008462
 3046 Fit      -0.004792
 3047 Fit      -0.010088
 3048 Fit      -0.012635
 3049 Fit      -0.013993
 3050 Fit      -0.014316
 3051 Fit      -0.013688
 3052 Fit      -0.012023
 3053 Fit      -0.009421
 3054 Fit      -0.011307
 3055 Fit      -0.013221
 3056 Fit      -0.013090
 3057 Fit      -0.011063
 3058 Fit      -0.011665
 3059 Fit      -0.007658
 3060 Fit       0.009545
 3061 Fit       0.013751
 3062 Fit       0.017762
 3063 Fit       0.022009
 3064 Fit       0.010328
 3065 Fit       0.006260
 3066 Fit       0.001459
 3067 Fit       0.006529
 3068 Fit       0.005363
 3069 Fit       0.000982
 3070 Fit      -0.002216
 3071 Fit       0.000984
 3072 Fit       0.006298
 3073 Fit       0.010957
 3074 Fit       0.003971
 3075 Fit      -0.000604
 3076 Fit      -0.002909
 3077 Fit      -0.003416
 3078 Fit      -0.004912
 3079 Fit      -0.002764
 3080 Fit       0.000823
 3081 Fit       0.005891
 3082 Fit       0.008347
 3083 Fit       0.002325
 3084 Fit      -0.001757
 3085 Fit      -0.004219
 3086 Fit      -0.005529
 3087 Fit      -0.006053
 3088 Fit      -0.005902
 3089 Fit      -0.006788
 3090 Fit      -0.005288
 3091 Fit      -0.002669
 3092 Fit       0.001265
 3093 Fit       0.006523
 3094 Fit       0.015676
 3095 Fit       0.008095
 3096 Fit       0.002192
 3097 Fit      -0.001949
 3098 Fit      -0.004591
 3099 Fit      -0.006133
 3100 Fit      -0.006974
 3101 Fit      -0.007416
 3102 Fit      -0.007596
 3103 Fit      -0.007457
 3104 Fit      -0.008011
 3105 Fit      -0.006947
 3106 Fit      -0.004864
 3107 Fit      -0.001499
 3108 Fit       0.003340
 3109 Fit       0.013394
 3110 Fit       0.005989
 3111 Fit       0.000427
 3112 Fit      -0.003341
 3113 Fit      -0.005651
 3114 Fit      -0.006920
 3115 Fit      -0.007553
 3116 Fit      -0.007887
 3117 Fit      -0.008129
 3118 Fit      -0.008328
 3119 Fit      -0.008369
 3120 Fit      -0.008763
 3121 Fit      -0.008107
 3122 Fit      -0.006576
 3123 Fit      -0.003906
 3124 Fit       0.000155
 3125 Fit       0.003726
 3126 Fit      -0.001294
 3127 Fit      -0.004565
 3128 Fit      -0.006487
 3129 Fit      -0.007458
 3130 Fit      -0.007852
 3131 Fit      -0.007992
 3132 Fit      -0.008110
 3133 Fit      -0.008322
 3134 Fit      -0.008611
 3135 Fit      -0.008836
 3136 Fit      -0.009221
 3137 Fit      -0.008845
 3138 Fit      -0.007645
 3139 Fit      -0.005342
 3140 Fit      -0.001671
 3141 Fit       0.003706
 3142 Fit      -0.000031
 3143 Fit      -0.004043
 3144 Fit      -0.006420
 3145 Fit      -0.007626
 3146 Fit      -0.008065
 3147 Fit      -0.008098
 3148 Fit      -0.008025
 3149 Fit      -0.008058
 3150 Fit      -0.008286
 3151 Fit      -0.008674
 3152 Fit      -0.009067
 3153 Fit      -0.009543
 3154 Fit      -0.009363
 3155 Fit      -0.008397
 3156 Fit      -0.006371
 3157 Fit      -0.003034
 3158 Fit       0.001904
 3159 Fit      -0.002074
 3160 Fit      -0.005538
 3161 Fit      -0.007464
 3162 Fit      -0.008315
 3163 Fit      -0.008480
 3164 Fit      -0.008313
 3165 Fit      -0.008110
 3166 Fit      -0.008076
 3167 Fit      -0.008299
 3168 Fit      -0.008739
 3169 Fit      -0.009237
 3170 Fit      -0.009848
 3171 Fit      -0.009767
 3172 Fit      -0.008934
 3173 Fit      -0.007084
 3174 Fit      -0.004002
 3175 Fit       0.000509
 3176 Fit      -0.003182
 3177 Fit      -0.006360
 3178 Fit      -0.008156
 3179 Fit      -0.008927
 3180 Fit      -0.009017
 3181 Fit      -0.008766
 3182 Fit      -0.008474
 3183 Fit      -0.008361
 3184 Fit      -0.008531
 3185 Fit      -0.008955
 3186 Fit      -0.009478
 3187 Fit      -0.010200
 3188 Fit      -0.010103
 3189 Fit      -0.009212
 3190 Fit      -0.007259
 3191 Fit      -0.004076
 3192 Fit       0.000414
 3193 Fit       0.006256
 3194 Fit      -0.006094
 3195 Fit      -0.008177
 3196 Fit      -0.009366
 3197 Fit      -0.009750
 3198 Fit      -0.009603
 3199 Fit      -0.009258
 3200 Fit      -0.009009
 3201 Fit      -0.009035
 3202 Fit      -0.009359
 3203 Fit      -0.009838
 3204 Fit      -0.010598
 3205 Fit      -0.010401
 3206 Fit      -0.009426
 3207 Fit      -0.007446
 3208 Fit      -0.004409
 3209 Fit      -0.000463
 3210 Fit       0.003979
 3211 Fit      -0.008972
 3212 Fit      -0.009884
 3213 Fit      -0.010464
 3214 Fit      -0.010537
 3215 Fit      -0.010277
 3216 Fit      -0.009970
 3217 Fit      -0.009853
 3218 Fit      -0.010014
 3219 Fit      -0.010351
 3220 Fit      -0.010987
 3221 Fit      -0.010564
 3222 Fit      -0.009274
 3223 Fit      -0.007001
 3224 Fit      -0.004030
 3225 Fit      -0.010956
 3226 Fit      -0.011252
 3227 Fit      -0.011328
 3228 Fit      -0.011115
 3229 Fit      -0.010855
 3230 Fit      -0.010785
 3231 Fit      -0.010918
 3232 Fit      -0.011275
 3233 Fit      -0.010475
 3234 Fit      -0.008721
 3235 Fit      -0.006566
 3236 Fit      -0.011503
 3237 Fit      -0.011831
 3238 Fit      -0.011793
 3239 Fit      -0.011579
 3240 Fit      -0.011456
 3241 Fit      -0.011362
 3242 Fit      -0.010125
 3243 Fit      -0.009278
 3244 Fit      -0.010736
 3245 Fit      -0.011788
 3246 Fit      -0.011801
 3247 Fit      -0.011178
 3248 Fit       0.025171
 3249 Fit       0.025632
 3250 Fit       0.027238
 3251 Fit       0.024428
 3252 Fit       0.024623
 3253 Fit       0.025677
 3254 Fit       0.027562
 3255 Fit       0.029952
 3256 Fit       0.024063
 3257 Fit       0.024037
 3258 Fit       0.024659
 3259 Fit       0.025905
 3260 Fit       0.027986
 3261 Fit       0.031154
 3262 Fit       0.034836
 3263 Fit       0.024890
 3264 Fit       0.023953
 3265 Fit       0.023809
 3266 Fit       0.024269
 3267 Fit       0.025241
 3268 Fit       0.026902
 3269 Fit       0.029791
 3270 Fit       0.034722
 3271 Fit       0.024685
 3272 Fit       0.023991
 3273 Fit       0.024150
 3274 Fit       0.024873
 3275 Fit       0.026249
 3276 Fit       0.028908
 3277 Fit       0.024973
 3278 Fit       0.025326
 3279 Fit       0.026428
 3280 Fit       0.026744
 3281 Fit       0.025522
 3282 Fit       0.024675
 3283 Fit       0.027017
 3284 Fit       0.025686
 3285 Fit       0.024557
 3286 Fit       0.024401
 3287 Fit       0.028815
 3288 Fit       0.026802
 3289 Fit       0.025021
 3290 Fit       0.023963
 3291 Fit       0.023754
 3292 Fit       0.034069
 3293 Fit       0.031610
 3294 Fit       0.028499
 3295 Fit       0.026039
 3296 Fit       0.024425
 3297 Fit       0.023490
 3298 Fit       0.023226
 3299 Fit       0.023728
 3300 Fit       0.032824
 3301 Fit       0.028468
 3302 Fit       0.025795
 3303 Fit       0.024188
 3304 Fit       0.023232
 3305 Fit       0.022879
 3306 Fit       0.023329
 3307 Fit       0.027951
 3308 Fit       0.025230
 3309 Fit       0.023742
 3310 Fit       0.022932
 3311 Fit       0.022900
 3312 Fit       0.024182
 3313 Fit       0.025291
 3314 Fit       0.023924
 3315 Fit       0.023257
 3316 Fit       0.023571
 3317 Fit       0.024444
 3318 Fit       0.024404
 3319 Fit       0.024591
 3320 Fit       0.024298
 3321 Fit       0.024494
 3322 Fit       0.025183
 3323 Fit       0.025046
 3324 Fit       0.025188
 3325 Fit       0.011435
 3326 Fit       0.007902
 3327 Fit       0.008341
 3328 Fit       0.004988
 3329 Fit      -0.000519
 3330 Fit       0.006672
 3331 Fit       0.005339
 3332 Fit       0.002530
 3333 Fit      -0.002260
 3334 Fit       0.003926
 3335 Fit       0.002566
 3336 Fit      -0.000454
 3337 Fit      -0.005285
 3338 Fit       0.004084
 3339 Fit       0.001353
 3340 Fit      -0.000220
 3341 Fit       0.001343
 3342 Fit      -0.001569
 3343 Fit       0.004757
 3344 Fit      -0.006030
 3345 Fit      -0.002186
 3346 Fit      -0.000972
 3347 Fit      -0.009551
 3348 Fit      -0.010042
 3349 Fit      -0.008102
 3350 Fit      -0.006184
 3351 Fit      -0.006941
 3352 Fit      -0.007749
 3353 Fit      -0.007053
 3354 Fit      -0.008103
 3355 Fit      -0.008509
 3356 Fit      -0.008891
 3357 Fit      -0.013265
 3358 Fit      -0.012058
 3359 Fit      -0.010054
 3360 Fit      -0.011489
 3361 Fit      -0.015815
 3362 Fit       0.021098
 3363 Fit       0.017304
 3364 Fit       0.022752
 3365 Fit       0.011073
 3366 Fit       0.015351
 3367 Fit       0.020071
 3368 Fit       0.025871
 3369 Fit       0.005014
 3370 Fit       0.009950
 3371 Fit       0.014371
 3372 Fit       0.018876
 3373 Fit       0.006471
 3374 Fit       0.011145
 3375 Fit       0.015451
 3376 Fit       0.005419
 3377 Fit       0.010161
 3378 Fit       0.014672
 3379 Fit       0.006359
 3380 Fit       0.011569
 3381 Fit       0.023198
 3382 Fit       0.021029
 3383 Fit       0.018635
 3384 Fit       0.020396
 3385 Fit       0.019153
 3386 Fit       0.016030
 3387 Fit       0.014444
 3388 Fit       0.015174
 3389 Fit       0.018803
 3390 Fit       0.023509
 3391 Fit       0.017669
 3392 Fit       0.014346
 3393 Fit       0.011681
 3394 Fit       0.010043
 3395 Fit       0.010055
 3396 Fit       0.021507
 3397 Fit       0.016732
 3398 Fit       0.012875
 3399 Fit       0.009420
 3400 Fit       0.006466
 3401 Fit       0.004430
 3402 Fit       0.016473
 3403 Fit       0.011129
 3404 Fit       0.006246
 3405 Fit       0.003577
 3406 Fit      -0.002500
 3407 Fit       0.000018
 3408 Fit      -0.011632
 3409 Fit      -0.006616
 3410 Fit      -0.004634
 3411 Fit      -0.005787
 3412 Fit      -0.014887
 3413 Fit      -0.011009
 3414 Fit      -0.009090
 3415 Fit      -0.009148
 3416 Fit      -0.010294
 3417 Fit      -0.012032
 3418 Fit      -0.015108
 3419 Fit       0.018474
 3420 Fit       0.016679
 3421 Fit       0.011843
 3422 Fit       0.016315
 3423 Fit       0.012223
 3424 Fit       0.007671
 3425 Fit       0.016094
 3426 Fit       0.011860
 3427 Fit       0.007959
 3428 Fit       0.008529
 3429 Fit       0.005014
 3430 Fit       0.000559
 3431 Fit       0.005111
 3432 Fit       0.002503
 3433 Fit      -0.000755
 3434 Fit      -0.002045
 3435 Fit      -0.003833
 3436 Fit       0.017304
 3437 Fit       0.009722
 3438 Fit       0.013103
 3439 Fit       0.016347
 3440 Fit       0.006587
 3441 Fit       0.010222
 3442 Fit       0.013058
 3443 Fit       0.015791
 3444 Fit       0.008594
 3445 Fit       0.011514
 3446 Fit       0.013900
 3447 Fit       0.007474
 3448 Fit       0.010538
 3449 Fit       0.012907
 3450 Fit       0.006930
 3451 Fit       0.010241
 3452 Fit       0.008110
 3453 Fit       0.020388
 3454 Fit       0.016174
 3455 Fit       0.019750
 3456 Fit       0.024332
 3457 Fit       0.025097
 3458 Fit       0.020700
 3459 Fit       0.016359
 3460 Fit       0.012026
 3461 Fit       0.015462
 3462 Fit       0.019761
 3463 Fit       0.024933
 3464 Fit       0.022615
 3465 Fit       0.016628
 3466 Fit       0.012183
 3467 Fit       0.010541
 3468 Fit       0.019903
 3469 Fit       0.024615
 3470 Fit       0.024194
 3471 Fit       0.017582
 3472 Fit       0.020575
 -----------------------------------------------------------------
 Leave Link  602 at Thu Jan 16 22:01:14 2014, MaxMem=   235929600 cpu:         1.7

 Test job not archived.
 1\1\GINC-G25\SP\RHF\Gen\C9H13Cl1F1N3O2\KOLAR\16-Jan-2014\0\\# hf/gen p
 op=mk iop(6/33=2,6/41=5,6/42=2)\\na resp\\0,1\C,0,-0.843883,0.148512,2
 .54634\C,0,-1.367544,-0.147201,1.172254\C,0,-0.636239,-0.052837,0.0235
 13\C,0,-1.264025,-0.402933,-1.262501\O,0,-0.695722,-0.389867,-2.345583
 \N,0,-2.615894,-0.775502,-1.176417\H,0,-3.071582,-1.019757,-2.049008\C
 ,0,-3.392629,-0.879038,-0.035772\O,0,-4.559613,-1.222124,-0.025116\N,0
 ,-2.690583,-0.546591,1.119503\H,0,-3.232888,-0.617562,1.970485\N,0,0.7
 32033,0.351596,0.035205\C,0,0.980843,1.646887,-0.622454\C,0,0.600424,2
 .813082,0.280981\F,0,0.852943,4.001624,-0.394767\C,0,1.681744,-0.70551
 7,-0.362696\C,0,2.925813,-0.630025,0.52126\Cl,0,4.131102,-1.903208,0.0
 47331\H,0,-1.422227,0.953081,3.017783\H,0,-0.925569,-0.737478,3.188531
 \H,0,0.201616,0.448573,2.487337\H,0,2.050855,1.723374,-0.840415\H,0,0.
 450941,1.729749,-1.580349\H,0,-0.464248,2.785706,0.544087\H,0,1.192457
 ,2.799699,1.204448\H,0,1.95675,-0.634028,-1.422234\H,0,1.203437,-1.677
 869,-0.219147\H,0,3.437027,0.330477,0.429234\H,0,2.674987,-0.800222,1.
 569549\\Version=AM64L-G09RevD.01\State=1-A\HF=-1220.3979141\RMSD=9.513
 e-09\Dipole=-0.3541669,0.2121421,2.0422844\Quadrupole=-9.2550218,-2.42
 53798,11.6804015,0.3456979,-1.8696848,1.4571165\PG=C01 [X(C9H13Cl1F1N3
 O2)]\\@


 THE MOST SERIOUS THREAT TO THE SURVIVAL OF MANKIND IS NOT NOW
 IGNORANCE IN THE TRADITIONAL SENSE,
 BUT A MORALLY NEUTRAL, AN INSENSITIVE OR INHIBITED HUMAN INTELLIGENCE.

                     -- MARGO JEFFERSON IN NEWSWEEK, SEPTEMBER 2, 1974
 Job cpu time:       0 days  0 hours 14 minutes 22.6 seconds.
 File lengths (MBytes):  RWF=     37 Int=      0 D2E=      0 Chk=      3 Scr=      1
 Normal termination of Gaussian 09 at Thu Jan 16 22:01:14 2014.
861.90user 0.69system 14:27.78elapsed 99%CPU (0avgtext+0avgdata 603456maxresident)k
71600inputs+269640outputs (6major+172100minor)pagefaults 0swaps
