Linux g54 2.6.38.6-client #1 SMP Tue Jun 12 11:27:21 CEST 2012 x86_64 GNU/Linux
Thu Jan 16 22:36:46 CET 2014

 Entering Gaussian System, Link 0=/usr/local/programs/common/gaussian/gaussian09_d01/arch/amd64-pgi_10.4.0-acml/g09/g09
 Initial command:
 /usr/local/programs/common/gaussian/gaussian09_d01/arch/amd64-pgi_10.4.0-acml/g09/l1.exe "/scratch/kolar/g09_25511/Gau-1685.inp" -scrdir="/scratch/kolar/g09_25511/"
 Entering Link 1 = /usr/local/programs/common/gaussian/gaussian09_d01/arch/amd64-pgi_10.4.0-acml/g09/l1.exe PID=      1691.
  
 Copyright (c) 1988,1990,1992,1993,1995,1998,2003,2009,2013,
            Gaussian, Inc.  All Rights Reserved.
  
 This is part of the Gaussian(R) 09 program.  It is based on
 the Gaussian(R) 03 system (copyright 2003, Gaussian, Inc.),
 the Gaussian(R) 98 system (copyright 1998, Gaussian, Inc.),
 the Gaussian(R) 94 system (copyright 1995, Gaussian, Inc.),
 the Gaussian 92(TM) system (copyright 1992, Gaussian, Inc.),
 the Gaussian 90(TM) system (copyright 1990, Gaussian, Inc.),
 the Gaussian 88(TM) system (copyright 1988, Gaussian, Inc.),
 the Gaussian 86(TM) system (copyright 1986, Carnegie Mellon
 University), and the Gaussian 82(TM) system (copyright 1983,
 Carnegie Mellon University). Gaussian is a federally registered
 trademark of Gaussian, Inc.
  
 This software contains proprietary and confidential information,
 including trade secrets, belonging to Gaussian, Inc.
  
 This software is provided under written license and may be
 used, copied, transmitted, or stored only in accord with that
 written license.
  
 The following legend is applicable only to US Government
 contracts under FAR:
  
                    RESTRICTED RIGHTS LEGEND
  
 Use, reproduction and disclosure by the US Government is
 subject to restrictions as set forth in subparagraphs (a)
 and (c) of the Commercial Computer Software - Restricted
 Rights clause in FAR 52.227-19.
  
 Gaussian, Inc.
 340 Quinnipiac St., Bldg. 40, Wallingford CT 06492
  
  
 ---------------------------------------------------------------
 Warning -- This program may not be used in any manner that
 competes with the business of Gaussian, Inc. or will provide
 assistance to any competitor of Gaussian, Inc.  The licensee
 of this program is prohibited from giving any competitor of
 Gaussian, Inc. access to this program.  By using this program,
 the user acknowledges that Gaussian, Inc. is engaged in the
 business of creating and licensing software in the field of
 computational chemistry and represents and warrants to the
 licensee that it is not a competitor of Gaussian, Inc. and that
 it will not use this program in any manner prohibited above.
 ---------------------------------------------------------------
  

 Cite this work as:
 Gaussian 09, Revision D.01,
 M. J. Frisch, G. W. Trucks, H. B. Schlegel, G. E. Scuseria, 
 M. A. Robb, J. R. Cheeseman, G. Scalmani, V. Barone, B. Mennucci, 
 G. A. Petersson, H. Nakatsuji, M. Caricato, X. Li, H. P. Hratchian, 
 A. F. Izmaylov, J. Bloino, G. Zheng, J. L. Sonnenberg, M. Hada, 
 M. Ehara, K. Toyota, R. Fukuda, J. Hasegawa, M. Ishida, T. Nakajima, 
 Y. Honda, O. Kitao, H. Nakai, T. Vreven, J. A. Montgomery, Jr., 
 J. E. Peralta, F. Ogliaro, M. Bearpark, J. J. Heyd, E. Brothers, 
 K. N. Kudin, V. N. Staroverov, T. Keith, R. Kobayashi, J. Normand, 
 K. Raghavachari, A. Rendell, J. C. Burant, S. S. Iyengar, J. Tomasi, 
 M. Cossi, N. Rega, J. M. Millam, M. Klene, J. E. Knox, J. B. Cross, 
 V. Bakken, C. Adamo, J. Jaramillo, R. Gomperts, R. E. Stratmann, 
 O. Yazyev, A. J. Austin, R. Cammi, C. Pomelli, J. W. Ochterski, 
 R. L. Martin, K. Morokuma, V. G. Zakrzewski, G. A. Voth, 
 P. Salvador, J. J. Dannenberg, S. Dapprich, A. D. Daniels, 
 O. Farkas, J. B. Foresman, J. V. Ortiz, J. Cioslowski, 
 and D. J. Fox, Gaussian, Inc., Wallingford CT, 2013.
 
 ******************************************
 Gaussian 09:  AM64L-G09RevD.01 24-Apr-2013
                16-Jan-2014 
 ******************************************
 %mem=1800mb
 -----------------------------------------
 # hf/gen pop=mk iop(6/33=2,6/41=5,6/42=2)
 -----------------------------------------
 1/38=1/1;
 2/12=2,17=6,18=5,40=1/2;
 3/5=7,11=9,16=1,25=1,30=1/1,2,3;
 4//1;
 5/5=2,38=5/2;
 6/7=2,8=2,9=2,10=2,15=8,20=1,28=1,33=2,41=5,42=2/1,2;
 99/5=1,9=1/99;
 -------
 na resp
 -------
 Symbolic Z-matrix:
 Charge =  0 Multiplicity = 1
 6                    -4.01606  -0.44869  -0.00023 
 6                    -3.78848   0.9292   -0.00014 
 6                    -2.4857    1.41485   0.00007 
 6                    -1.37566   0.54208   0.00012 
 6                    -1.62495  -0.84653  0. 
 6                    -2.9308   -1.32843  -0.00016 
 6                    -0.05678   1.16445   0.00043 
 6                     1.21845   0.7114    0.00028 
 6                     2.32832   1.6882    0.00006 
 8                     3.51038   1.42166  -0.00075 
 35                    1.78025  -1.10463   0.00007 
 1                    -5.03183  -0.83439  -0.0003 
 1                    -4.62447   1.6229   -0.00024 
 1                    -2.31375   2.48859   0.00015 
 1                    -0.79779  -1.54325  -0.00002 
 1                    -3.10171  -2.40136  -0.00022 
 1                    -0.10504   2.2552    0.00081 
 1                     1.97264   2.74199   0.00072 
 
                          Input orientation:                          
 ---------------------------------------------------------------------
 Center     Atomic      Atomic             Coordinates (Angstroms)
 Number     Number       Type             X           Y           Z
 ---------------------------------------------------------------------
      1          6           0       -4.016057   -0.448692   -0.000227
      2          6           0       -3.788477    0.929195   -0.000144
      3          6           0       -2.485698    1.414846    0.000071
      4          6           0       -1.375663    0.542078    0.000118
      5          6           0       -1.624949   -0.846525   -0.000002
      6          6           0       -2.930798   -1.328431   -0.000158
      7          6           0       -0.056775    1.164452    0.000425
      8          6           0        1.218451    0.711399    0.000278
      9          6           0        2.328323    1.688201    0.000060
     10          8           0        3.510384    1.421656   -0.000752
     11         35           0        1.780250   -1.104631    0.000074
     12          1           0       -5.031830   -0.834392   -0.000304
     13          1           0       -4.624469    1.622904   -0.000236
     14          1           0       -2.313754    2.488589    0.000153
     15          1           0       -0.797793   -1.543253   -0.000017
     16          1           0       -3.101709   -2.401362   -0.000215
     17          1           0       -0.105043    2.255197    0.000805
     18          1           0        1.972639    2.741990    0.000723
 ---------------------------------------------------------------------
                    Distance matrix (angstroms):
                    1          2          3          4          5
     1  C    0.000000
     2  C    1.396555   0.000000
     3  C    2.411384   1.390356   0.000000
     4  C    2.820161   2.443672   1.412056   0.000000
     5  C    2.423978   2.798935   2.419646   1.410802   0.000000
     6  C    1.397043   2.415055   2.779151   2.432540   1.391932
     7  C    4.275295   3.739110   2.441795   1.458360   2.550137
     8  C    5.361519   5.011663   3.770352   2.599634   3.242229
     9  C    6.694585   6.163711   4.821776   3.877256   4.696083
    10  O    7.755354   7.315456   5.996086   4.964586   5.613937
    11  Br   5.833304   5.928505   4.954400   3.559696   3.414967
    12  H    1.086535   2.157815   3.397331   3.906690   3.406903
    13  H    2.159091   1.086331   2.148867   3.423876   3.885254
    14  H    3.394916   2.146280   1.087423   2.160768   3.405501
    15  H    3.399307   3.880360   3.405785   2.163918   1.081488
    16  H    2.156143   3.400626   3.865606   3.412195   2.144374
    17  H    4.754687   3.914839   2.524620   2.132898   3.454098
    18  H    6.785642   6.039593   4.651675   4.006337   5.081346
                    6          7          8          9         10
     6  C    0.000000
     7  C    3.804533   0.000000
     8  C    4.623546   1.353314   0.000000
     9  C    6.062872   2.441927   1.478499   0.000000
    10  O    7.003699   3.576420   2.399463   1.211741   0.000000
    11  Br   4.716361   2.919486   1.900943   2.846102   3.061942
    12  H    2.158335   5.361581   6.438593   7.780445   8.835110
    13  H    3.402778   4.590643   5.913591   6.953099   8.137342
    14  H    3.866573   2.616733   3.954096   4.710573   5.921058
    15  H    2.143795   2.807272   3.024681   4.496098   5.229826
    16  H    1.086458   4.688993   5.324759   6.797777   7.637751
    17  H    4.563692   1.091813   2.033457   2.498551   3.710270
    18  H    6.372756   2.570437   2.166125   1.112197   2.026806
                   11         12         13         14         15
    11  Br   0.000000
    12  H    6.817438   0.000000
    13  H    6.961313   2.490833   0.000000
    14  H    5.447210   4.293034   2.467552   0.000000
    15  H    2.615090   4.292966   4.966689   4.307422   0.000000
    16  H    5.051241   2.486114   4.302733   4.953029   2.458532
    17  H    3.852632   5.815393   4.563442   2.221008   3.861104
    18  H    3.851429   7.864674   6.691352   4.293877   5.102803
                   16         17         18
    16  H    0.000000
    17  H    5.537468   0.000000
    18  H    7.225170   2.133947   0.000000
 Stoichiometry    C9H7BrO
 Framework group  C1[X(C9H7BrO)]
 Deg. of freedom    48
 Full point group                 C1      NOp   1
 Largest Abelian subgroup         C1      NOp   1
 Largest concise Abelian subgroup C1      NOp   1
                         Standard orientation:                         
 ---------------------------------------------------------------------
 Center     Atomic      Atomic             Coordinates (Angstroms)
 Number     Number       Type             X           Y           Z
 ---------------------------------------------------------------------
      1          6           0       -4.016057   -0.448692   -0.000227
      2          6           0       -3.788477    0.929195   -0.000144
      3          6           0       -2.485698    1.414846    0.000071
      4          6           0       -1.375663    0.542078    0.000118
      5          6           0       -1.624949   -0.846525   -0.000002
      6          6           0       -2.930798   -1.328431   -0.000158
      7          6           0       -0.056775    1.164452    0.000425
      8          6           0        1.218451    0.711399    0.000278
      9          6           0        2.328323    1.688201    0.000060
     10          8           0        3.510384    1.421657   -0.000752
     11         35           0        1.780250   -1.104631    0.000074
     12          1           0       -5.031830   -0.834392   -0.000304
     13          1           0       -4.624469    1.622904   -0.000236
     14          1           0       -2.313754    2.488589    0.000153
     15          1           0       -0.797793   -1.543253   -0.000017
     16          1           0       -3.101709   -2.401362   -0.000215
     17          1           0       -0.105043    2.255197    0.000805
     18          1           0        1.972639    2.741990    0.000723
 ---------------------------------------------------------------------
 Rotational constants (GHZ):      1.7771726      0.4245136      0.3426619
 General basis read from cards:  (5D, 7F)
 There are   194 symmetry adapted cartesian basis functions of A   symmetry.
 There are   182 symmetry adapted basis functions of A   symmetry.
   182 basis functions,   391 primitive gaussians,   194 cartesian basis functions
    52 alpha electrons       52 beta electrons
       nuclear repulsion energy       785.4051512268 Hartrees.
 NAtoms=   18 NActive=   18 NUniq=   18 SFac= 1.00D+00 NAtFMM=   60 NAOKFM=F Big=F
 Integral buffers will be    131072 words long.
 Raffenetti 1 integral format.
 Two-electron integral symmetry is turned on.
 One-electron integrals computed using PRISM.
 NBasis=   182 RedAO= T EigKep=  4.59D-04  NBF=   182
 NBsUse=   182 1.00D-06 EigRej= -1.00D+00 NBFU=   182
 ExpMin= 1.43D-01 ExpMax= 5.74D+05 ExpMxC= 5.74D+03 IAcc=2 IRadAn=         4 AccDes= 0.00D+00
 Harris functional with IExCor=  205 and IRadAn=       4 diagonalized for initial guess.
 HarFok:  IExCor=  205 AccDes= 0.00D+00 IRadAn=         4 IDoV= 1 UseB2=F ITyADJ=14
 ICtDFT=  3500011 ScaDFX=  1.000000  1.000000  1.000000  1.000000
 FoFCou: FMM=F IPFlag=           0 FMFlag=      100000 FMFlg1=           0
         NFxFlg=           0 DoJE=T BraDBF=F KetDBF=T FulRan=T
         wScrn=  0.000000 ICntrl=     500 IOpCl=  0 I1Cent=   200000004 NGrid=           0
         NMat0=    1 NMatS0=      1 NMatT0=    0 NMatD0=    1 NMtDS0=    0 NMtDT0=    0
 Petite list used in FoFCou.
 Keep R1 ints in memory in canonical form, NReq=142510941.
 Requested convergence on RMS density matrix=1.00D-08 within 128 cycles.
 Requested convergence on MAX density matrix=1.00D-06.
 Requested convergence on             energy=1.00D-06.
 No special actions if energy rises.
 SCF Done:  E(RHF) =  -2989.31284580     A.U. after   15 cycles
            NFock= 15  Conv=0.79D-08     -V/T= 1.9990

 **********************************************************************

            Population analysis using the SCF density.

 **********************************************************************

 Orbital symmetries:
 BldTbl:  Degeneracy threshold= 1.00D-02
       Occupied  (A) (A) (A) (A) (A) (A) (A) (A) (A) (A) (A) (A)
                 (A) (A) (A) (A) (A) (A) (A) (A) (A) (A) (A) (A)
                 (A) (A) (A) (A) (A) (A) (A) (A) (A) (A) (A) (A)
                 (A) (A) (A) (A) (A) (A) (A) (A) (A) (A) (A) (A)
                 (A) (A) (A) (A)
       Virtual   (A) (A) (A) (A) (A) (A) (A) (A) (A) (A) (A) (A)
                 (A) (A) (A) (A) (A) (A) (A) (A) (A) (A) (A) (A)
                 (A) (A) (A) (A) (A) (A) (A) (A) (A) (A) (A) (A)
                 (A) (A) (A) (A) (A) (A) (A) (A) (A) (A) (A) (A)
                 (A) (A) (A) (A) (A) (A) (A) (A) (A) (A) (A) (A)
                 (A) (A) (A) (A) (A) (A) (A) (A) (A) (A) (A) (A)
                 (A) (A) (A) (A) (A) (A) (A) (A) (A) (A) (A) (A)
                 (A) (A) (A) (A) (A) (A) (A) (A) (A) (A) (A) (A)
                 (A) (A) (A) (A) (A) (A) (A) (A) (A) (A) (A) (A)
                 (A) (A) (A) (A) (A) (A) (A) (A) (A) (A) (A) (A)
                 (A) (A) (A) (A) (A) (A) (A) (A) (A) (A)
 The electronic state is 1-A.
 Alpha  occ. eigenvalues -- -489.84828 -64.39211 -58.55887 -58.55716 -58.55705
 Alpha  occ. eigenvalues --  -20.56806 -11.34715 -11.30920 -11.29473 -11.26913
 Alpha  occ. eigenvalues --  -11.26141 -11.25814 -11.25471 -11.25203 -11.25014
 Alpha  occ. eigenvalues --   -9.66976  -7.48557  -7.47658  -7.47631  -3.22883
 Alpha  occ. eigenvalues --   -3.22460  -3.22423  -3.21387  -3.21385  -1.39480
 Alpha  occ. eigenvalues --   -1.17838  -1.12653  -1.04769  -1.03208  -0.98471
 Alpha  occ. eigenvalues --   -0.90222  -0.84654  -0.82180  -0.75540  -0.71350
 Alpha  occ. eigenvalues --   -0.68654  -0.67131  -0.63750  -0.62045  -0.60458
 Alpha  occ. eigenvalues --   -0.59812  -0.55915  -0.53045  -0.52479  -0.52123
 Alpha  occ. eigenvalues --   -0.50745  -0.46202  -0.43312  -0.41095  -0.40065
 Alpha  occ. eigenvalues --   -0.35201  -0.32105
 Alpha virt. eigenvalues --    0.04720   0.12680   0.16064   0.16201   0.22359
 Alpha virt. eigenvalues --    0.23977   0.24640   0.27781   0.29408   0.30165
 Alpha virt. eigenvalues --    0.32690   0.33738   0.35526   0.38805   0.44483
 Alpha virt. eigenvalues --    0.45262   0.45975   0.49137   0.50538   0.54086
 Alpha virt. eigenvalues --    0.55695   0.61939   0.64323   0.64554   0.66013
 Alpha virt. eigenvalues --    0.67724   0.68705   0.69043   0.71640   0.73956
 Alpha virt. eigenvalues --    0.74824   0.75512   0.76328   0.76488   0.78503
 Alpha virt. eigenvalues --    0.79849   0.80950   0.81777   0.82321   0.83085
 Alpha virt. eigenvalues --    0.83320   0.86498   0.86907   0.89507   0.92818
 Alpha virt. eigenvalues --    0.93581   0.96750   0.99349   1.01461   1.03539
 Alpha virt. eigenvalues --    1.05361   1.07916   1.09256   1.09826   1.11673
 Alpha virt. eigenvalues --    1.13058   1.14223   1.15717   1.16156   1.19285
 Alpha virt. eigenvalues --    1.21468   1.22657   1.26558   1.28784   1.29872
 Alpha virt. eigenvalues --    1.29927   1.33480   1.36454   1.38268   1.41012
 Alpha virt. eigenvalues --    1.43322   1.45871   1.48642   1.52894   1.54459
 Alpha virt. eigenvalues --    1.60625   1.61275   1.68378   1.68575   1.69748
 Alpha virt. eigenvalues --    1.73694   1.75159   1.77183   1.78179   1.82503
 Alpha virt. eigenvalues --    1.90221   1.96832   2.03480   2.07159   2.08621
 Alpha virt. eigenvalues --    2.10411   2.10861   2.13506   2.17469   2.18318
 Alpha virt. eigenvalues --    2.20985   2.25783   2.28877   2.32231   2.35976
 Alpha virt. eigenvalues --    2.37275   2.38892   2.43743   2.43848   2.46450
 Alpha virt. eigenvalues --    2.51837   2.52705   2.57318   2.57581   2.61871
 Alpha virt. eigenvalues --    2.63646   2.66231   2.76882   2.83102   2.86083
 Alpha virt. eigenvalues --    2.90299   2.93519   2.98017   2.98024   3.02719
 Alpha virt. eigenvalues --    3.09053   3.09718   3.12382   3.17022   3.30696
 Alpha virt. eigenvalues --    3.33981   3.37996   3.56828   3.77956   9.22595
          Condensed to atoms (all electrons):
               1          2          3          4          5          6
     1  C    4.884835   0.545848  -0.044513  -0.026711  -0.043619   0.542336
     2  C    0.545848   4.902513   0.544395  -0.039223  -0.035288  -0.041035
     3  C   -0.044513   0.544395   4.932680   0.540147  -0.038058  -0.037231
     4  C   -0.026711  -0.039223   0.540147   4.745942   0.555651  -0.036179
     5  C   -0.043619  -0.035288  -0.038058   0.555651   4.943667   0.535546
     6  C    0.542336  -0.041035  -0.037231  -0.036179   0.535546   4.913566
     7  C    0.000016   0.003431  -0.041616   0.380943  -0.041521   0.003918
     8  C    0.000019  -0.000141   0.002703  -0.037226  -0.008087   0.000015
     9  C    0.000000   0.000000  -0.000138   0.002660   0.000028   0.000001
    10  O    0.000000   0.000000   0.000000  -0.000054   0.000001   0.000000
    11  Br   0.000002  -0.000014   0.000119   0.002365  -0.019364   0.000382
    12  H    0.381438  -0.029555   0.002448   0.000212   0.002355  -0.029160
    13  H   -0.028440   0.382245  -0.028570   0.001656   0.000196   0.002291
    14  H    0.002337  -0.026512   0.378964  -0.037514   0.002548   0.000105
    15  H    0.002152   0.000044   0.002553  -0.026917   0.369792  -0.025975
    16  H   -0.029131   0.002262   0.000316   0.001456  -0.027939   0.382704
    17  H   -0.000001   0.000280  -0.001126  -0.036568   0.002454  -0.000087
    18  H    0.000000   0.000000  -0.000023   0.000739   0.000012   0.000000
               7          8          9         10         11         12
     1  C    0.000016   0.000019   0.000000   0.000000   0.000002   0.381438
     2  C    0.003431  -0.000141   0.000000   0.000000  -0.000014  -0.029555
     3  C   -0.041616   0.002703  -0.000138   0.000000   0.000119   0.002448
     4  C    0.380943  -0.037226   0.002660  -0.000054   0.002365   0.000212
     5  C   -0.041521  -0.008087   0.000028   0.000001  -0.019364   0.002355
     6  C    0.003918   0.000015   0.000001   0.000000   0.000382  -0.029160
     7  C    5.029829   0.524325  -0.024059   0.001329  -0.069191   0.000002
     8  C    0.524325   5.284341   0.273547  -0.073008   0.303890   0.000000
     9  C   -0.024059   0.273547   4.466104   0.570010  -0.062671   0.000000
    10  O    0.001329  -0.073008   0.570010   8.052233   0.004192   0.000000
    11  Br  -0.069191   0.303890  -0.062671   0.004192  34.921156   0.000000
    12  H    0.000002   0.000000   0.000000   0.000000   0.000000   0.457543
    13  H   -0.000103   0.000001   0.000000   0.000000   0.000000  -0.001287
    14  H   -0.001447   0.000174   0.000000   0.000000   0.000008  -0.000100
    15  H   -0.002925   0.000036   0.000102   0.000002   0.012640  -0.000086
    16  H   -0.000107   0.000000   0.000000   0.000000  -0.000008  -0.001281
    17  H    0.383034  -0.048895  -0.000668   0.000124   0.002877   0.000000
    18  H    0.016075  -0.125302   0.409108  -0.045436   0.003449   0.000000
              13         14         15         16         17         18
     1  C   -0.028440   0.002337   0.002152  -0.029131  -0.000001   0.000000
     2  C    0.382245  -0.026512   0.000044   0.002262   0.000280   0.000000
     3  C   -0.028570   0.378964   0.002553   0.000316  -0.001126  -0.000023
     4  C    0.001656  -0.037514  -0.026917   0.001456  -0.036568   0.000739
     5  C    0.000196   0.002548   0.369792  -0.027939   0.002454   0.000012
     6  C    0.002291   0.000105  -0.025975   0.382704  -0.000087   0.000000
     7  C   -0.000103  -0.001447  -0.002925  -0.000107   0.383034   0.016075
     8  C    0.000001   0.000174   0.000036   0.000000  -0.048895  -0.125302
     9  C    0.000000   0.000000   0.000102   0.000000  -0.000668   0.409108
    10  O    0.000000   0.000000   0.000002   0.000000   0.000124  -0.045436
    11  Br   0.000000   0.000008   0.012640  -0.000008   0.002877   0.003449
    12  H   -0.001287  -0.000100  -0.000086  -0.001281   0.000000   0.000000
    13  H    0.458235  -0.001420   0.000008  -0.000100  -0.000012   0.000000
    14  H   -0.001420   0.464292  -0.000095   0.000010   0.004560   0.000007
    15  H    0.000008  -0.000095   0.413196  -0.000975  -0.000021   0.000003
    16  H   -0.000100   0.000010  -0.000975   0.455857   0.000002   0.000000
    17  H   -0.000012   0.004560  -0.000021   0.000002   0.465029   0.004870
    18  H    0.000000   0.000007   0.000003   0.000000   0.004870   0.569506
 Mulliken charges:
               1
     1  C   -0.186569
     2  C   -0.209249
     3  C   -0.213052
     4  C    0.008623
     5  C   -0.198373
     6  C   -0.211197
     7  C   -0.161934
     8  C   -0.096391
     9  C    0.365977
    10  O   -0.509394
    11  Br  -0.099833
    12  H    0.217470
    13  H    0.215298
    14  H    0.214082
    15  H    0.256465
    16  H    0.216936
    17  H    0.224149
    18  H    0.166992
 Sum of Mulliken charges =   0.00000
 Mulliken charges with hydrogens summed into heavy atoms:
               1
     1  C    0.030901
     2  C    0.006049
     3  C    0.001030
     4  C    0.008623
     5  C    0.058092
     6  C    0.005739
     7  C    0.062215
     8  C   -0.096391
     9  C    0.532969
    10  O   -0.509394
    11  Br  -0.099833
 DipInt: DoE/N= T F RetVal/Mat= T F Init=T NMatP=  1 IDeriv=0 Min/MaxMlt=  0  4
 Entering OneElI...
 OneElI was handed   235830692 working-precision words.
 Multipole integrals L=0 to 4 MinM= 0 MaxM= 0.
 Requested accuracy = 0.1000D-12
 ShPair: Thresh= 1.00D-13 NBox=     0 BxSize= 0.00D+00 RnKept= 1.67D+01
         NSMCal=                 2211 NSMKep=                1929
 PrsmSu:  NPrtUS=   1 ThrOK=F IAlg=1 NPAlg=1 LenDen=           0.
 Prism:   IPart=     0 DynPar=F LinDyn=F Incr=          19.
 PRISM was handed   235646530 working-precision words and  1929 shell-pairs
 IPart=  0 NShTot=        1929 NBatch=         107 AvBLen=        18.0
 PrSmSu:  NxtVal=             20.
 Electronic moments (au):
       -104.00000000         -2.16317408          0.46493769          0.00072488
      -2261.27761571       -593.28066492        -59.73714176         -1.96848681
          0.00519532          0.00327244       4182.55750706       -400.74280854
         -0.00163564       -291.24856208       -758.22705765          0.77334786
         49.47783343        -14.34020331         -0.01108923          0.25453948
     -90738.99400451      -6363.93154814       -226.31232564      -5120.23640963
          0.46774054      -1240.88052130         -0.18062665         -0.02696561
         -0.02046963     -12967.88268439      -1398.99150015       -377.72365163
          1.14331186          0.18877150        -32.21434621
 Electronic spatial extent (au):  <R**2>=           2914.2954
 DipInt: DoE/N= F T RetVal/Mat= T F Init=T NMatP=  1 IDeriv=0 Min/MaxMlt=  0  4
 Nuclear    moments (au):
        104.00000000          0.00000000          0.00000000          0.00000000
       2199.32502225        544.49608156          0.00002989          0.00000000
          0.00005514          0.00002209      -4256.09088878        367.75769912
         -0.00000001        307.47435781        713.51034799         -0.75105674
          0.00009769          0.00007132          0.02050901         -0.24198888
      83183.92639233       4644.89979921          0.00000000       4753.05428458
         -0.19293984       1101.59553537          0.22010876         -0.00000013
         -0.00000002      11463.63670049          0.00091475          0.00024881
         -1.05574241         -0.14643583          0.00033169
 Total      moments (au):
          0.00000000         -2.16317408          0.46493769          0.00072488
        -61.95259346        -48.78458336        -59.73711187         -1.96848681
          0.00525047          0.00329454        -73.53338171        -32.98510942
         -0.00163566         16.22579573        -44.71670966          0.02229111
         49.47793112        -14.34013199          0.00941978          0.01255060
      -7555.06761217      -1719.03174893       -226.31232564       -367.18212505
          0.27480070       -139.28498594          0.03948210         -0.02696574
         -0.02046966      -1504.24598390      -1398.99058540       -377.72340282
          0.08756945          0.04233567        -32.21401452
 Traceless Quadrup. (au):
         -5.12783057          8.04017954         -2.91234897         -1.96848681
          0.00525047          0.00329454
 Charge=              0.0000 electrons
 Dipole moment (field-independent basis, Debye):
    X=             -5.4982    Y=              1.1818    Z=              0.0018  Tot=              5.6238
 Quadrupole moment (field-independent basis, Debye-Ang):
   XX=            -83.3284   YY=            -65.6169   ZZ=            -80.3485
   XY=             -2.6477   XZ=              0.0071   YZ=              0.0044
 Traceless Quadrupole moment (field-independent basis, Debye-Ang):
   XX=             -6.8971   YY=             10.8143   ZZ=             -3.9172
   XY=             -2.6477   XZ=              0.0071   YZ=              0.0044
 Octapole moment (field-independent basis, Debye-Ang**2):
  XXX=            -52.3382  YYY=            -23.4775  ZZZ=             -0.0012  XYY=             11.5489
  XXY=            -31.8276  XXZ=              0.0159  XZZ=             35.2165  YZZ=            -10.2068
  YYZ=              0.0067  XYZ=              0.0089
 Hexadecapole moment (field-independent basis, Debye-Ang**3):
 XXXX=          -2845.6006 YYYY=           -647.4697 ZZZZ=            -85.2401 XXXY=           -138.2984
 XXXZ=              0.1035 YYYX=            -52.4614 YYYZ=              0.0149 ZZZX=             -0.0102
 ZZZY=             -0.0077 XXYY=           -566.5711 XXZZ=           -526.9269 YYZZ=           -142.2687
 XXYZ=              0.0330 YYXZ=              0.0159 ZZXY=            -12.1333
 N-N= 7.854051512268D+02 E-N=-8.702090048397D+03  KE= 2.992327630515D+03
 Entering OneElI...
 OneElI was handed   235853487 working-precision words.
 Calculate electrostatic properties
    NBasis =   182  MinDer = 0  MaxDer = 0
    NGrid  =    18  NMatD  =   1
 Requested accuracy = 0.1000D-12
 ShPair: Thresh= 1.00D-13 NBox=     0 BxSize= 0.00D+00 RnKept= 1.54D+01
         NSMCal=                 2211 NSMKep=                1755
 PrsmSu:  NPrtUS=   1 ThrOK=F IAlg=1 NPAlg=1 LenDen=           0.
 Prism:   IPart=     0 DynPar=F LinDyn=F Incr=         315.
 PRISM was handed   235685410 working-precision words and  1755 shell-pairs
 IPart=  0 NShTot=       31590 NBatch=        1757 AvBLen=        18.0
 PrSmSu:  NxtVal=            316.
 --------------------------------------------------------
       Center         ----      EFG at Nuclei      ----
                      3XX-RR        3YY-RR        3ZZ-RR
 --------------------------------------------------------
     1   Atom        0.171412      0.213722     -0.385134
     2   Atom        0.151209      0.164433     -0.315643
     3   Atom        0.226782      0.131867     -0.358648
     4   Atom        0.069018      0.178659     -0.247676
     5   Atom        0.223102      0.171188     -0.394291
     6   Atom        0.184968      0.139667     -0.324635
     7   Atom        0.255118      0.183517     -0.438635
     8   Atom        0.292286     -0.281804     -0.010482
     9   Atom        0.300147      0.263231     -0.563379
    10   Atom       -0.493845      1.924327     -1.430482
    11   Atom        2.710613     -6.079079      3.368466
    12   Atom       -0.250742      0.087050      0.163693
    13   Atom       -0.124847     -0.041801      0.166648
    14   Atom        0.126895     -0.293739      0.166844
    15   Atom       -0.117100     -0.047918      0.165018
    16   Atom        0.130803     -0.297070      0.166267
    17   Atom        0.126417     -0.289623      0.163206
    18   Atom        0.082367     -0.216339      0.133972
 --------------------------------------------------------
                        XY            XZ            YZ
 --------------------------------------------------------
     1   Atom       -0.021525      0.000050      0.000018
     2   Atom        0.023615      0.000059      0.000020
     3   Atom        0.008512      0.000099      0.000027
     4   Atom       -0.047073      0.000036      0.000033
     5   Atom       -0.008209      0.000055      0.000048
     6   Atom       -0.004969      0.000038      0.000021
     7   Atom       -0.013567      0.000019      0.000200
     8   Atom        0.095043      0.000005     -0.000080
     9   Atom       -0.030919     -0.000546      0.000344
    10   Atom        0.553267     -0.000359      0.000976
    11   Atom        3.038400     -0.000030     -0.000644
    12   Atom       -0.149785     -0.000033     -0.000012
    13   Atom        0.221728     -0.000032      0.000022
    14   Atom       -0.071444     -0.000010     -0.000037
    15   Atom        0.219362      0.000000     -0.000004
    16   Atom       -0.070283     -0.000006     -0.000025
    17   Atom        0.017319      0.000006     -0.000150
    18   Atom        0.116455      0.000075     -0.000217
 --------------------------------------------------------


 ---------------------------------------------------------------------------------
              Nuclear Quadrupole Coupling Constant in Principal Axis System
 ---------------------------------------------------------------------------------

       Atom             a.u.   MegaHertz   Gauss  10(-4) cm-1        Axes

              Baa    -7.0271   516.803   184.408   172.387 -0.2979  0.9546  0.0001
    11 Br(79) Bbb     3.3685  -247.730   -88.396   -82.634  0.0007  0.0002  1.0000
              Bcc     3.6587  -269.073   -96.012   -89.753  0.9546  0.2979 -0.0008
 

 ---------------------------------------------------------------------------------

 No NMR shielding tensors so no spin-rotation constants.
 Leave Link  601 at Thu Jan 16 22:37:11 2014, MaxMem=   235929600 cpu:         0.3
 FitSet:  NAtFit=    18 NAtPot=    18 NAtFrz=     0 MDM=    22 TotChg=   0.00000
 Merz-Kollman atomic radii used.
 Atom Element Radius
    1     6    1.50
    2     6    1.50
    3     6    1.50
    4     6    1.50
    5     6    1.50
    6     6    1.50
    7     6    1.50
    8     6    1.50
    9     6    1.50
   10     8    1.40
   11    35    2.30
   12     1    1.20
   13     1    1.20
   14     1    1.20
   15     1    1.20
   16     1    1.20
   17     1    1.20
   18     1    1.20
 Generate VDW surfaces: Layer= 5 Dens= 2 Start= 1.400 Inc= 0.179

 **********************************************************************

            Electrostatic Properties Using The SCF Density

 **********************************************************************

       Atomic Center    1 is at  -4.016057 -0.448692 -0.000227
       Atomic Center    2 is at  -3.788477  0.929195 -0.000144
       Atomic Center    3 is at  -2.485698  1.414846  0.000071
       Atomic Center    4 is at  -1.375663  0.542078  0.000118
       Atomic Center    5 is at  -1.624949 -0.846525 -0.000002
       Atomic Center    6 is at  -2.930798 -1.328431 -0.000158
       Atomic Center    7 is at  -0.056775  1.164452  0.000425
       Atomic Center    8 is at   1.218451  0.711399  0.000278
       Atomic Center    9 is at   2.328323  1.688201  0.000060
       Atomic Center   10 is at   3.510384  1.421657 -0.000752
       Atomic Center   11 is at   1.780250 -1.104631  0.000074
       Atomic Center   12 is at  -5.031830 -0.834392 -0.000304
       Atomic Center   13 is at  -4.624469  1.622904 -0.000236
       Atomic Center   14 is at  -2.313754  2.488589  0.000153
       Atomic Center   15 is at  -0.797793 -1.543253 -0.000017
       Atomic Center   16 is at  -3.101709 -2.401362 -0.000215
       Atomic Center   17 is at  -0.105043  2.255197  0.000805
       Atomic Center   18 is at   1.972639  2.741990  0.000723
      ESP Fit Center   19 is at  -4.016057 -0.448692  2.099773
      ESP Fit Center   20 is at  -3.297815 -0.448692  1.973127
      ESP Fit Center   21 is at  -3.656936  0.173324  1.973127
      ESP Fit Center   22 is at  -4.375178  0.173324  1.973127
      ESP Fit Center   23 is at  -4.734299 -0.448692  1.973127
      ESP Fit Center   24 is at  -4.375178 -1.070708  1.973127
      ESP Fit Center   25 is at  -3.656936 -1.070708  1.973127
      ESP Fit Center   26 is at  -5.311232 -0.068394  1.608466
      ESP Fit Center   27 is at  -4.900023 -1.468844  1.608466
      ESP Fit Center   28 is at  -4.208161 -1.784807  1.608466
      ESP Fit Center   29 is at  -5.311232 -0.068394 -1.608920
      ESP Fit Center   30 is at  -4.900023 -1.468844 -1.608920
      ESP Fit Center   31 is at  -4.208161 -1.784807 -1.608920
      ESP Fit Center   32 is at  -3.297815 -0.448692 -1.973582
      ESP Fit Center   33 is at  -3.656936  0.173324 -1.973582
      ESP Fit Center   34 is at  -4.375178  0.173324 -1.973582
      ESP Fit Center   35 is at  -4.734299 -0.448692 -1.973582
      ESP Fit Center   36 is at  -4.375178 -1.070708 -1.973582
      ESP Fit Center   37 is at  -3.656936 -1.070708 -1.973582
      ESP Fit Center   38 is at  -4.016057 -0.448692 -2.100227
      ESP Fit Center   39 is at  -3.788477  0.929195  2.099856
      ESP Fit Center   40 is at  -3.070235  0.929195  1.973210
      ESP Fit Center   41 is at  -3.429356  1.551211  1.973210
      ESP Fit Center   42 is at  -4.147598  1.551211  1.973210
      ESP Fit Center   43 is at  -4.506719  0.929195  1.973210
      ESP Fit Center   44 is at  -4.147598  0.307179  1.973210
      ESP Fit Center   45 is at  -3.429356  0.307179  1.973210
      ESP Fit Center   46 is at  -3.980581  2.265309  1.608549
      ESP Fit Center   47 is at  -5.083653  1.309493  1.608549
      ESP Fit Center   48 is at  -5.083653  0.548897  1.608549
      ESP Fit Center   49 is at  -5.567389  0.551076  1.049856
      ESP Fit Center   50 is at  -5.567389  0.551076 -1.050144
      ESP Fit Center   51 is at  -3.980581  2.265309 -1.608837
      ESP Fit Center   52 is at  -5.083653  1.309493 -1.608837
      ESP Fit Center   53 is at  -5.083653  0.548897 -1.608837
      ESP Fit Center   54 is at  -3.070235  0.929195 -1.973499
      ESP Fit Center   55 is at  -3.429356  1.551211 -1.973499
      ESP Fit Center   56 is at  -4.147598  1.551211 -1.973499
      ESP Fit Center   57 is at  -4.506719  0.929195 -1.973499
      ESP Fit Center   58 is at  -4.147598  0.307179 -1.973499
      ESP Fit Center   59 is at  -3.429356  0.307179 -1.973499
      ESP Fit Center   60 is at  -3.788477  0.929195 -2.100144
      ESP Fit Center   61 is at  -2.485698  1.414846  2.100071
      ESP Fit Center   62 is at  -1.767456  1.414846  1.973425
      ESP Fit Center   63 is at  -2.126577  2.036862  1.973425
      ESP Fit Center   64 is at  -2.844819  2.036862  1.973425
      ESP Fit Center   65 is at  -3.203940  1.414846  1.973425
      ESP Fit Center   66 is at  -2.844819  0.792830  1.973425
      ESP Fit Center   67 is at  -2.126577  0.792830  1.973425
      ESP Fit Center   68 is at  -1.350129  2.144632  1.608764
      ESP Fit Center   69 is at  -3.369665  2.434998  1.608764
      ESP Fit Center   70 is at  -2.677802  0.078732  1.608764
      ESP Fit Center   71 is at  -1.350129  2.144632 -1.608622
      ESP Fit Center   72 is at  -3.369665  2.434998 -1.608622
      ESP Fit Center   73 is at  -2.677802  0.078732 -1.608622
      ESP Fit Center   74 is at  -1.767456  1.414846 -1.973284
      ESP Fit Center   75 is at  -2.126577  2.036862 -1.973284
      ESP Fit Center   76 is at  -2.844819  2.036862 -1.973284
      ESP Fit Center   77 is at  -3.203940  1.414846 -1.973284
      ESP Fit Center   78 is at  -2.844819  0.792830 -1.973284
      ESP Fit Center   79 is at  -2.126577  0.792830 -1.973284
      ESP Fit Center   80 is at  -2.485698  1.414846 -2.099929
      ESP Fit Center   81 is at  -1.375663  0.542078  2.100118
      ESP Fit Center   82 is at  -0.657421  0.542078  1.973472
      ESP Fit Center   83 is at  -1.016542  1.164094  1.973472
      ESP Fit Center   84 is at  -1.734784  1.164094  1.973472
      ESP Fit Center   85 is at  -2.093905  0.542078  1.973472
      ESP Fit Center   86 is at  -1.734784 -0.079938  1.973472
      ESP Fit Center   87 is at  -1.016542 -0.079938  1.973472
      ESP Fit Center   88 is at  -0.657421  0.542078 -1.973237
      ESP Fit Center   89 is at  -1.016542  1.164094 -1.973237
      ESP Fit Center   90 is at  -1.734784  1.164094 -1.973237
      ESP Fit Center   91 is at  -2.093905  0.542078 -1.973237
      ESP Fit Center   92 is at  -1.734784 -0.079938 -1.973237
      ESP Fit Center   93 is at  -1.016542 -0.079938 -1.973237
      ESP Fit Center   94 is at  -1.375663  0.542078 -2.099882
      ESP Fit Center   95 is at  -1.624949 -0.846525  2.099998
      ESP Fit Center   96 is at  -0.906707 -0.846525  1.973352
      ESP Fit Center   97 is at  -1.265828 -0.224509  1.973352
      ESP Fit Center   98 is at  -1.984070 -0.224509  1.973352
      ESP Fit Center   99 is at  -2.343191 -0.846525  1.973352
      ESP Fit Center  100 is at  -1.984070 -1.468541  1.973352
      ESP Fit Center  101 is at  -1.265828 -1.468541  1.973352
      ESP Fit Center  102 is at  -1.817053 -2.182639  1.608691
      ESP Fit Center  103 is at  -1.064199 -2.074395  1.608691
      ESP Fit Center  104 is at  -1.817053 -2.182639 -1.608695
      ESP Fit Center  105 is at  -1.064199 -2.074395 -1.608695
      ESP Fit Center  106 is at  -0.906707 -0.846525 -1.973357
      ESP Fit Center  107 is at  -1.265828 -0.224509 -1.973357
      ESP Fit Center  108 is at  -1.984070 -0.224509 -1.973357
      ESP Fit Center  109 is at  -2.343191 -0.846525 -1.973357
      ESP Fit Center  110 is at  -1.984070 -1.468541 -1.973357
      ESP Fit Center  111 is at  -1.265828 -1.468541 -1.973357
      ESP Fit Center  112 is at  -1.624949 -0.846525 -2.100002
      ESP Fit Center  113 is at  -2.930798 -1.328431  2.099842
      ESP Fit Center  114 is at  -2.212556 -1.328431  1.973196
      ESP Fit Center  115 is at  -2.571677 -0.706415  1.973196
      ESP Fit Center  116 is at  -3.289919 -0.706415  1.973196
      ESP Fit Center  117 is at  -3.649040 -1.328431  1.973196
      ESP Fit Center  118 is at  -3.289919 -1.950447  1.973196
      ESP Fit Center  119 is at  -2.571677 -1.950447  1.973196
      ESP Fit Center  120 is at  -3.814764 -2.348583  1.608535
      ESP Fit Center  121 is at  -2.370048 -2.556301  1.608535
      ESP Fit Center  122 is at  -1.713881 -2.679954  1.049842
      ESP Fit Center  123 is at  -1.713881 -2.679954 -1.050158
      ESP Fit Center  124 is at  -3.814764 -2.348583 -1.608851
      ESP Fit Center  125 is at  -2.370048 -2.556301 -1.608851
      ESP Fit Center  126 is at  -2.212556 -1.328431 -1.973513
      ESP Fit Center  127 is at  -2.571677 -0.706415 -1.973513
      ESP Fit Center  128 is at  -3.289919 -0.706415 -1.973513
      ESP Fit Center  129 is at  -3.649040 -1.328431 -1.973513
      ESP Fit Center  130 is at  -3.289919 -1.950447 -1.973513
      ESP Fit Center  131 is at  -2.571677 -1.950447 -1.973513
      ESP Fit Center  132 is at  -2.930798 -1.328431 -2.100158
      ESP Fit Center  133 is at  -0.056775  1.164452  2.100425
      ESP Fit Center  134 is at   0.302346  1.786468  1.973779
      ESP Fit Center  135 is at  -0.415896  1.786468  1.973779
      ESP Fit Center  136 is at  -0.775017  1.164452  1.973779
      ESP Fit Center  137 is at  -0.415896  0.542436  1.973779
      ESP Fit Center  138 is at   0.503974  2.392323  1.609118
      ESP Fit Center  139 is at  -0.940742  2.184604  1.609118
      ESP Fit Center  140 is at   0.503974  2.392323 -1.608268
      ESP Fit Center  141 is at  -0.940742  2.184604 -1.608268
      ESP Fit Center  142 is at   0.302346  1.786468 -1.972930
      ESP Fit Center  143 is at  -0.415896  1.786468 -1.972930
      ESP Fit Center  144 is at  -0.775017  1.164452 -1.972930
      ESP Fit Center  145 is at  -0.415896  0.542436 -1.972930
      ESP Fit Center  146 is at  -0.056775  1.164452 -2.099575
      ESP Fit Center  147 is at   0.859330  1.333415  1.973632
      ESP Fit Center  148 is at   1.026347  2.047514  1.608971
      ESP Fit Center  149 is at   1.026347  2.047514 -1.608415
      ESP Fit Center  150 is at   0.859330  1.333415 -1.973077
      ESP Fit Center  151 is at   2.328323  1.688201  2.100060
      ESP Fit Center  152 is at   3.046565  1.688201  1.973414
      ESP Fit Center  153 is at   2.687444  2.310218  1.973414
      ESP Fit Center  154 is at   1.969202  2.310218  1.973414
      ESP Fit Center  155 is at   1.610080  1.688201  1.973414
      ESP Fit Center  156 is at   2.889072  2.916072  1.608753
      ESP Fit Center  157 is at   1.444356  2.708353  1.608753
      ESP Fit Center  158 is at   1.033147  2.068499  1.608753
      ESP Fit Center  159 is at   2.889072  2.916072 -1.608633
      ESP Fit Center  160 is at   1.444356  2.708353 -1.608633
      ESP Fit Center  161 is at   1.033147  2.068499 -1.608633
      ESP Fit Center  162 is at   3.046565  1.688201 -1.973295
      ESP Fit Center  163 is at   2.687444  2.310218 -1.973295
      ESP Fit Center  164 is at   1.969202  2.310218 -1.973295
      ESP Fit Center  165 is at   1.610080  1.688201 -1.973295
      ESP Fit Center  166 is at   2.328323  1.688201 -2.099940
      ESP Fit Center  167 is at   3.510384  1.421657  1.959248
      ESP Fit Center  168 is at   4.260443  1.421657  1.810052
      ESP Fit Center  169 is at   3.885414  2.071227  1.810052
      ESP Fit Center  170 is at   3.885414  0.772086  1.810052
      ESP Fit Center  171 is at   4.896313  1.421657  1.385177
      ESP Fit Center  172 is at   4.710634  2.114621  1.385177
      ESP Fit Center  173 is at   4.203348  2.621907  1.385177
      ESP Fit Center  174 is at   3.510384  2.807586  1.385177
      ESP Fit Center  175 is at   4.710634  0.728692  1.385177
      ESP Fit Center  176 is at   5.321188  1.421657  0.749307
      ESP Fit Center  177 is at   5.164635  2.158177  0.749307
      ESP Fit Center  178 is at   4.722048  2.767346  0.749307
      ESP Fit Center  179 is at   4.069953  3.143833  0.749307
      ESP Fit Center  180 is at   4.722048  0.075967  0.749307
      ESP Fit Center  181 is at   5.164635  0.685136  0.749307
      ESP Fit Center  182 is at   5.470384  1.421657 -0.000752
      ESP Fit Center  183 is at   5.338029  2.129690 -0.000752
      ESP Fit Center  184 is at   4.958841  2.742100 -0.000752
      ESP Fit Center  185 is at   4.384031  3.176177 -0.000752
      ESP Fit Center  186 is at   3.691230  3.373296 -0.000752
      ESP Fit Center  187 is at   4.958841  0.101213 -0.000752
      ESP Fit Center  188 is at   5.338029  0.713623 -0.000752
      ESP Fit Center  189 is at   5.321188  1.421657 -0.750812
      ESP Fit Center  190 is at   5.164635  2.158177 -0.750812
      ESP Fit Center  191 is at   4.722048  2.767346 -0.750812
      ESP Fit Center  192 is at   4.069953  3.143833 -0.750812
      ESP Fit Center  193 is at   4.722048  0.075967 -0.750812
      ESP Fit Center  194 is at   5.164635  0.685136 -0.750812
      ESP Fit Center  195 is at   4.896313  1.421657 -1.386681
      ESP Fit Center  196 is at   4.710634  2.114621 -1.386681
      ESP Fit Center  197 is at   4.203348  2.621907 -1.386681
      ESP Fit Center  198 is at   3.510384  2.807586 -1.386681
      ESP Fit Center  199 is at   4.710634  0.728692 -1.386681
      ESP Fit Center  200 is at   4.260443  1.421657 -1.811556
      ESP Fit Center  201 is at   3.885414  2.071227 -1.811556
      ESP Fit Center  202 is at   3.885414  0.772086 -1.811556
      ESP Fit Center  203 is at   3.510384  1.421657 -1.960752
      ESP Fit Center  204 is at   1.780250 -1.104631  3.220074
      ESP Fit Center  205 is at   2.496767 -1.104631  3.139342
      ESP Fit Center  206 is at   2.138509 -0.484108  3.139342
      ESP Fit Center  207 is at   1.421991 -0.484108  3.139342
      ESP Fit Center  208 is at   1.063733 -1.104631  3.139342
      ESP Fit Center  209 is at   1.421991 -1.725153  3.139342
      ESP Fit Center  210 is at   2.138509 -1.725153  3.139342
      ESP Fit Center  211 is at   3.177356 -1.104631  2.901194
      ESP Fit Center  212 is at   2.990179 -0.406078  2.901194
      ESP Fit Center  213 is at   2.478803  0.105298  2.901194
      ESP Fit Center  214 is at   1.780250  0.292475  2.901194
      ESP Fit Center  215 is at   1.081697  0.105298  2.901194
      ESP Fit Center  216 is at   0.570321 -0.406078  2.901194
      ESP Fit Center  217 is at   0.383144 -1.104631  2.901194
      ESP Fit Center  218 is at   0.570321 -1.803183  2.901194
      ESP Fit Center  219 is at   1.081697 -2.314560  2.901194
      ESP Fit Center  220 is at   1.780250 -2.501736  2.901194
      ESP Fit Center  221 is at   2.478803 -2.314560  2.901194
      ESP Fit Center  222 is at   2.990179 -1.803183  2.901194
      ESP Fit Center  223 is at   3.787887 -1.104631  2.517571
      ESP Fit Center  224 is at   3.652316 -0.379388  2.517571
      ESP Fit Center  225 is at   3.263912  0.247906  2.517571
      ESP Fit Center  226 is at   2.675131  0.692533  2.517571
      ESP Fit Center  227 is at   1.965491  0.894442  2.517571
      ESP Fit Center  228 is at   1.230834  0.826366  2.517571
      ESP Fit Center  229 is at   0.570378  0.497498  2.517571
      ESP Fit Center  230 is at   0.073323 -0.047746  2.517571
      ESP Fit Center  231 is at  -0.193203 -0.735728  2.517571
      ESP Fit Center  232 is at  -0.193203 -1.473533  2.517571
      ESP Fit Center  233 is at   0.073323 -2.161515  2.517571
      ESP Fit Center  234 is at   0.570378 -2.706760  2.517571
      ESP Fit Center  235 is at   1.230834 -3.035627  2.517571
      ESP Fit Center  236 is at   1.965491 -3.103704  2.517571
      ESP Fit Center  237 is at   2.675131 -2.901794  2.517571
      ESP Fit Center  238 is at   3.263912 -2.457167  2.517571
      ESP Fit Center  239 is at   3.652316 -1.829873  2.517571
      ESP Fit Center  240 is at   4.297747 -1.104631  2.007711
      ESP Fit Center  241 is at   4.185902 -0.362585  2.007711
      ESP Fit Center  242 is at   3.860304  0.313526  2.007711
      ESP Fit Center  243 is at   3.349884  0.863628  2.007711
      ESP Fit Center  244 is at   1.220054  1.349748  2.007711
      ESP Fit Center  245 is at  -0.487937 -0.012329  2.007711
      ESP Fit Center  246 is at  -0.709129 -0.729417  2.007711
      ESP Fit Center  247 is at  -0.709129 -1.479844  2.007711
      ESP Fit Center  248 is at  -0.487937 -2.196932  2.007711
      ESP Fit Center  249 is at  -0.065206 -2.816964  2.007711
      ESP Fit Center  250 is at   0.521501 -3.284847  2.007711
      ESP Fit Center  251 is at   1.220054 -3.559009  2.007711
      ESP Fit Center  252 is at   1.968383 -3.615089  2.007711
      ESP Fit Center  253 is at   2.699995 -3.448103  2.007711
      ESP Fit Center  254 is at   3.349884 -3.072889  2.007711
      ESP Fit Center  255 is at   3.860304 -2.522787  2.007711
      ESP Fit Center  256 is at   4.185902 -1.846676  2.007711
      ESP Fit Center  257 is at   4.681370 -1.104631  1.397180
      ESP Fit Center  258 is at   4.590226 -0.383151  1.397180
      ESP Fit Center  259 is at   4.322521  0.292995  1.397180
      ESP Fit Center  260 is at  -0.566805 -2.809866  1.397180
      ESP Fit Center  261 is at  -0.068993 -3.339982  1.397180
      ESP Fit Center  262 is at   0.545013 -3.729642  1.397180
      ESP Fit Center  263 is at   1.236634 -3.954364  1.397180
      ESP Fit Center  264 is at   1.962413 -4.000026  1.397180
      ESP Fit Center  265 is at   2.676745 -3.863759  1.397180
      ESP Fit Center  266 is at   3.334748 -3.554127  1.397180
      ESP Fit Center  267 is at   3.895075 -3.090584  1.397180
      ESP Fit Center  268 is at   4.322521 -2.502256  1.397180
      ESP Fit Center  269 is at   4.590226 -1.826110  1.397180
      ESP Fit Center  270 is at   4.919518 -1.104631  0.716591
      ESP Fit Center  271 is at   4.834899 -0.380666  0.716591
      ESP Fit Center  272 is at  -0.374046 -3.388051  0.716591
      ESP Fit Center  273 is at   0.210616 -3.823316  0.716591
      ESP Fit Center  274 is at   0.879898 -4.112016  0.716591
      ESP Fit Center  275 is at   1.597718 -4.238587  0.716591
      ESP Fit Center  276 is at   2.325378 -4.196206  0.716591
      ESP Fit Center  277 is at   3.023651 -3.987157  0.716591
      ESP Fit Center  278 is at   3.654891 -3.622710  0.716591
      ESP Fit Center  279 is at   4.185069 -3.122513  0.716591
      ESP Fit Center  280 is at   4.585602 -2.513531  0.716591
      ESP Fit Center  281 is at   4.834899 -1.828596  0.716591
      ESP Fit Center  282 is at   5.000250 -1.104631  0.000074
      ESP Fit Center  283 is at   4.919518 -0.388113  0.000074
      ESP Fit Center  284 is at  -0.227387 -3.622128  0.000074
      ESP Fit Center  285 is at   0.383144 -4.005750  0.000074
      ESP Fit Center  286 is at   1.063733 -4.243898  0.000074
      ESP Fit Center  287 is at   1.780250 -4.324631  0.000074
      ESP Fit Center  288 is at   2.496767 -4.243898  0.000074
      ESP Fit Center  289 is at   3.177356 -4.005750  0.000074
      ESP Fit Center  290 is at   3.787887 -3.622128  0.000074
      ESP Fit Center  291 is at   4.297747 -3.112268  0.000074
      ESP Fit Center  292 is at   4.681370 -2.501736  0.000074
      ESP Fit Center  293 is at   4.919518 -1.821148  0.000074
      ESP Fit Center  294 is at   4.919518 -1.104631 -0.716443
      ESP Fit Center  295 is at   4.834899 -0.380666 -0.716443
      ESP Fit Center  296 is at  -0.374046 -3.388051 -0.716443
      ESP Fit Center  297 is at   0.210616 -3.823316 -0.716443
      ESP Fit Center  298 is at   0.879898 -4.112016 -0.716443
      ESP Fit Center  299 is at   1.597718 -4.238587 -0.716443
      ESP Fit Center  300 is at   2.325378 -4.196206 -0.716443
      ESP Fit Center  301 is at   3.023651 -3.987157 -0.716443
      ESP Fit Center  302 is at   3.654891 -3.622710 -0.716443
      ESP Fit Center  303 is at   4.185069 -3.122513 -0.716443
      ESP Fit Center  304 is at   4.585602 -2.513531 -0.716443
      ESP Fit Center  305 is at   4.834899 -1.828596 -0.716443
      ESP Fit Center  306 is at   4.681370 -1.104631 -1.397032
      ESP Fit Center  307 is at   4.590226 -0.383151 -1.397032
      ESP Fit Center  308 is at   4.322521  0.292995 -1.397032
      ESP Fit Center  309 is at  -0.566805 -2.809866 -1.397032
      ESP Fit Center  310 is at  -0.068993 -3.339982 -1.397032
      ESP Fit Center  311 is at   0.545013 -3.729642 -1.397032
      ESP Fit Center  312 is at   1.236634 -3.954364 -1.397032
      ESP Fit Center  313 is at   1.962413 -4.000026 -1.397032
      ESP Fit Center  314 is at   2.676745 -3.863759 -1.397032
      ESP Fit Center  315 is at   3.334748 -3.554127 -1.397032
      ESP Fit Center  316 is at   3.895075 -3.090584 -1.397032
      ESP Fit Center  317 is at   4.322521 -2.502256 -1.397032
      ESP Fit Center  318 is at   4.590226 -1.826110 -1.397032
      ESP Fit Center  319 is at   4.297747 -1.104631 -2.007563
      ESP Fit Center  320 is at   4.185902 -0.362585 -2.007563
      ESP Fit Center  321 is at   3.860304  0.313526 -2.007563
      ESP Fit Center  322 is at   3.349884  0.863628 -2.007563
      ESP Fit Center  323 is at   1.220054  1.349748 -2.007563
      ESP Fit Center  324 is at  -0.487937 -0.012329 -2.007563
      ESP Fit Center  325 is at  -0.709129 -0.729417 -2.007563
      ESP Fit Center  326 is at  -0.709129 -1.479844 -2.007563
      ESP Fit Center  327 is at  -0.487937 -2.196932 -2.007563
      ESP Fit Center  328 is at  -0.065206 -2.816964 -2.007563
      ESP Fit Center  329 is at   0.521501 -3.284847 -2.007563
      ESP Fit Center  330 is at   1.220054 -3.559009 -2.007563
      ESP Fit Center  331 is at   1.968383 -3.615089 -2.007563
      ESP Fit Center  332 is at   2.699995 -3.448103 -2.007563
      ESP Fit Center  333 is at   3.349884 -3.072889 -2.007563
      ESP Fit Center  334 is at   3.860304 -2.522787 -2.007563
      ESP Fit Center  335 is at   4.185902 -1.846676 -2.007563
      ESP Fit Center  336 is at   3.787887 -1.104631 -2.517423
      ESP Fit Center  337 is at   3.652316 -0.379388 -2.517423
      ESP Fit Center  338 is at   3.263912  0.247906 -2.517423
      ESP Fit Center  339 is at   2.675131  0.692533 -2.517423
      ESP Fit Center  340 is at   1.965491  0.894442 -2.517423
      ESP Fit Center  341 is at   1.230834  0.826366 -2.517423
      ESP Fit Center  342 is at   0.570378  0.497498 -2.517423
      ESP Fit Center  343 is at   0.073323 -0.047746 -2.517423
      ESP Fit Center  344 is at  -0.193203 -0.735728 -2.517423
      ESP Fit Center  345 is at  -0.193203 -1.473533 -2.517423
      ESP Fit Center  346 is at   0.073323 -2.161515 -2.517423
      ESP Fit Center  347 is at   0.570378 -2.706760 -2.517423
      ESP Fit Center  348 is at   1.230834 -3.035627 -2.517423
      ESP Fit Center  349 is at   1.965491 -3.103704 -2.517423
      ESP Fit Center  350 is at   2.675131 -2.901794 -2.517423
      ESP Fit Center  351 is at   3.263912 -2.457167 -2.517423
      ESP Fit Center  352 is at   3.652316 -1.829873 -2.517423
      ESP Fit Center  353 is at   3.177356 -1.104631 -2.901046
      ESP Fit Center  354 is at   2.990179 -0.406078 -2.901046
      ESP Fit Center  355 is at   2.478803  0.105298 -2.901046
      ESP Fit Center  356 is at   1.780250  0.292475 -2.901046
      ESP Fit Center  357 is at   1.081697  0.105298 -2.901046
      ESP Fit Center  358 is at   0.570321 -0.406078 -2.901046
      ESP Fit Center  359 is at   0.383144 -1.104631 -2.901046
      ESP Fit Center  360 is at   0.570321 -1.803183 -2.901046
      ESP Fit Center  361 is at   1.081697 -2.314560 -2.901046
      ESP Fit Center  362 is at   1.780250 -2.501736 -2.901046
      ESP Fit Center  363 is at   2.478803 -2.314560 -2.901046
      ESP Fit Center  364 is at   2.990179 -1.803183 -2.901046
      ESP Fit Center  365 is at   2.496767 -1.104631 -3.139194
      ESP Fit Center  366 is at   2.138509 -0.484108 -3.139194
      ESP Fit Center  367 is at   1.421991 -0.484108 -3.139194
      ESP Fit Center  368 is at   1.063733 -1.104631 -3.139194
      ESP Fit Center  369 is at   1.421991 -1.725153 -3.139194
      ESP Fit Center  370 is at   2.138509 -1.725153 -3.139194
      ESP Fit Center  371 is at   1.780250 -1.104631 -3.219926
      ESP Fit Center  372 is at  -5.760755 -0.834392  1.513324
      ESP Fit Center  373 is at  -5.396292 -1.465660  1.513324
      ESP Fit Center  374 is at  -6.094455 -0.062350  1.047159
      ESP Fit Center  375 is at  -6.345307 -0.834392  1.047159
      ESP Fit Center  376 is at  -6.094455 -1.606435  1.047159
      ESP Fit Center  377 is at  -5.437717 -2.083583  1.047159
      ESP Fit Center  378 is at  -6.257800  0.251722  0.373531
      ESP Fit Center  379 is at  -6.622115 -0.442422  0.373531
      ESP Fit Center  380 is at  -6.622115 -1.226362  0.373531
      ESP Fit Center  381 is at  -6.257800 -1.920507  0.373531
      ESP Fit Center  382 is at  -5.612630 -2.365836  0.373531
      ESP Fit Center  383 is at  -4.834405 -2.460329  0.373531
      ESP Fit Center  384 is at  -6.257800  0.251722 -0.374139
      ESP Fit Center  385 is at  -6.622115 -0.442422 -0.374139
      ESP Fit Center  386 is at  -6.622115 -1.226362 -0.374139
      ESP Fit Center  387 is at  -6.257800 -1.920507 -0.374139
      ESP Fit Center  388 is at  -5.612630 -2.365836 -0.374139
      ESP Fit Center  389 is at  -4.834405 -2.460329 -0.374139
      ESP Fit Center  390 is at  -6.094455 -0.062350 -1.047767
      ESP Fit Center  391 is at  -6.345307 -0.834392 -1.047767
      ESP Fit Center  392 is at  -6.094455 -1.606435 -1.047767
      ESP Fit Center  393 is at  -5.437717 -2.083583 -1.047767
      ESP Fit Center  394 is at  -5.760755 -0.834392 -1.513932
      ESP Fit Center  395 is at  -5.396292 -1.465660 -1.513932
      ESP Fit Center  396 is at  -4.988932  2.254171  1.513392
      ESP Fit Center  397 is at  -5.353394  1.622904  1.513392
      ESP Fit Center  398 is at  -4.218583  2.872095  1.047227
      ESP Fit Center  399 is at  -5.030356  2.872095  1.047227
      ESP Fit Center  400 is at  -5.687094  2.394946  1.047227
      ESP Fit Center  401 is at  -5.937946  1.622904  1.047227
      ESP Fit Center  402 is at  -5.687094  0.850861  1.047227
      ESP Fit Center  403 is at  -4.427045  3.248841  0.373599
      ESP Fit Center  404 is at  -5.205269  3.154347  0.373599
      ESP Fit Center  405 is at  -5.850439  2.709018  0.373599
      ESP Fit Center  406 is at  -6.214754  2.014874  0.373599
      ESP Fit Center  407 is at  -6.214754  1.230934  0.373599
      ESP Fit Center  408 is at  -4.427045  3.248841 -0.374071
      ESP Fit Center  409 is at  -5.205269  3.154347 -0.374071
      ESP Fit Center  410 is at  -5.850439  2.709018 -0.374071
      ESP Fit Center  411 is at  -6.214754  2.014874 -0.374071
      ESP Fit Center  412 is at  -6.214754  1.230934 -0.374071
      ESP Fit Center  413 is at  -4.218583  2.872095 -1.047699
      ESP Fit Center  414 is at  -5.030356  2.872095 -1.047699
      ESP Fit Center  415 is at  -5.687094  2.394946 -1.047699
      ESP Fit Center  416 is at  -5.937946  1.622904 -1.047699
      ESP Fit Center  417 is at  -5.687094  0.850861 -1.047699
      ESP Fit Center  418 is at  -4.988932  2.254171 -1.513864
      ESP Fit Center  419 is at  -5.353394  1.622904 -1.513864
      ESP Fit Center  420 is at  -1.949292  3.119856  1.513781
      ESP Fit Center  421 is at  -2.678217  3.119856  1.513781
      ESP Fit Center  422 is at  -1.251129  3.260631  1.047616
      ESP Fit Center  423 is at  -1.907868  3.737780  1.047616
      ESP Fit Center  424 is at  -2.719641  3.737780  1.047616
      ESP Fit Center  425 is at  -3.376379  3.260631  1.047616
      ESP Fit Center  426 is at  -1.383333  3.836537  0.373988
      ESP Fit Center  427 is at  -2.116330  4.114526  0.373988
      ESP Fit Center  428 is at  -2.894554  4.020032  0.373988
      ESP Fit Center  429 is at  -3.539724  3.574704  0.373988
      ESP Fit Center  430 is at  -1.383333  3.836537 -0.373682
      ESP Fit Center  431 is at  -2.116330  4.114526 -0.373682
      ESP Fit Center  432 is at  -2.894554  4.020032 -0.373682
      ESP Fit Center  433 is at  -3.539724  3.574704 -0.373682
      ESP Fit Center  434 is at  -1.251129  3.260631 -1.047310
      ESP Fit Center  435 is at  -1.907868  3.737780 -1.047310
      ESP Fit Center  436 is at  -2.719641  3.737780 -1.047310
      ESP Fit Center  437 is at  -3.376379  3.260631 -1.047310
      ESP Fit Center  438 is at  -1.949292  3.119856 -1.513475
      ESP Fit Center  439 is at  -2.678217  3.119856 -1.513475
      ESP Fit Center  440 is at  -1.203680 -2.792444  1.047446
      ESP Fit Center  441 is at  -1.378593 -3.074696  0.373818
      ESP Fit Center  442 is at  -1.378593 -3.074696 -0.373852
      ESP Fit Center  443 is at  -1.203680 -2.792444 -1.047480
      ESP Fit Center  444 is at  -3.466171 -3.032629  1.513413
      ESP Fit Center  445 is at  -2.737246 -3.032629  1.513413
      ESP Fit Center  446 is at  -4.415186 -2.401362  1.047248
      ESP Fit Center  447 is at  -4.164334 -3.173404  1.047248
      ESP Fit Center  448 is at  -3.507596 -3.650553  1.047248
      ESP Fit Center  449 is at  -2.695822 -3.650553  1.047248
      ESP Fit Center  450 is at  -2.039084 -3.173404  1.047248
      ESP Fit Center  451 is at  -4.691994 -2.793332  0.373620
      ESP Fit Center  452 is at  -4.327679 -3.487477  0.373620
      ESP Fit Center  453 is at  -3.682509 -3.932805  0.373620
      ESP Fit Center  454 is at  -2.904284 -4.027299  0.373620
      ESP Fit Center  455 is at  -2.171288 -3.749310  0.373620
      ESP Fit Center  456 is at  -1.651439 -3.162522  0.373620
      ESP Fit Center  457 is at  -4.691994 -2.793332 -0.374050
      ESP Fit Center  458 is at  -4.327679 -3.487477 -0.374050
      ESP Fit Center  459 is at  -3.682509 -3.932805 -0.374050
      ESP Fit Center  460 is at  -2.904284 -4.027299 -0.374050
      ESP Fit Center  461 is at  -2.171288 -3.749310 -0.374050
      ESP Fit Center  462 is at  -1.651439 -3.162522 -0.374050
      ESP Fit Center  463 is at  -4.415186 -2.401362 -1.047678
      ESP Fit Center  464 is at  -4.164334 -3.173404 -1.047678
      ESP Fit Center  465 is at  -3.507596 -3.650553 -1.047678
      ESP Fit Center  466 is at  -2.695822 -3.650553 -1.047678
      ESP Fit Center  467 is at  -2.039084 -3.173404 -1.047678
      ESP Fit Center  468 is at  -3.466171 -3.032629 -1.513843
      ESP Fit Center  469 is at  -2.737246 -3.032629 -1.513843
      ESP Fit Center  470 is at   0.259419  2.886465  1.514433
      ESP Fit Center  471 is at  -0.469506  2.886465  1.514433
      ESP Fit Center  472 is at   0.300843  3.504388  1.048268
      ESP Fit Center  473 is at  -0.510930  3.504388  1.048268
      ESP Fit Center  474 is at   0.092381  3.881134  0.374640
      ESP Fit Center  475 is at  -0.685843  3.786641  0.374640
      ESP Fit Center  476 is at   0.092381  3.881134 -0.373030
      ESP Fit Center  477 is at  -0.685843  3.786641 -0.373030
      ESP Fit Center  478 is at   0.300843  3.504388 -1.046658
      ESP Fit Center  479 is at  -0.510930  3.504388 -1.046658
      ESP Fit Center  480 is at   0.259419  2.886465 -1.512823
      ESP Fit Center  481 is at  -0.469506  2.886465 -1.512823
      ESP Fit Center  482 is at   2.337101  3.373258  1.514351
      ESP Fit Center  483 is at   1.608176  3.373258  1.514351
      ESP Fit Center  484 is at   1.243714  2.741990  1.514351
      ESP Fit Center  485 is at   3.035264  3.514033  1.048186
      ESP Fit Center  486 is at   2.378525  3.991181  1.048186
      ESP Fit Center  487 is at   1.566752  3.991181  1.048186
      ESP Fit Center  488 is at   0.910014  3.514033  1.048186
      ESP Fit Center  489 is at   3.422908  3.503151  0.374558
      ESP Fit Center  490 is at   2.903060  4.089938  0.374558
      ESP Fit Center  491 is at   2.170063  4.367927  0.374558
      ESP Fit Center  492 is at   1.391839  4.273434  0.374558
      ESP Fit Center  493 is at   0.746669  3.828105  0.374558
      ESP Fit Center  494 is at   3.422908  3.503151 -0.373112
      ESP Fit Center  495 is at   2.903060  4.089938 -0.373112
      ESP Fit Center  496 is at   2.170063  4.367927 -0.373112
      ESP Fit Center  497 is at   1.391839  4.273434 -0.373112
      ESP Fit Center  498 is at   0.746669  3.828105 -0.373112
      ESP Fit Center  499 is at   3.035264  3.514033 -1.046740
      ESP Fit Center  500 is at   2.378525  3.991181 -1.046740
      ESP Fit Center  501 is at   1.566752  3.991181 -1.046740
      ESP Fit Center  502 is at   0.910014  3.514033 -1.046740
      ESP Fit Center  503 is at   2.337101  3.373258 -1.512905
      ESP Fit Center  504 is at   1.608176  3.373258 -1.512905
      ESP Fit Center  505 is at   1.243714  2.741990 -1.512905
      ESP Fit Center  506 is at  -4.016057 -0.448692  2.368101
      ESP Fit Center  507 is at  -3.284203 -0.448692  2.252187
      ESP Fit Center  508 is at  -3.650130  0.185112  2.252187
      ESP Fit Center  509 is at  -4.381984  0.185112  2.252187
      ESP Fit Center  510 is at  -4.747911 -0.448692  2.252187
      ESP Fit Center  511 is at  -4.381984 -1.082496  2.252187
      ESP Fit Center  512 is at  -3.650130 -1.082496  2.252187
      ESP Fit Center  513 is at  -5.351737 -0.056501  1.915791
      ESP Fit Center  514 is at  -5.351737 -0.840883  1.915791
      ESP Fit Center  515 is at  -4.927668 -1.500747  1.915791
      ESP Fit Center  516 is at  -5.786227  0.284536  1.391841
      ESP Fit Center  517 is at  -4.749285 -2.218862  1.391841
      ESP Fit Center  518 is at  -5.786227  0.284536 -1.392295
      ESP Fit Center  519 is at  -4.749285 -2.218862 -1.392295
      ESP Fit Center  520 is at  -5.351737 -0.056501 -1.916245
      ESP Fit Center  521 is at  -5.351737 -0.840883 -1.916245
      ESP Fit Center  522 is at  -4.927668 -1.500747 -1.916245
      ESP Fit Center  523 is at  -3.284203 -0.448692 -2.252641
      ESP Fit Center  524 is at  -3.650130  0.185112 -2.252641
      ESP Fit Center  525 is at  -4.381984  0.185112 -2.252641
      ESP Fit Center  526 is at  -4.747911 -0.448692 -2.252641
      ESP Fit Center  527 is at  -4.381984 -1.082496 -2.252641
      ESP Fit Center  528 is at  -3.650130 -1.082496 -2.252641
      ESP Fit Center  529 is at  -4.016057 -0.448692 -2.368555
      ESP Fit Center  530 is at  -3.788477  0.929195  2.368184
      ESP Fit Center  531 is at  -3.056623  0.929195  2.252270
      ESP Fit Center  532 is at  -3.422550  1.562999  2.252270
      ESP Fit Center  533 is at  -4.154404  1.562999  2.252270
      ESP Fit Center  534 is at  -4.520331  0.929195  2.252270
      ESP Fit Center  535 is at  -4.154404  0.295391  2.252270
      ESP Fit Center  536 is at  -3.422550  0.295391  2.252270
      ESP Fit Center  537 is at  -3.986589  2.307094  1.915874
      ESP Fit Center  538 is at  -4.700088  1.981250  1.915874
      ESP Fit Center  539 is at  -5.124157  1.321386  1.915874
      ESP Fit Center  540 is at  -5.124157  0.537004  1.915874
      ESP Fit Center  541 is at  -3.788477  2.845213  1.391924
      ESP Fit Center  542 is at  -3.788477  2.845213 -1.392212
      ESP Fit Center  543 is at  -3.986589  2.307094 -1.916162
      ESP Fit Center  544 is at  -4.700088  1.981250 -1.916162
      ESP Fit Center  545 is at  -5.124157  1.321386 -1.916162
      ESP Fit Center  546 is at  -5.124157  0.537004 -1.916162
      ESP Fit Center  547 is at  -3.056623  0.929195 -2.252558
      ESP Fit Center  548 is at  -3.422550  1.562999 -2.252558
      ESP Fit Center  549 is at  -4.154404  1.562999 -2.252558
      ESP Fit Center  550 is at  -4.520331  0.929195 -2.252558
      ESP Fit Center  551 is at  -4.154404  0.295391 -2.252558
      ESP Fit Center  552 is at  -3.422550  0.295391 -2.252558
      ESP Fit Center  553 is at  -3.788477  0.929195 -2.368472
      ESP Fit Center  554 is at  -2.485698  1.414846  2.368399
      ESP Fit Center  555 is at  -1.753845  1.414846  2.252485
      ESP Fit Center  556 is at  -2.119771  2.048650  2.252485
      ESP Fit Center  557 is at  -2.851625  2.048650  2.252485
      ESP Fit Center  558 is at  -3.217552  1.414846  2.252485
      ESP Fit Center  559 is at  -2.851625  0.781042  2.252485
      ESP Fit Center  560 is at  -2.119771  0.781042  2.252485
      ESP Fit Center  561 is at  -1.314616  2.167455  1.916089
      ESP Fit Center  562 is at  -1.907412  2.681116  1.916089
      ESP Fit Center  563 is at  -2.683810  2.792745  1.916089
      ESP Fit Center  564 is at  -3.397309  2.466901  1.916089
      ESP Fit Center  565 is at  -1.314616  2.167455 -1.915947
      ESP Fit Center  566 is at  -1.907412  2.681116 -1.915947
      ESP Fit Center  567 is at  -2.683810  2.792745 -1.915947
      ESP Fit Center  568 is at  -3.397309  2.466901 -1.915947
      ESP Fit Center  569 is at  -1.753845  1.414846 -2.252343
      ESP Fit Center  570 is at  -2.119771  2.048650 -2.252343
      ESP Fit Center  571 is at  -2.851625  2.048650 -2.252343
      ESP Fit Center  572 is at  -3.217552  1.414846 -2.252343
      ESP Fit Center  573 is at  -2.851625  0.781042 -2.252343
      ESP Fit Center  574 is at  -2.119771  0.781042 -2.252343
      ESP Fit Center  575 is at  -2.485698  1.414846 -2.368257
      ESP Fit Center  576 is at  -1.375663  0.542078  2.368446
      ESP Fit Center  577 is at  -0.643809  0.542078  2.252532
      ESP Fit Center  578 is at  -1.009736  1.175882  2.252532
      ESP Fit Center  579 is at  -1.741590  1.175882  2.252532
      ESP Fit Center  580 is at  -2.107517  0.542078  2.252532
      ESP Fit Center  581 is at  -1.741590 -0.091726  2.252532
      ESP Fit Center  582 is at  -1.009736 -0.091726  2.252532
      ESP Fit Center  583 is at  -0.643809  0.542078 -2.252296
      ESP Fit Center  584 is at  -1.009736  1.175882 -2.252296
      ESP Fit Center  585 is at  -1.741590  1.175882 -2.252296
      ESP Fit Center  586 is at  -2.107517  0.542078 -2.252296
      ESP Fit Center  587 is at  -1.741590 -0.091726 -2.252296
      ESP Fit Center  588 is at  -1.009736 -0.091726 -2.252296
      ESP Fit Center  589 is at  -1.375663  0.542078 -2.368210
      ESP Fit Center  590 is at  -1.624949 -0.846525  2.368326
      ESP Fit Center  591 is at  -1.259022 -0.212721  2.252412
      ESP Fit Center  592 is at  -1.990876 -0.212721  2.252412
      ESP Fit Center  593 is at  -2.356803 -0.846525  2.252412
      ESP Fit Center  594 is at  -1.990876 -1.480329  2.252412
      ESP Fit Center  595 is at  -1.259022 -1.480329  2.252412
      ESP Fit Center  596 is at  -1.823061 -2.224424  1.916016
      ESP Fit Center  597 is at  -1.624949 -2.762543  1.392066
      ESP Fit Center  598 is at  -1.624949 -2.762543 -1.392070
      ESP Fit Center  599 is at  -1.823061 -2.224424 -1.916020
      ESP Fit Center  600 is at  -1.259022 -0.212721 -2.252416
      ESP Fit Center  601 is at  -1.990876 -0.212721 -2.252416
      ESP Fit Center  602 is at  -2.356803 -0.846525 -2.252416
      ESP Fit Center  603 is at  -1.990876 -1.480329 -2.252416
      ESP Fit Center  604 is at  -1.259022 -1.480329 -2.252416
      ESP Fit Center  605 is at  -1.624949 -0.846525 -2.368330
      ESP Fit Center  606 is at  -2.930798 -1.328431  2.368170
      ESP Fit Center  607 is at  -2.198944 -1.328431  2.252256
      ESP Fit Center  608 is at  -2.564871 -0.694627  2.252256
      ESP Fit Center  609 is at  -3.296725 -0.694627  2.252256
      ESP Fit Center  610 is at  -3.662652 -1.328431  2.252256
      ESP Fit Center  611 is at  -3.296725 -1.962235  2.252256
      ESP Fit Center  612 is at  -2.564871 -1.962235  2.252256
      ESP Fit Center  613 is at  -3.842409 -2.380486  1.915860
      ESP Fit Center  614 is at  -3.128910 -2.706330  1.915860
      ESP Fit Center  615 is at  -2.352512 -2.594701  1.915860
      ESP Fit Center  616 is at  -3.842409 -2.380486 -1.916176
      ESP Fit Center  617 is at  -3.128910 -2.706330 -1.916176
      ESP Fit Center  618 is at  -2.352512 -2.594701 -1.916176
      ESP Fit Center  619 is at  -2.198944 -1.328431 -2.252572
      ESP Fit Center  620 is at  -2.564871 -0.694627 -2.252572
      ESP Fit Center  621 is at  -3.296725 -0.694627 -2.252572
      ESP Fit Center  622 is at  -3.662652 -1.328431 -2.252572
      ESP Fit Center  623 is at  -3.296725 -1.962235 -2.252572
      ESP Fit Center  624 is at  -2.564871 -1.962235 -2.252572
      ESP Fit Center  625 is at  -2.930798 -1.328431 -2.368486
      ESP Fit Center  626 is at  -0.056775  1.164452  2.368753
      ESP Fit Center  627 is at   0.309152  1.798256  2.252839
      ESP Fit Center  628 is at  -0.422702  1.798256  2.252839
      ESP Fit Center  629 is at  -0.788629  1.164452  2.252839
      ESP Fit Center  630 is at   0.521511  2.430722  1.916443
      ESP Fit Center  631 is at  -0.254887  2.542351  1.916443
      ESP Fit Center  632 is at  -0.968386  2.216507  1.916443
      ESP Fit Center  633 is at   0.521511  2.430722 -1.915593
      ESP Fit Center  634 is at  -0.254887  2.542351 -1.915593
      ESP Fit Center  635 is at  -0.968386  2.216507 -1.915593
      ESP Fit Center  636 is at   0.309152  1.798256 -2.251989
      ESP Fit Center  637 is at  -0.422702  1.798256 -2.251989
      ESP Fit Center  638 is at  -0.788629  1.164452 -2.251989
      ESP Fit Center  639 is at  -0.056775  1.164452 -2.367903
      ESP Fit Center  640 is at   2.328323  1.688201  2.368388
      ESP Fit Center  641 is at   3.060176  1.688201  2.252474
      ESP Fit Center  642 is at   2.694250  2.322005  2.252474
      ESP Fit Center  643 is at   1.962396  2.322005  2.252474
      ESP Fit Center  644 is at   2.906609  2.954471  1.916078
      ESP Fit Center  645 is at   2.130211  3.066101  1.916078
      ESP Fit Center  646 is at   1.416712  2.740257  1.916078
      ESP Fit Center  647 is at   3.061551  3.458371  1.392128
      ESP Fit Center  648 is at   3.560276  3.573847  0.731914
      ESP Fit Center  649 is at   3.560276  3.573847 -0.731794
      ESP Fit Center  650 is at   3.061551  3.458371 -1.392008
      ESP Fit Center  651 is at   2.906609  2.954471 -1.915958
      ESP Fit Center  652 is at   2.130211  3.066101 -1.915958
      ESP Fit Center  653 is at   1.416712  2.740257 -1.915958
      ESP Fit Center  654 is at   3.060176  1.688201 -2.252354
      ESP Fit Center  655 is at   2.694250  2.322005 -2.252354
      ESP Fit Center  656 is at   1.962396  2.322005 -2.252354
      ESP Fit Center  657 is at   2.328323  1.688201 -2.368268
      ESP Fit Center  658 is at   3.510384  1.421657  2.209688
      ESP Fit Center  659 is at   4.266399  1.421657  2.076382
      ESP Fit Center  660 is at   3.888391  2.076385  2.076382
      ESP Fit Center  661 is at   4.931227  1.421657  1.692543
      ESP Fit Center  662 is at   4.740870  2.132078  1.692543
      ESP Fit Center  663 is at   4.220805  2.652143  1.692543
      ESP Fit Center  664 is at   4.740870  0.711235  1.692543
      ESP Fit Center  665 is at   5.424681  1.421657  1.104468
      ESP Fit Center  666 is at   5.278964  2.154226  1.104468
      ESP Fit Center  667 is at   4.863996  2.775269  1.104468
      ESP Fit Center  668 is at   4.242954  3.190236  1.104468
      ESP Fit Center  669 is at   5.278964  0.689087  1.104468
      ESP Fit Center  670 is at   5.687242  1.421657  0.383087
      ESP Fit Center  671 is at   5.555961  2.166186  0.383087
      ESP Fit Center  672 is at   5.177954  2.820914  0.383087
      ESP Fit Center  673 is at   4.598813  3.306871  0.383087
      ESP Fit Center  674 is at   3.888391  3.565443  0.383087
      ESP Fit Center  675 is at   5.555961  0.677127  0.383087
      ESP Fit Center  676 is at   5.687242  1.421657 -0.384591
      ESP Fit Center  677 is at   5.555961  2.166186 -0.384591
      ESP Fit Center  678 is at   5.177954  2.820914 -0.384591
      ESP Fit Center  679 is at   4.598813  3.306871 -0.384591
      ESP Fit Center  680 is at   3.888391  3.565443 -0.384591
      ESP Fit Center  681 is at   5.555961  0.677127 -0.384591
      ESP Fit Center  682 is at   5.424681  1.421657 -1.105972
      ESP Fit Center  683 is at   5.278964  2.154226 -1.105972
      ESP Fit Center  684 is at   4.863996  2.775269 -1.105972
      ESP Fit Center  685 is at   4.242954  3.190236 -1.105972
      ESP Fit Center  686 is at   5.278964  0.689087 -1.105972
      ESP Fit Center  687 is at   4.931227  1.421657 -1.694047
      ESP Fit Center  688 is at   4.740870  2.132078 -1.694047
      ESP Fit Center  689 is at   4.220805  2.652143 -1.694047
      ESP Fit Center  690 is at   4.740870  0.711235 -1.694047
      ESP Fit Center  691 is at   4.266399  1.421657 -2.077886
      ESP Fit Center  692 is at   3.888391  2.076385 -2.077886
      ESP Fit Center  693 is at   3.510384  1.421657 -2.211192
      ESP Fit Center  694 is at   1.780250 -1.104631  3.631510
      ESP Fit Center  695 is at   2.488708 -1.104631  3.561733
      ESP Fit Center  696 is at   2.134479 -0.491088  3.561733
      ESP Fit Center  697 is at   1.426021 -0.491088  3.561733
      ESP Fit Center  698 is at   1.071792 -1.104631  3.561733
      ESP Fit Center  699 is at   1.426021 -1.718173  3.561733
      ESP Fit Center  700 is at   2.134479 -1.718173  3.561733
      ESP Fit Center  701 is at   3.169941 -1.104631  3.355084
      ESP Fit Center  702 is at   2.983757 -0.409785  3.355084
      ESP Fit Center  703 is at   2.475095  0.098877  3.355084
      ESP Fit Center  704 is at   1.780250  0.285060  3.355084
      ESP Fit Center  705 is at   1.085405  0.098877  3.355084
      ESP Fit Center  706 is at   0.576743 -0.409785  3.355084
      ESP Fit Center  707 is at   0.390559 -1.104631  3.355084
      ESP Fit Center  708 is at   0.576743 -1.799476  3.355084
      ESP Fit Center  709 is at   1.085405 -2.308138  3.355084
      ESP Fit Center  710 is at   1.780250 -2.494321  3.355084
      ESP Fit Center  711 is at   2.475095 -2.308138  3.355084
      ESP Fit Center  712 is at   2.983757 -1.799476  3.355084
      ESP Fit Center  713 is at   3.797768 -1.104631  3.019503
      ESP Fit Center  714 is at   3.661530 -0.375819  3.019503
      ESP Fit Center  715 is at   3.271214  0.254563  3.019503
      ESP Fit Center  716 is at   2.679535  0.701377  3.019503
      ESP Fit Center  717 is at   1.966403  0.904281  3.019503
      ESP Fit Center  718 is at   1.228130  0.835870  3.019503
      ESP Fit Center  719 is at   0.564424  0.505384  3.019503
      ESP Fit Center  720 is at   0.064922 -0.042544  3.019503
      ESP Fit Center  721 is at  -0.202916 -0.733913  3.019503
      ESP Fit Center  722 is at  -0.202916 -1.475349  3.019503
      ESP Fit Center  723 is at   0.064922 -2.166717  3.019503
      ESP Fit Center  724 is at   0.564424 -2.714645  3.019503
      ESP Fit Center  725 is at   1.228130 -3.045131  3.019503
      ESP Fit Center  726 is at   1.966403 -3.113542  3.019503
      ESP Fit Center  727 is at   2.679535 -2.910639  3.019503
      ESP Fit Center  728 is at   3.271214 -2.463824  3.019503
      ESP Fit Center  729 is at   3.661530 -1.833442  3.019503
      ESP Fit Center  730 is at   4.348063 -1.104631  2.567887
      ESP Fit Center  731 is at   4.244049 -0.381194  2.567887
      ESP Fit Center  732 is at   3.940432  0.283634  2.567887
      ESP Fit Center  733 is at   3.461810  0.835993  2.567887
      ESP Fit Center  734 is at   2.846958  1.231135  2.567887
      ESP Fit Center  735 is at   2.145688  1.437046  2.567887
      ESP Fit Center  736 is at   1.414812  1.437046  2.567887
      ESP Fit Center  737 is at   0.713542  1.231135  2.567887
      ESP Fit Center  738 is at   0.098690  0.835993  2.567887
      ESP Fit Center  739 is at  -0.379932  0.283634  2.567887
      ESP Fit Center  740 is at  -0.683549 -0.381194  2.567887
      ESP Fit Center  741 is at  -0.787563 -1.104631  2.567887
      ESP Fit Center  742 is at  -0.683549 -1.828067  2.567887
      ESP Fit Center  743 is at  -0.379932 -2.492895  2.567887
      ESP Fit Center  744 is at   0.098690 -3.045254  2.567887
      ESP Fit Center  745 is at   0.713542 -3.440396  2.567887
      ESP Fit Center  746 is at   1.414812 -3.646307  2.567887
      ESP Fit Center  747 is at   2.145688 -3.646307  2.567887
      ESP Fit Center  748 is at   2.846958 -3.440396  2.567887
      ESP Fit Center  749 is at   3.461810 -3.045254  2.567887
      ESP Fit Center  750 is at   3.940432 -2.492895  2.567887
      ESP Fit Center  751 is at   4.244049 -1.828067  2.567887
      ESP Fit Center  752 is at   4.799679 -1.104631  2.017592
      ESP Fit Center  753 is at   4.711940 -0.382034  2.017592
      ESP Fit Center  754 is at   4.453822  0.298568  2.017592
      ESP Fit Center  755 is at  -0.893322 -2.507829  2.017592
      ESP Fit Center  756 is at  -0.479825 -3.106882  2.017592
      ESP Fit Center  757 is at   0.065019 -3.589572  2.017592
[...]
 2434 Fit       0.002646
 2435 Fit      -0.000398
 2436 Fit      -0.003080
 2437 Fit      -0.002801
 2438 Fit       0.006043
 2439 Fit       0.007691
 2440 Fit       0.007346
 2441 Fit       0.005822
 2442 Fit       0.012825
 2443 Fit       0.011871
 2444 Fit       0.010432
 2445 Fit       0.008767
 2446 Fit       0.013051
 2447 Fit       0.013049
 2448 Fit       0.012811
 2449 Fit       0.011861
 2450 Fit       0.010426
 2451 Fit       0.008763
 2452 Fit       0.006028
 2453 Fit       0.007678
 2454 Fit       0.007337
 2455 Fit       0.005816
 2456 Fit       0.000598
 2457 Fit       0.003351
 2458 Fit       0.002639
 2459 Fit      -0.000403
 2460 Fit      -0.003087
 2461 Fit      -0.002810
 2462 Fit      -0.000195
 2463 Fit      -0.000651
 2464 Fit      -0.003662
 2465 Fit      -0.000662
 2466 Fit      -0.003671
 2467 Fit      -0.005221
 2468 Fit      -0.005236
 2469 Fit      -0.004168
 2470 Fit      -0.005226
 2471 Fit      -0.005240
 2472 Fit      -0.004171
 2473 Fit      -0.003316
 2474 Fit      -0.004421
 2475 Fit      -0.005208
 2476 Fit      -0.004078
 2477 Fit      -0.001809
 2478 Fit      -0.000876
 2479 Fit      -0.002182
 2480 Fit       0.001797
 2481 Fit       0.002016
 2482 Fit       0.001228
 2483 Fit      -0.000507
 2484 Fit       0.005283
 2485 Fit       0.005330
 2486 Fit       0.004901
 2487 Fit       0.003837
 2488 Fit       0.002107
 2489 Fit       0.008913
 2490 Fit       0.005459
 2491 Fit       0.008915
 2492 Fit       0.005459
 2493 Fit       0.005285
 2494 Fit       0.005331
 2495 Fit       0.004901
 2496 Fit       0.003837
 2497 Fit       0.002106
 2498 Fit       0.001797
 2499 Fit       0.002016
 2500 Fit       0.001228
 2501 Fit      -0.000508
 2502 Fit      -0.004423
 2503 Fit      -0.005210
 2504 Fit      -0.004079
 2505 Fit      -0.001809
 2506 Fit      -0.000876
 2507 Fit      -0.002183
 2508 Fit      -0.003318
 2509 Fit       0.009470
 2510 Fit       0.008374
 2511 Fit       0.014527
 2512 Fit       0.014268
 2513 Fit       0.014511
 2514 Fit       0.014255
 2515 Fit       0.009456
 2516 Fit       0.008361
 2517 Fit      -0.002938
 2518 Fit       0.003346
 2519 Fit       0.007222
 2520 Fit      -0.010413
 2521 Fit      -0.002471
 2522 Fit       0.004499
 2523 Fit       0.009825
 2524 Fit       0.013000
 2525 Fit      -0.009106
 2526 Fit      -0.000478
 2527 Fit      -0.006961
 2528 Fit      -0.006986
 2529 Fit      -0.009141
 2530 Fit      -0.000506
 2531 Fit      -0.010454
 2532 Fit      -0.002504
 2533 Fit       0.004470
 2534 Fit       0.009799
 2535 Fit       0.012974
 2536 Fit      -0.002974
 2537 Fit       0.003316
 2538 Fit       0.007196
 2539 Fit      -0.019938
 2540 Fit      -0.015168
 2541 Fit      -0.025630
 2542 Fit      -0.023628
 2543 Fit      -0.020313
 2544 Fit      -0.015235
 2545 Fit      -0.027781
 2546 Fit      -0.026193
 2547 Fit      -0.023681
 2548 Fit      -0.019799
 2549 Fit      -0.014117
 2550 Fit      -0.029190
 2551 Fit      -0.027854
 2552 Fit      -0.025809
 2553 Fit      -0.022660
 2554 Fit      -0.017967
 2555 Fit      -0.011313
 2556 Fit      -0.030118
 2557 Fit      -0.029889
 2558 Fit      -0.028635
 2559 Fit      -0.026728
 2560 Fit      -0.023769
 2561 Fit      -0.019305
 2562 Fit      -0.012862
 2563 Fit      -0.030785
 2564 Fit      -0.029891
 2565 Fit      -0.028637
 2566 Fit      -0.026730
 2567 Fit      -0.023772
 2568 Fit      -0.019308
 2569 Fit      -0.012867
 2570 Fit      -0.030787
 2571 Fit      -0.029196
 2572 Fit      -0.027860
 2573 Fit      -0.025816
 2574 Fit      -0.022668
 2575 Fit      -0.017977
 2576 Fit      -0.011328
 2577 Fit      -0.030124
 2578 Fit      -0.027791
 2579 Fit      -0.026204
 2580 Fit      -0.023694
 2581 Fit      -0.019814
 2582 Fit      -0.014137
 2583 Fit      -0.025644
 2584 Fit      -0.023644
 2585 Fit      -0.020332
 2586 Fit      -0.015259
 2587 Fit      -0.019960
 2588 Fit      -0.015196
 2589 Fit      -0.005796
 2590 Fit      -0.006986
 2591 Fit      -0.006198
 2592 Fit      -0.004963
 2593 Fit      -0.004763
 2594 Fit      -0.005314
 2595 Fit      -0.006334
 2596 Fit      -0.008331
 2597 Fit      -0.008014
 2598 Fit      -0.006580
 2599 Fit      -0.004817
 2600 Fit      -0.003796
 2601 Fit      -0.003674
 2602 Fit      -0.003906
 2603 Fit      -0.004200
 2604 Fit      -0.004711
 2605 Fit      -0.005545
 2606 Fit      -0.006613
 2607 Fit      -0.007684
 2608 Fit      -0.009828
 2609 Fit      -0.009960
 2610 Fit      -0.009030
 2611 Fit      -0.007037
 2612 Fit      -0.004668
 2613 Fit      -0.002906
 2614 Fit      -0.002230
 2615 Fit      -0.002435
 2616 Fit      -0.002954
 2617 Fit      -0.003288
 2618 Fit      -0.003386
 2619 Fit      -0.003537
 2620 Fit      -0.003958
 2621 Fit      -0.004657
 2622 Fit      -0.005576
 2623 Fit      -0.006669
 2624 Fit      -0.007861
 2625 Fit      -0.009002
 2626 Fit      -0.011463
 2627 Fit      -0.012080
 2628 Fit      -0.011843
 2629 Fit      -0.010390
 2630 Fit      -0.007729
 2631 Fit      -0.004535
 2632 Fit      -0.001858
 2633 Fit      -0.000379
 2634 Fit      -0.000146
 2635 Fit      -0.000835
 2636 Fit      -0.001922
 2637 Fit      -0.002785
 2638 Fit      -0.003053
 2639 Fit      -0.002841
 2640 Fit      -0.002591
 2641 Fit      -0.002642
 2642 Fit      -0.003039
 2643 Fit      -0.003681
 2644 Fit      -0.004491
 2645 Fit      -0.005446
 2646 Fit      -0.006545
 2647 Fit      -0.007775
 2648 Fit      -0.009085
 2649 Fit      -0.010372
 2650 Fit      -0.013198
 2651 Fit      -0.014371
 2652 Fit      -0.014909
 2653 Fit      -0.014299
 2654 Fit      -0.012058
 2655 Fit      -0.008211
 2656 Fit      -0.003680
 2657 Fit       0.000149
 2658 Fit       0.002403
 2659 Fit       0.003032
 2660 Fit       0.002343
 2661 Fit       0.000668
 2662 Fit      -0.001411
 2663 Fit      -0.003029
 2664 Fit      -0.003614
 2665 Fit      -0.003159
 2666 Fit      -0.002209
 2667 Fit      -0.001507
 2668 Fit      -0.001391
 2669 Fit      -0.001759
 2670 Fit      -0.002395
 2671 Fit      -0.003164
 2672 Fit      -0.004026
 2673 Fit      -0.004995
 2674 Fit      -0.006096
 2675 Fit      -0.007343
 2676 Fit      -0.008728
 2677 Fit      -0.010217
 2678 Fit      -0.011745
 2679 Fit      -0.014965
 2680 Fit      -0.016781
 2681 Fit      -0.018244
 2682 Fit      -0.018801
 2683 Fit      -0.017618
 2684 Fit      -0.013934
 2685 Fit      -0.007932
 2686 Fit      -0.001277
 2687 Fit       0.003963
 2688 Fit       0.006859
 2689 Fit       0.007644
 2690 Fit       0.006796
 2691 Fit      -0.002080
 2692 Fit      -0.000322
 2693 Fit       0.000275
 2694 Fit      -0.000012
 2695 Fit      -0.000717
 2696 Fit      -0.001554
 2697 Fit      -0.002420
 2698 Fit      -0.003318
 2699 Fit      -0.004286
 2700 Fit      -0.005371
 2701 Fit      -0.006604
 2702 Fit      -0.008000
 2703 Fit      -0.009556
 2704 Fit      -0.011259
 2705 Fit      -0.013081
 2706 Fit      -0.016656
 2707 Fit      -0.019111
 2708 Fit      -0.021585
 2709 Fit      -0.023662
 2710 Fit       0.002616
 2711 Fit       0.002297
 2712 Fit       0.001325
 2713 Fit       0.000239
 2714 Fit      -0.000784
 2715 Fit      -0.001729
 2716 Fit      -0.002647
 2717 Fit      -0.003601
 2718 Fit      -0.004648
 2719 Fit      -0.005831
 2720 Fit      -0.007175
 2721 Fit      -0.008694
 2722 Fit      -0.010395
 2723 Fit      -0.012283
 2724 Fit      -0.014369
 2725 Fit      -0.018131
 2726 Fit      -0.021195
 2727 Fit      -0.024665
 2728 Fit       0.006265
 2729 Fit       0.004656
 2730 Fit       0.002906
 2731 Fit       0.001397
 2732 Fit       0.000155
 2733 Fit      -0.000896
 2734 Fit      -0.001849
 2735 Fit      -0.002790
 2736 Fit      -0.003792
 2737 Fit      -0.004908
 2738 Fit      -0.006174
 2739 Fit      -0.007612
 2740 Fit      -0.009238
 2741 Fit      -0.011069
 2742 Fit      -0.013130
 2743 Fit      -0.015463
 2744 Fit      -0.019235
 2745 Fit      -0.022884
 2746 Fit      -0.027320
 2747 Fit       0.006046
 2748 Fit       0.003569
 2749 Fit       0.001772
 2750 Fit       0.000412
 2751 Fit      -0.000693
 2752 Fit      -0.001680
 2753 Fit      -0.002656
 2754 Fit      -0.003699
 2755 Fit      -0.004868
 2756 Fit      -0.006199
 2757 Fit      -0.007716
 2758 Fit      -0.009440
 2759 Fit      -0.011396
 2760 Fit      -0.013625
 2761 Fit      -0.016201
 2762 Fit      -0.019830
 2763 Fit      -0.023762
 2764 Fit      -0.028698
 2765 Fit       0.006110
 2766 Fit       0.003503
 2767 Fit       0.001703
 2768 Fit       0.000364
 2769 Fit      -0.000725
 2770 Fit      -0.001708
 2771 Fit      -0.002694
 2772 Fit      -0.003757
 2773 Fit      -0.004952
 2774 Fit      -0.006315
 2775 Fit      -0.007868
 2776 Fit      -0.009634
 2777 Fit      -0.011643
 2778 Fit      -0.013945
 2779 Fit      -0.016627
 2780 Fit      -0.019832
 2781 Fit      -0.023765
 2782 Fit      -0.028703
 2783 Fit       0.006110
 2784 Fit       0.003503
 2785 Fit       0.001703
 2786 Fit       0.000363
 2787 Fit      -0.000725
 2788 Fit      -0.001709
 2789 Fit      -0.002694
 2790 Fit      -0.003758
 2791 Fit      -0.004953
 2792 Fit      -0.006315
 2793 Fit      -0.007869
 2794 Fit      -0.009635
 2795 Fit      -0.011644
 2796 Fit      -0.013946
 2797 Fit      -0.016628
 2798 Fit      -0.019242
 2799 Fit      -0.022894
 2800 Fit      -0.027334
 2801 Fit       0.006047
 2802 Fit       0.003569
 2803 Fit       0.001772
 2804 Fit       0.000411
 2805 Fit      -0.000693
 2806 Fit      -0.001680
 2807 Fit      -0.002656
 2808 Fit      -0.003700
 2809 Fit      -0.004869
 2810 Fit      -0.006200
 2811 Fit      -0.007718
 2812 Fit      -0.009442
 2813 Fit      -0.011398
 2814 Fit      -0.013629
 2815 Fit      -0.016205
 2816 Fit      -0.018141
 2817 Fit      -0.021209
 2818 Fit      -0.024685
 2819 Fit       0.006267
 2820 Fit       0.004657
 2821 Fit       0.002906
 2822 Fit       0.001397
 2823 Fit       0.000154
 2824 Fit      -0.000897
 2825 Fit      -0.001850
 2826 Fit      -0.002792
 2827 Fit      -0.003794
 2828 Fit      -0.004910
 2829 Fit      -0.006176
 2830 Fit      -0.007614
 2831 Fit      -0.009241
 2832 Fit      -0.011073
 2833 Fit      -0.013135
 2834 Fit      -0.015471
 2835 Fit      -0.016668
 2836 Fit      -0.019128
 2837 Fit      -0.021609
 2838 Fit      -0.023694
 2839 Fit       0.002617
 2840 Fit       0.002297
 2841 Fit       0.001325
 2842 Fit       0.000238
 2843 Fit      -0.000785
 2844 Fit      -0.001731
 2845 Fit      -0.002649
 2846 Fit      -0.003603
 2847 Fit      -0.004650
 2848 Fit      -0.005834
 2849 Fit      -0.007179
 2850 Fit      -0.008698
 2851 Fit      -0.010400
 2852 Fit      -0.012290
 2853 Fit      -0.014378
 2854 Fit      -0.014979
 2855 Fit      -0.016800
 2856 Fit      -0.018268
 2857 Fit      -0.018832
 2858 Fit      -0.017655
 2859 Fit      -0.013974
 2860 Fit      -0.007971
 2861 Fit      -0.001311
 2862 Fit       0.003936
 2863 Fit       0.006836
 2864 Fit       0.007623
 2865 Fit       0.006778
 2866 Fit      -0.002083
 2867 Fit      -0.000323
 2868 Fit       0.000274
 2869 Fit      -0.000013
 2870 Fit      -0.000718
 2871 Fit      -0.001555
 2872 Fit      -0.002422
 2873 Fit      -0.003320
 2874 Fit      -0.004289
 2875 Fit      -0.005374
 2876 Fit      -0.006608
 2877 Fit      -0.008004
 2878 Fit      -0.009562
 2879 Fit      -0.011267
 2880 Fit      -0.013092
 2881 Fit      -0.013212
 2882 Fit      -0.014389
 2883 Fit      -0.014932
 2884 Fit      -0.014327
 2885 Fit      -0.012089
 2886 Fit      -0.008242
 2887 Fit      -0.003708
 2888 Fit       0.000125
 2889 Fit       0.002383
 2890 Fit       0.003016
 2891 Fit       0.002329
 2892 Fit       0.000656
 2893 Fit      -0.001420
 2894 Fit      -0.003037
 2895 Fit      -0.003620
 2896 Fit      -0.003163
 2897 Fit      -0.002212
 2898 Fit      -0.001510
 2899 Fit      -0.001393
 2900 Fit      -0.001761
 2901 Fit      -0.002398
 2902 Fit      -0.003167
 2903 Fit      -0.004029
 2904 Fit      -0.004999
 2905 Fit      -0.006100
 2906 Fit      -0.007348
 2907 Fit      -0.008735
 2908 Fit      -0.010225
 2909 Fit      -0.011756
 2910 Fit      -0.011476
 2911 Fit      -0.012098
 2912 Fit      -0.011864
 2913 Fit      -0.010414
 2914 Fit      -0.007754
 2915 Fit      -0.004558
 2916 Fit      -0.001877
 2917 Fit      -0.000396
 2918 Fit      -0.000160
 2919 Fit      -0.000846
 2920 Fit      -0.001931
 2921 Fit      -0.002792
 2922 Fit      -0.003058
 2923 Fit      -0.002846
 2924 Fit      -0.002595
 2925 Fit      -0.002646
 2926 Fit      -0.003042
 2927 Fit      -0.003684
 2928 Fit      -0.004495
 2929 Fit      -0.005451
 2930 Fit      -0.006551
 2931 Fit      -0.007782
 2932 Fit      -0.009093
 2933 Fit      -0.010383
 2934 Fit      -0.009841
 2935 Fit      -0.009977
 2936 Fit      -0.009049
 2937 Fit      -0.007056
 2938 Fit      -0.004686
 2939 Fit      -0.002921
 2940 Fit      -0.002243
 2941 Fit      -0.002445
 2942 Fit      -0.002962
 2943 Fit      -0.003295
 2944 Fit      -0.003391
 2945 Fit      -0.003542
 2946 Fit      -0.003963
 2947 Fit      -0.004662
 2948 Fit      -0.005582
 2949 Fit      -0.006675
 2950 Fit      -0.007869
 2951 Fit      -0.009012
 2952 Fit      -0.008343
 2953 Fit      -0.008029
 2954 Fit      -0.006595
 2955 Fit      -0.004831
 2956 Fit      -0.003807
 2957 Fit      -0.003684
 2958 Fit      -0.003914
 2959 Fit      -0.004206
 2960 Fit      -0.004717
 2961 Fit      -0.005551
 2962 Fit      -0.006620
 2963 Fit      -0.007693
 2964 Fit      -0.006997
 2965 Fit      -0.006210
 2966 Fit      -0.004974
 2967 Fit      -0.004771
 2968 Fit      -0.005322
 2969 Fit      -0.006343
 2970 Fit      -0.005806
 2971 Fit       0.010347
 2972 Fit       0.009810
 2973 Fit       0.012666
 2974 Fit       0.012521
 2975 Fit       0.012320
 2976 Fit       0.012008
 2977 Fit       0.011630
 2978 Fit       0.015275
 2979 Fit       0.014352
 2980 Fit       0.013928
 2981 Fit       0.013676
 2982 Fit       0.013472
 2983 Fit       0.013362
 2984 Fit       0.013586
 2985 Fit       0.015713
 2986 Fit       0.014854
 2987 Fit       0.014460
 2988 Fit       0.014225
 2989 Fit       0.014092
 2990 Fit       0.014224
 2991 Fit       0.015130
 2992 Fit       0.015713
 2993 Fit       0.014854
 2994 Fit       0.014460
 2995 Fit       0.014225
 2996 Fit       0.014092
 2997 Fit       0.014224
 2998 Fit       0.015130
 2999 Fit       0.015275
 3000 Fit       0.014352
 3001 Fit       0.013928
 3002 Fit       0.013676
 3003 Fit       0.013472
 3004 Fit       0.013362
 3005 Fit       0.013586
 3006 Fit       0.012667
 3007 Fit       0.012521
 3008 Fit       0.012320
 3009 Fit       0.012009
 3010 Fit       0.011630
 3011 Fit       0.010348
 3012 Fit       0.009811
 3013 Fit       0.011198
 3014 Fit       0.010806
 3015 Fit       0.014128
 3016 Fit       0.013598
 3017 Fit       0.013274
 3018 Fit       0.013026
 3019 Fit       0.012848
 3020 Fit       0.016533
 3021 Fit       0.015359
 3022 Fit       0.014789
 3023 Fit       0.014498
 3024 Fit       0.014387
 3025 Fit       0.014560
 3026 Fit       0.015358
 3027 Fit       0.018495
 3028 Fit       0.016545
 3029 Fit       0.015659
 3030 Fit       0.015243
 3031 Fit       0.015076
 3032 Fit       0.015195
 3033 Fit       0.015922
 3034 Fit       0.018494
 3035 Fit       0.016544
 3036 Fit       0.015659
 3037 Fit       0.015243
 3038 Fit       0.015077
 3039 Fit       0.015195
 3040 Fit       0.015922
 3041 Fit       0.016530
 3042 Fit       0.015357
 3043 Fit       0.014788
 3044 Fit       0.014498
 3045 Fit       0.014387
 3046 Fit       0.014561
 3047 Fit       0.015359
 3048 Fit       0.014125
 3049 Fit       0.013596
 3050 Fit       0.013273
 3051 Fit       0.013026
 3052 Fit       0.012849
 3053 Fit       0.011197
 3054 Fit       0.010806
 3055 Fit       0.016240
 3056 Fit       0.014582
 3057 Fit       0.019514
 3058 Fit       0.017495
 3059 Fit       0.016170
 3060 Fit       0.015289
 3061 Fit       0.021246
 3062 Fit       0.019124
 3063 Fit       0.017930
 3064 Fit       0.017478
 3065 Fit       0.023087
 3066 Fit       0.020383
 3067 Fit       0.018948
 3068 Fit       0.018421
 3069 Fit       0.019067
 3070 Fit       0.023084
 3071 Fit       0.020382
 3072 Fit       0.018947
 3073 Fit       0.018421
 3074 Fit       0.019067
 3075 Fit       0.021241
 3076 Fit       0.019121
 3077 Fit       0.017927
 3078 Fit       0.017477
 3079 Fit       0.019505
 3080 Fit       0.017490
 3081 Fit       0.016167
 3082 Fit       0.015288
 3083 Fit       0.016229
 3084 Fit       0.014576
 3085 Fit       0.007625
 3086 Fit       0.007058
 3087 Fit       0.005714
 3088 Fit       0.010193
 3089 Fit       0.009556
 3090 Fit       0.008767
 3091 Fit       0.007749
 3092 Fit       0.012476
 3093 Fit       0.011509
 3094 Fit       0.010783
 3095 Fit       0.010060
 3096 Fit       0.009284
 3097 Fit       0.014767
 3098 Fit       0.012978
 3099 Fit       0.011990
 3100 Fit       0.011243
 3101 Fit       0.010521
 3102 Fit       0.009824
 3103 Fit       0.014768
 3104 Fit       0.012979
 3105 Fit       0.011990
 3106 Fit       0.011243
 3107 Fit       0.010521
 3108 Fit       0.009824
 3109 Fit       0.012476
 3110 Fit       0.011509
 3111 Fit       0.010783
 3112 Fit       0.010060
 3113 Fit       0.009284
 3114 Fit       0.010193
 3115 Fit       0.009556
 3116 Fit       0.008767
 3117 Fit       0.007748
 3118 Fit       0.007625
 3119 Fit       0.007058
 3120 Fit       0.005714
 3121 Fit       0.018111
 3122 Fit       0.018304
 3123 Fit       0.021134
 3124 Fit       0.021701
 3125 Fit       0.023166
 3126 Fit       0.024146
 3127 Fit       0.024201
 3128 Fit       0.025005
 3129 Fit       0.024200
 3130 Fit       0.025005
 3131 Fit       0.023164
 3132 Fit       0.024146
 3133 Fit       0.021130
 3134 Fit       0.021699
 3135 Fit       0.018104
 3136 Fit       0.018299
 3137 Fit       0.011610
 3138 Fit       0.016023
 3139 Fit       0.006021
 3140 Fit       0.011362
 3141 Fit       0.016104
 3142 Fit       0.020822
 3143 Fit       0.001176
 3144 Fit       0.007233
 3145 Fit       0.012128
 3146 Fit       0.016717
 3147 Fit       0.021815
 3148 Fit      -0.000456
 3149 Fit       0.006173
 3150 Fit       0.011342
 3151 Fit       0.016071
 3152 Fit       0.021314
 3153 Fit      -0.000461
 3154 Fit       0.006170
 3155 Fit       0.011339
 3156 Fit       0.016069
 3157 Fit       0.021313
 3158 Fit       0.001162
 3159 Fit       0.007224
 3160 Fit       0.012122
 3161 Fit       0.016712
 3162 Fit       0.021810
 3163 Fit       0.006006
 3164 Fit       0.011351
 3165 Fit       0.016095
 3166 Fit       0.020814
 3167 Fit       0.011597
 3168 Fit       0.016012
 -----------------------------------------------------------------
 Leave Link  602 at Thu Jan 16 22:37:12 2014, MaxMem=   235929600 cpu:         1.0

 Test job not archived.
 1\1\GINC-G54\SP\RHF\Gen\C9H7Br1O1\KOLAR\16-Jan-2014\0\\# hf/gen pop=mk
  iop(6/33=2,6/41=5,6/42=2)\\na resp\\0,1\C,0,-4.016057,-0.448692,-0.00
 0227\C,0,-3.788477,0.929195,-0.000144\C,0,-2.485698,1.414846,0.000071\
 C,0,-1.375663,0.542078,0.000118\C,0,-1.624949,-0.846525,-0.000002\C,0,
 -2.930798,-1.328431,-0.000158\C,0,-0.056775,1.164452,0.000425\C,0,1.21
 8451,0.711399,0.000278\C,0,2.328323,1.688201,0.00006\O,0,3.510384,1.42
 1656,-0.000752\Br,0,1.78025,-1.104631,0.000074\H,0,-5.03183,-0.834392,
 -0.000304\H,0,-4.624469,1.622904,-0.000236\H,0,-2.313754,2.488589,0.00
 0153\H,0,-0.797793,-1.543253,-0.000017\H,0,-3.101709,-2.401362,-0.0002
 15\H,0,-0.105043,2.255197,0.000805\H,0,1.972639,2.74199,0.000723\\Vers
 ion=AM64L-G09RevD.01\State=1-A\HF=-2989.3128458\RMSD=7.940e-09\Dipole=
 -2.163174,0.4649379,0.0007249\Quadrupole=-5.1278309,8.0401799,-2.91234
 9,-1.9684856,0.0052505,0.0032945\PG=C01 [X(C9H7Br1O1)]\\@


 NOTHING PUZZLES ME MORE THAN TIME AND SPACE; AND YET NOTHING TROUBLES ME LESS
                                                          -- CHARLES LAMB (1810)
 Job cpu time:       0 days  0 hours  0 minutes 25.8 seconds.
 File lengths (MBytes):  RWF=     14 Int=      0 D2E=      0 Chk=      2 Scr=      1
 Normal termination of Gaussian 09 at Thu Jan 16 22:37:12 2014.
25.03user 0.79system 0:26.12elapsed 98%CPU (0avgtext+0avgdata 4645424maxresident)k
8inputs+30576outputs (0major+444314minor)pagefaults 0swaps
