Linux g42 2.6.38.6-client #1 SMP Tue Jun 12 11:27:21 CEST 2012 x86_64 GNU/Linux
Fri Jan 17 11:54:32 CET 2014

 Entering Gaussian System, Link 0=/usr/local/programs/common/gaussian/gaussian09_d01/arch/amd64-pgi_10.4.0-acml/g09/g09
 Initial command:
 /usr/local/programs/common/gaussian/gaussian09_d01/arch/amd64-pgi_10.4.0-acml/g09/l1.exe "/scratch/kolar/g09_20199/Gau-20688.inp" -scrdir="/scratch/kolar/g09_20199/"
 Entering Link 1 = /usr/local/programs/common/gaussian/gaussian09_d01/arch/amd64-pgi_10.4.0-acml/g09/l1.exe PID=     20691.
  
 Copyright (c) 1988,1990,1992,1993,1995,1998,2003,2009,2013,
            Gaussian, Inc.  All Rights Reserved.
  
 This is part of the Gaussian(R) 09 program.  It is based on
 the Gaussian(R) 03 system (copyright 2003, Gaussian, Inc.),
 the Gaussian(R) 98 system (copyright 1998, Gaussian, Inc.),
 the Gaussian(R) 94 system (copyright 1995, Gaussian, Inc.),
 the Gaussian 92(TM) system (copyright 1992, Gaussian, Inc.),
 the Gaussian 90(TM) system (copyright 1990, Gaussian, Inc.),
 the Gaussian 88(TM) system (copyright 1988, Gaussian, Inc.),
 the Gaussian 86(TM) system (copyright 1986, Carnegie Mellon
 University), and the Gaussian 82(TM) system (copyright 1983,
 Carnegie Mellon University). Gaussian is a federally registered
 trademark of Gaussian, Inc.
  
 This software contains proprietary and confidential information,
 including trade secrets, belonging to Gaussian, Inc.
  
 This software is provided under written license and may be
 used, copied, transmitted, or stored only in accord with that
 written license.
  
 The following legend is applicable only to US Government
 contracts under FAR:
  
                    RESTRICTED RIGHTS LEGEND
  
 Use, reproduction and disclosure by the US Government is
 subject to restrictions as set forth in subparagraphs (a)
 and (c) of the Commercial Computer Software - Restricted
 Rights clause in FAR 52.227-19.
  
 Gaussian, Inc.
 340 Quinnipiac St., Bldg. 40, Wallingford CT 06492
  
  
 ---------------------------------------------------------------
 Warning -- This program may not be used in any manner that
 competes with the business of Gaussian, Inc. or will provide
 assistance to any competitor of Gaussian, Inc.  The licensee
 of this program is prohibited from giving any competitor of
 Gaussian, Inc. access to this program.  By using this program,
 the user acknowledges that Gaussian, Inc. is engaged in the
 business of creating and licensing software in the field of
 computational chemistry and represents and warrants to the
 licensee that it is not a competitor of Gaussian, Inc. and that
 it will not use this program in any manner prohibited above.
 ---------------------------------------------------------------
  

 Cite this work as:
 Gaussian 09, Revision D.01,
 M. J. Frisch, G. W. Trucks, H. B. Schlegel, G. E. Scuseria, 
 M. A. Robb, J. R. Cheeseman, G. Scalmani, V. Barone, B. Mennucci, 
 G. A. Petersson, H. Nakatsuji, M. Caricato, X. Li, H. P. Hratchian, 
 A. F. Izmaylov, J. Bloino, G. Zheng, J. L. Sonnenberg, M. Hada, 
 M. Ehara, K. Toyota, R. Fukuda, J. Hasegawa, M. Ishida, T. Nakajima, 
 Y. Honda, O. Kitao, H. Nakai, T. Vreven, J. A. Montgomery, Jr., 
 J. E. Peralta, F. Ogliaro, M. Bearpark, J. J. Heyd, E. Brothers, 
 K. N. Kudin, V. N. Staroverov, T. Keith, R. Kobayashi, J. Normand, 
 K. Raghavachari, A. Rendell, J. C. Burant, S. S. Iyengar, J. Tomasi, 
 M. Cossi, N. Rega, J. M. Millam, M. Klene, J. E. Knox, J. B. Cross, 
 V. Bakken, C. Adamo, J. Jaramillo, R. Gomperts, R. E. Stratmann, 
 O. Yazyev, A. J. Austin, R. Cammi, C. Pomelli, J. W. Ochterski, 
 R. L. Martin, K. Morokuma, V. G. Zakrzewski, G. A. Voth, 
 P. Salvador, J. J. Dannenberg, S. Dapprich, A. D. Daniels, 
 O. Farkas, J. B. Foresman, J. V. Ortiz, J. Cioslowski, 
 and D. J. Fox, Gaussian, Inc., Wallingford CT, 2013.
 
 ******************************************
 Gaussian 09:  AM64L-G09RevD.01 24-Apr-2013
                17-Jan-2014 
 ******************************************
 %mem=1800mb
 ------------------------------------------------------------------
 # hf/gen pseudo=read pop=(mk, readradii) iop(6/33=2,6/41=5,6/42=2)
 ------------------------------------------------------------------
 1/38=1/1;
 2/12=2,17=6,18=5,40=1/2;
 3/5=7,11=9,16=1,17=8,25=1,30=1/1,2,3;
 4//1;
 5/5=2,38=5/2;
 6/7=2,8=2,9=2,10=2,15=8,20=101,28=1,33=2,41=5,42=2/1,2;
 99/5=1,9=1/99;
 -------
 na resp
 -------
 Symbolic Z-matrix:
 Charge =  0 Multiplicity = 1
 6                     0.33643  -1.5354   -0.87997 
 6                     1.68606  -1.1783   -0.9108 
 6                     2.177    -0.28567   0.03999 
 6                     1.34186   0.2488    1.02211 
 6                    -0.00485  -0.11335   1.05358 
 6                    -0.49807  -1.00021   0.09713 
 8                    -1.80521  -1.4767    0.14022 
 6                    -2.86698  -0.63434   0.06089 
 6                    -4.13104  -1.21641   0.2132 
 6                    -5.17621  -0.31297   0.0914 
 7                    -5.05392   0.97954  -0.13732 
 6                    -3.78356   1.4107   -0.25302 
 7                    -2.67012   0.65596  -0.16962 
 7                    -3.60379   2.74563  -0.44916 
 9                    -6.42733  -0.76726   0.2101 
 53                    4.24801   0.26931  -0.00311 
 1                    -0.07146  -2.23114  -1.60616 
 1                     2.33693  -1.59597  -1.67067 
 1                     1.72967   0.93891   1.76319 
 1                    -0.66427   0.29283   1.81201 
 1                    -4.27563  -2.27121   0.39891 
 1                    -2.69081   3.05655  -0.74491 
 1                    -4.41019   3.29076  -0.71443 
 
                          Input orientation:                          
 ---------------------------------------------------------------------
 Center     Atomic      Atomic             Coordinates (Angstroms)
 Number     Number       Type             X           Y           Z
 ---------------------------------------------------------------------
      1          6           0        0.336428   -1.535404   -0.879970
      2          6           0        1.686060   -1.178298   -0.910796
      3          6           0        2.176995   -0.285667    0.039992
      4          6           0        1.341857    0.248799    1.022106
      5          6           0       -0.004850   -0.113353    1.053580
      6          6           0       -0.498071   -1.000205    0.097131
      7          8           0       -1.805210   -1.476703    0.140220
      8          6           0       -2.866983   -0.634342    0.060888
      9          6           0       -4.131039   -1.216407    0.213200
     10          6           0       -5.176207   -0.312965    0.091397
     11          7           0       -5.053916    0.979535   -0.137317
     12          6           0       -3.783557    1.410696   -0.253022
     13          7           0       -2.670121    0.655959   -0.169617
     14          7           0       -3.603785    2.745632   -0.449157
     15          9           0       -6.427328   -0.767263    0.210097
     16         53           0        4.248007    0.269307   -0.003113
     17          1           0       -0.071459   -2.231143   -1.606155
     18          1           0        2.336930   -1.595967   -1.670666
     19          1           0        1.729670    0.938911    1.763190
     20          1           0       -0.664265    0.292830    1.812005
     21          1           0       -4.275634   -2.271210    0.398908
     22          1           0       -2.690814    3.056550   -0.744909
     23          1           0       -4.410190    3.290756   -0.714433
 ---------------------------------------------------------------------
                    Distance matrix (angstroms):
                    1          2          3          4          5
     1  C    0.000000
     2  C    1.396417   0.000000
     3  C    2.407459   1.393487   0.000000
     4  C    2.795024   2.427178   1.395585   0.000000
     5  C    2.424317   2.802152   2.411949   1.394907   0.000000
     6  C    1.391960   2.412066   2.769442   2.408511   1.394478
     7  O    2.372941   3.658230   4.157712   3.695823   2.436031
     8  C    3.458174   4.687244   5.056058   4.406610   3.073869
     9  C    4.610319   5.924817   6.378681   5.723089   4.352976
    10  C    5.729490   6.988841   7.353432   6.608098   5.263893
    11  N    5.994352   7.119114   7.342905   6.540959   5.301482
    12  C    5.103611   6.087057   6.204167   5.407941   4.278850
    13  N    3.787613   4.784366   4.942179   4.204991   3.031785
    14  N    5.834222   6.602484   6.545644   5.732204   4.835736
    15  F    6.893960   8.200757   8.619469   7.877308   6.510552
    16  I    4.396170   3.079451   2.144515   3.081753   4.398843
    17  H    1.085251   2.163534   3.398562   3.880120   3.400538
    18  H    2.151947   1.084196   2.160744   3.412382   3.886334
    19  H    3.879388   3.410964   2.160811   1.084370   2.149271
    20  H    3.404490   3.886115   3.398154   2.156480   1.083984
    21  H    4.842319   6.200934   6.760741   6.188298   4.829548
    22  H    5.501679   6.092494   5.956681   5.221900   4.527389
    23  H    6.771234   7.561433   7.533324   6.734621   5.841305
                    6          7          8          9         10
     6  C    0.000000
     7  O    1.391948   0.000000
     8  C    2.397272   1.357655   0.000000
     9  C    3.641246   2.341487   1.399941   0.000000
    10  C    4.728349   3.566552   2.331680   1.386874   0.000000
    11  N    4.972933   4.082184   2.725172   2.407639   1.318265
    12  C    4.090167   3.522154   2.262925   2.690683   2.242567
    13  N    2.744419   2.322136   1.325430   2.405532   2.699520
    14  N    4.896446   4.627132   3.496748   4.051477   3.481340
    15  F    5.934906   4.676768   3.565948   2.339804   1.336331
    16  I    4.913956   6.301629   7.172431   8.512494   9.442658
    17  H    2.144386   2.573888   3.625432   4.562886   5.711352
    18  H    3.393710   4.522262   5.568098   6.747417   7.822927
    19  H    3.390981   4.578712   5.148026   6.433955   7.214792
    20  H    2.154148   2.688469   2.962773   4.105179   4.866734
    21  H    3.997062   2.607903   2.185839   1.080743   2.177227
    22  H    4.687688   4.702992   3.781934   4.609814   4.269686
    23  H    5.863076   5.499547   4.288240   4.610092   3.771333
                   11         12         13         14         15
    11  N    0.000000
    12  C    1.346514   0.000000
    13  N    2.405873   1.347711   0.000000
    14  N    2.306344   1.361191   2.305776   0.000000
    15  F    2.249058   3.456517   4.035635   4.554936   0.000000
    16  I    9.329963   8.116110   6.930925   8.245106  10.727661
    17  H    6.106621   5.373419   4.141503   6.211623   6.770435
    18  H    7.975523   6.964919   5.691650   7.458798   9.002013
    19  H    7.044900   5.889258   4.813935   6.050162   8.477013
    20  H    4.851851   3.904349   2.842912   4.446332   6.074768
    21  H    3.385351   3.771417   3.386622   5.132183   2.631975
    22  H    3.204280   2.035897   2.468649   1.008789   5.430941
    23  H    2.467628   2.034747   3.204188   1.008871   4.625053
                   16         17         18         19         20
    16  I    0.000000
    17  H    5.242116   0.000000
    18  H    3.148364   2.491575   0.000000
    19  H    3.148050   4.964453   4.311118   0.000000
    20  H    5.236948   4.290184   4.970284   2.480066   0.000000
    21  H    8.903275   4.658001   6.961687   6.944769   4.648992
    22  H    7.514401   5.963427   6.912391   5.505964   4.275846
    23  H    9.197799   7.078921   8.385587   7.026213   5.422398
                   21         22         23
    21  H    0.000000
    22  H    5.674945   0.000000
    23  H    5.673896   1.735522   0.000000
 Stoichiometry    C10H7FIN3O
 Framework group  C1[X(C10H7FIN3O)]
 Deg. of freedom    63
 Full point group                 C1      NOp   1
 Largest Abelian subgroup         C1      NOp   1
 Largest concise Abelian subgroup C1      NOp   1
                         Standard orientation:                         
 ---------------------------------------------------------------------
 Center     Atomic      Atomic             Coordinates (Angstroms)
 Number     Number       Type             X           Y           Z
 ---------------------------------------------------------------------
      1          6           0        0.336428   -1.535404   -0.879970
      2          6           0        1.686060   -1.178298   -0.910796
      3          6           0        2.176995   -0.285667    0.039992
      4          6           0        1.341857    0.248799    1.022106
      5          6           0       -0.004850   -0.113353    1.053580
      6          6           0       -0.498071   -1.000205    0.097131
      7          8           0       -1.805210   -1.476703    0.140220
      8          6           0       -2.866983   -0.634342    0.060888
      9          6           0       -4.131039   -1.216407    0.213200
     10          6           0       -5.176207   -0.312965    0.091397
     11          7           0       -5.053916    0.979535   -0.137317
     12          6           0       -3.783557    1.410696   -0.253022
     13          7           0       -2.670121    0.655959   -0.169617
     14          7           0       -3.603785    2.745632   -0.449157
     15          9           0       -6.427328   -0.767263    0.210097
     16         53           0        4.248007    0.269307   -0.003113
     17          1           0       -0.071459   -2.231143   -1.606155
     18          1           0        2.336930   -1.595967   -1.670666
     19          1           0        1.729670    0.938911    1.763190
     20          1           0       -0.664265    0.292830    1.812005
     21          1           0       -4.275634   -2.271210    0.398908
     22          1           0       -2.690814    3.056550   -0.744909
     23          1           0       -4.410190    3.290756   -0.714433
 ---------------------------------------------------------------------
 Rotational constants (GHZ):      1.3132871      0.1058516      0.1004639
 General basis read from cards:  (5D, 7F)
 ======================================================================================================
                                       Pseudopotential Parameters
 ======================================================================================================
  Center     Atomic      Valence      Angular      Power
  Number     Number     Electrons     Momentum     of R      Exponent        Coefficient   SO-Coeffient
 ======================================================================================================
    1          6
                                   No pseudopotential on this center.
    2          6
                                   No pseudopotential on this center.
    3          6
                                   No pseudopotential on this center.
    4          6
                                   No pseudopotential on this center.
    5          6
                                   No pseudopotential on this center.
    6          6
                                   No pseudopotential on this center.
    7          8
                                   No pseudopotential on this center.
    8          6
                                   No pseudopotential on this center.
    9          6
                                   No pseudopotential on this center.
   10          6
                                   No pseudopotential on this center.
   11          7
                                   No pseudopotential on this center.
   12          6
                                   No pseudopotential on this center.
   13          7
                                   No pseudopotential on this center.
   14          7
                                   No pseudopotential on this center.
   15          9
                                   No pseudopotential on this center.
   16         53            7
                                      F and up 
                                                     0        1.0715702       -0.07476210    0.00000000
                                                     1       44.1936028      -30.08112240    0.00000000
                                                     2       12.9367609      -75.37227210    0.00000000
                                                     2        3.1956412      -22.05637580    0.00000000
                                                     2        0.8589806       -1.69795850    0.00000000
                                      S - F
                                                     0      127.9202670        2.93800360    0.00000000
                                                     1       78.6211465       41.24712670    0.00000000
                                                     2       36.5146237      287.86800950    0.00000000
                                                     2        9.9065681      114.37585060    0.00000000
                                                     2        1.9420086       37.65477140    0.00000000
                                      P - F
                                                     0       13.0035304        2.22226300    0.00000000
                                                     1       76.0331404       39.40908310    0.00000000
                                                     2       24.1961684      177.40750020    0.00000000
                                                     2        6.4053433       77.98894620    0.00000000
                                                     2        1.5851786       25.75476410    0.00000000
                                      D - F
                                                     0       40.4278108        7.05243600    0.00000000
                                                     1       28.9084375       33.30416350    0.00000000
                                                     2       15.6268936      186.94538750    0.00000000
                                                     2        4.1442856       71.96883610    0.00000000
                                                     2        0.9377235        9.36306570    0.00000000
   17          1
                                   No pseudopotential on this center.
   18          1
                                   No pseudopotential on this center.
   19          1
                                   No pseudopotential on this center.
   20          1
                                   No pseudopotential on this center.
   21          1
                                   No pseudopotential on this center.
   22          1
                                   No pseudopotential on this center.
   23          1
                                   No pseudopotential on this center.
 ======================================================================================================
 There are   247 symmetry adapted cartesian basis functions of A   symmetry.
 There are   232 symmetry adapted basis functions of A   symmetry.
   232 basis functions,   460 primitive gaussians,   247 cartesian basis functions
    56 alpha electrons       56 beta electrons
       nuclear repulsion energy       981.1465158654 Hartrees.
 NAtoms=   23 NActive=   23 NUniq=   23 SFac= 1.00D+00 NAtFMM=   60 NAOKFM=F Big=F
 Integral buffers will be    131072 words long.
 Raffenetti 1 integral format.
 Two-electron integral symmetry is turned on.
 One-electron integrals computed using PRISM.
   1 Symmetry operations used in ECPInt.
 ECPInt:  NShTT=    3081 NPrTT=   20193 LenC2=    2770 LenP2D=   10960.
 LDataN:  DoStor=T MaxTD1= 5 Len=  102
 NBasis=   232 RedAO= T EigKep=  4.95D-04  NBF=   232
 NBsUse=   232 1.00D-06 EigRej= -1.00D+00 NBFU=   232
 ExpMin= 1.05D-01 ExpMax= 7.00D+03 ExpMxC= 1.05D+03 IAcc=1 IRadAn=         1 AccDes= 0.00D+00
 Harris functional with IExCor=  205 and IRadAn=       1 diagonalized for initial guess.
 HarFok:  IExCor=  205 AccDes= 0.00D+00 IRadAn=         1 IDoV= 1 UseB2=F ITyADJ=14
 ICtDFT=  3500011 ScaDFX=  1.000000  1.000000  1.000000  1.000000
 Defaulting to unpruned grid for atomic number  53.
 FoFCou: FMM=F IPFlag=           0 FMFlag=      100000 FMFlg1=           0
         NFxFlg=           0 DoJE=T BraDBF=F KetDBF=T FulRan=T
         wScrn=  0.000000 ICntrl=     500 IOpCl=  0 I1Cent=   200000004 NGrid=           0
         NMat0=    1 NMatS0=      1 NMatT0=    0 NMatD0=    1 NMtDS0=    0 NMtDT0=    0
 Petite list used in FoFCou.
 Requested convergence on RMS density matrix=1.00D-08 within 128 cycles.
 Requested convergence on MAX density matrix=1.00D-06.
 Requested convergence on             energy=1.00D-06.
 No special actions if energy rises.
 Integral accuracy reduced to 1.0D-05 until final iterations.
 Initial convergence to 1.0D-05 achieved.  Increase integral accuracy.
 SCF Done:  E(RHF) =  -731.573725199     A.U. after   15 cycles
            NFock= 15  Conv=0.94D-08     -V/T= 2.0126

 **********************************************************************

            Population analysis using the SCF density.

 **********************************************************************

 Orbital symmetries:
 BldTbl:  Degeneracy threshold= 1.00D-02
       Occupied  (A) (A) (A) (A) (A) (A) (A) (A) (A) (A) (A) (A)
                 (A) (A) (A) (A) (A) (A) (A) (A) (A) (A) (A) (A)
                 (A) (A) (A) (A) (A) (A) (A) (A) (A) (A) (A) (A)
                 (A) (A) (A) (A) (A) (A) (A) (A) (A) (A) (A) (A)
                 (A) (A) (A) (A) (A) (A) (A) (A)
       Virtual   (A) (A) (A) (A) (A) (A) (A) (A) (A) (A) (A) (A)
                 (A) (A) (A) (A) (A) (A) (A) (A) (A) (A) (A) (A)
                 (A) (A) (A) (A) (A) (A) (A) (A) (A) (A) (A) (A)
                 (A) (A) (A) (A) (A) (A) (A) (A) (A) (A) (A) (A)
                 (A) (A) (A) (A) (A) (A) (A) (A) (A) (A) (A) (A)
                 (A) (A) (A) (A) (A) (A) (A) (A) (A) (A) (A) (A)
                 (A) (A) (A) (A) (A) (A) (A) (A) (A) (A) (A) (A)
                 (A) (A) (A) (A) (A) (A) (A) (A) (A) (A) (A) (A)
                 (A) (A) (A) (A) (A) (A) (A) (A) (A) (A) (A) (A)
                 (A) (A) (A) (A) (A) (A) (A) (A) (A) (A) (A) (A)
                 (A) (A) (A) (A) (A) (A) (A) (A) (A) (A) (A) (A)
                 (A) (A) (A) (A) (A) (A) (A) (A) (A) (A) (A) (A)
                 (A) (A) (A) (A) (A) (A) (A) (A) (A) (A) (A) (A)
                 (A) (A) (A) (A) (A) (A) (A) (A) (A) (A) (A) (A)
                 (A) (A) (A) (A) (A) (A) (A) (A)
 The electronic state is 1-A.
 Alpha  occ. eigenvalues --  -26.32599 -20.63163 -15.59205 -15.57480 -15.57315
 Alpha  occ. eigenvalues --  -11.39712 -11.38370 -11.38194 -11.32226 -11.30114
 Alpha  occ. eigenvalues --  -11.26344 -11.26340 -11.25600 -11.25513 -11.24008
 Alpha  occ. eigenvalues --   -1.64654  -1.46391  -1.34549  -1.22066  -1.21163
 Alpha  occ. eigenvalues --   -1.17289  -1.07446  -1.04085  -1.03275  -0.92212
 Alpha  occ. eigenvalues --   -0.90233  -0.87655  -0.86012  -0.82181  -0.78788
 Alpha  occ. eigenvalues --   -0.77950  -0.71934  -0.71054  -0.70211  -0.68160
 Alpha  occ. eigenvalues --   -0.67350  -0.66781  -0.65025  -0.63802  -0.62821
 Alpha  occ. eigenvalues --   -0.61627  -0.60777  -0.58452  -0.57423  -0.52459
 Alpha  occ. eigenvalues --   -0.51996  -0.50235  -0.46401  -0.46227  -0.43938
 Alpha  occ. eigenvalues --   -0.42601  -0.39514  -0.37203  -0.35636  -0.34381
 Alpha  occ. eigenvalues --   -0.32327
 Alpha virt. eigenvalues --    0.10539   0.11500   0.12013   0.13741   0.14446
 Alpha virt. eigenvalues --    0.22812   0.24506   0.27517   0.27799   0.27959
 Alpha virt. eigenvalues --    0.30288   0.32688   0.33556   0.34063   0.35379
 Alpha virt. eigenvalues --    0.38350   0.40936   0.42596   0.43815   0.44402
 Alpha virt. eigenvalues --    0.46778   0.49465   0.50137   0.52377   0.53553
 Alpha virt. eigenvalues --    0.54865   0.55291   0.56679   0.60610   0.62028
 Alpha virt. eigenvalues --    0.65982   0.68426   0.71347   0.71622   0.73093
 Alpha virt. eigenvalues --    0.73979   0.75061   0.78092   0.79141   0.80090
 Alpha virt. eigenvalues --    0.80152   0.80549   0.81223   0.81629   0.82490
 Alpha virt. eigenvalues --    0.83801   0.84388   0.85339   0.86115   0.87417
 Alpha virt. eigenvalues --    0.88161   0.89293   0.90274   0.90599   0.92897
 Alpha virt. eigenvalues --    0.97116   0.97466   1.00230   1.01111   1.03298
 Alpha virt. eigenvalues --    1.04991   1.06682   1.08542   1.09383   1.10786
 Alpha virt. eigenvalues --    1.11214   1.13304   1.14508   1.16638   1.18141
 Alpha virt. eigenvalues --    1.18566   1.18983   1.20725   1.21144   1.22967
 Alpha virt. eigenvalues --    1.24101   1.26691   1.28290   1.31068   1.32154
 Alpha virt. eigenvalues --    1.34865   1.38546   1.39431   1.40539   1.42854
 Alpha virt. eigenvalues --    1.43743   1.46939   1.49098   1.49749   1.52616
 Alpha virt. eigenvalues --    1.56236   1.57995   1.59506   1.61461   1.62679
 Alpha virt. eigenvalues --    1.66873   1.67714   1.69341   1.69939   1.71306
 Alpha virt. eigenvalues --    1.72483   1.73439   1.74650   1.74947   1.76325
 Alpha virt. eigenvalues --    1.83417   1.85615   1.89456   1.94708   1.95536
 Alpha virt. eigenvalues --    2.00309   2.02973   2.05042   2.06875   2.08071
 Alpha virt. eigenvalues --    2.11137   2.11445   2.12685   2.12972   2.17107
 Alpha virt. eigenvalues --    2.18716   2.20622   2.22768   2.26648   2.26967
 Alpha virt. eigenvalues --    2.28350   2.28911   2.29864   2.32791   2.36972
 Alpha virt. eigenvalues --    2.39770   2.40791   2.42184   2.43962   2.45094
 Alpha virt. eigenvalues --    2.46332   2.51898   2.52758   2.53156   2.58229
 Alpha virt. eigenvalues --    2.59340   2.60662   2.61122   2.64982   2.67610
 Alpha virt. eigenvalues --    2.69976   2.72655   2.74574   2.76957   2.79311
 Alpha virt. eigenvalues --    2.80728   2.87091   2.89773   2.91619   2.92523
 Alpha virt. eigenvalues --    2.93127   2.96747   2.97893   3.00206   3.03566
 Alpha virt. eigenvalues --    3.04398   3.07155   3.07307   3.09301   3.13155
 Alpha virt. eigenvalues --    3.16238   3.21992   3.28667   3.40348   3.44552
 Alpha virt. eigenvalues --    3.54440   3.56922   3.64774   3.74666   3.84526
 Alpha virt. eigenvalues --   10.25512
          Condensed to atoms (all electrons):
               1          2          3          4          5          6
     1  C    4.976690   0.485542  -0.010819  -0.049244  -0.039885   0.560723
     2  C    0.485542   4.959264   0.465604  -0.012910  -0.047193  -0.013596
     3  C   -0.010819   0.465604   5.355815   0.459628  -0.010959  -0.062751
     4  C   -0.049244  -0.012910   0.459628   4.967167   0.483183  -0.006392
     5  C   -0.039885  -0.047193  -0.010959   0.483183   4.974916   0.537638
     6  C    0.560723  -0.013596  -0.062751  -0.006392   0.537638   4.461992
     7  O   -0.043909   0.002955  -0.000146   0.003589  -0.041473   0.177609
     8  C   -0.000057   0.000027  -0.000019  -0.000026  -0.000968  -0.023870
     9  C   -0.000193   0.000002   0.000000  -0.000002   0.000149   0.001538
    10  C    0.000005   0.000000   0.000000   0.000000   0.000011  -0.000009
    11  N   -0.000001   0.000000   0.000000   0.000000  -0.000001  -0.000011
    12  C   -0.000048   0.000000   0.000000   0.000008  -0.000234   0.000163
    13  N   -0.000155  -0.000008   0.000025  -0.000372  -0.004894  -0.006171
    14  N    0.000002   0.000000   0.000000   0.000000   0.000015   0.000003
    15  F    0.000000   0.000000   0.000000   0.000000   0.000000   0.000000
    16  I   -0.000787  -0.054659   0.252506  -0.054335  -0.000747   0.001481
    17  H    0.378741  -0.030812   0.004030  -0.000380   0.003474  -0.030044
    18  H   -0.024812   0.382556  -0.027381   0.002334  -0.000003   0.001863
    19  H    0.000115   0.002232  -0.027197   0.382256  -0.024283   0.001554
    20  H    0.003091  -0.000276   0.003879  -0.030838   0.378073  -0.026403
    21  H    0.000004   0.000000   0.000000   0.000000  -0.000003  -0.000016
    22  H    0.000000   0.000000   0.000000   0.000001   0.000023   0.000002
    23  H    0.000000   0.000000   0.000000   0.000000   0.000000   0.000000
               7          8          9         10         11         12
     1  C   -0.043909  -0.000057  -0.000193   0.000005  -0.000001  -0.000048
     2  C    0.002955   0.000027   0.000002   0.000000   0.000000   0.000000
     3  C   -0.000146  -0.000019   0.000000   0.000000   0.000000   0.000000
     4  C    0.003589  -0.000026  -0.000002   0.000000   0.000000   0.000008
     5  C   -0.041473  -0.000968   0.000149   0.000011  -0.000001  -0.000234
     6  C    0.177609  -0.023870   0.001538  -0.000009  -0.000011   0.000163
     7  O    8.508204   0.251163  -0.049169   0.000683   0.000006   0.001069
     8  C    0.251163   4.149810   0.488508  -0.044584  -0.012599  -0.052733
     9  C   -0.049169   0.488508   5.364278   0.521769  -0.092495  -0.017304
    10  C    0.000683  -0.044584   0.521769   4.037197   0.512668  -0.050965
    11  N    0.000006  -0.012599  -0.092495   0.512668   6.992031   0.482052
    12  C    0.001069  -0.052733  -0.017304  -0.050965   0.482052   4.020781
    13  N   -0.060567   0.499156  -0.077114  -0.015787  -0.095835   0.493284
    14  N   -0.000035   0.000989   0.000012   0.000720  -0.095058   0.337143
    15  F   -0.000003   0.002382  -0.039321   0.237414  -0.046635   0.000337
    16  I    0.000004   0.000000   0.000000   0.000000   0.000000   0.000000
    17  H   -0.000296   0.000182  -0.000023   0.000000   0.000000  -0.000001
    18  H   -0.000041   0.000000   0.000000   0.000000   0.000000   0.000000
    19  H   -0.000035  -0.000003   0.000000   0.000000   0.000000   0.000000
    20  H   -0.003372   0.002506  -0.000043   0.000000   0.000001  -0.000049
    21  H    0.000246  -0.020081   0.368592  -0.017892   0.002250   0.000520
    22  H   -0.000011   0.000060   0.000052  -0.000072   0.003331  -0.022440
    23  H    0.000001  -0.000071   0.000043   0.000103   0.003729  -0.022315
              13         14         15         16         17         18
     1  C   -0.000155   0.000002   0.000000  -0.000787   0.378741  -0.024812
     2  C   -0.000008   0.000000   0.000000  -0.054659  -0.030812   0.382556
     3  C    0.000025   0.000000   0.000000   0.252506   0.004030  -0.027381
     4  C   -0.000372   0.000000   0.000000  -0.054335  -0.000380   0.002334
     5  C   -0.004894   0.000015   0.000000  -0.000747   0.003474  -0.000003
     6  C   -0.006171   0.000003   0.000000   0.001481  -0.030044   0.001863
     7  O   -0.060567  -0.000035  -0.000003   0.000004  -0.000296  -0.000041
     8  C    0.499156   0.000989   0.002382   0.000000   0.000182   0.000000
     9  C   -0.077114   0.000012  -0.039321   0.000000  -0.000023   0.000000
    10  C   -0.015787   0.000720   0.237414   0.000000   0.000000   0.000000
    11  N   -0.095835  -0.095058  -0.046635   0.000000   0.000000   0.000000
    12  C    0.493284   0.337143   0.000337   0.000000  -0.000001   0.000000
    13  N    7.035762  -0.096476   0.000002   0.000000  -0.000023   0.000000
    14  N   -0.096476   7.147516  -0.000016   0.000000   0.000000   0.000000
    15  F    0.000002  -0.000016   9.265494   0.000000   0.000000   0.000000
    16  I    0.000000   0.000000   0.000000   6.665371  -0.000156   0.000083
    17  H   -0.000023   0.000000   0.000000  -0.000156   0.442882  -0.001913
    18  H    0.000000   0.000000   0.000000   0.000083  -0.001913   0.434739
    19  H   -0.000010   0.000000   0.000000   0.000169   0.000007  -0.000083
    20  H    0.001347  -0.000008   0.000000  -0.000157  -0.000084   0.000006
    21  H    0.002374   0.000011  -0.001237   0.000000   0.000005   0.000000
    22  H    0.003497   0.321337   0.000000   0.000000   0.000000   0.000000
    23  H    0.003356   0.320992  -0.000006   0.000000   0.000000   0.000000
              19         20         21         22         23
     1  C    0.000115   0.003091   0.000004   0.000000   0.000000
     2  C    0.002232  -0.000276   0.000000   0.000000   0.000000
     3  C   -0.027197   0.003879   0.000000   0.000000   0.000000
     4  C    0.382256  -0.030838   0.000000   0.000001   0.000000
     5  C   -0.024283   0.378073  -0.000003   0.000023   0.000000
     6  C    0.001554  -0.026403  -0.000016   0.000002   0.000000
     7  O   -0.000035  -0.003372   0.000246  -0.000011   0.000001
     8  C   -0.000003   0.002506  -0.020081   0.000060  -0.000071
     9  C    0.000000  -0.000043   0.368592   0.000052   0.000043
    10  C    0.000000   0.000000  -0.017892  -0.000072   0.000103
    11  N    0.000000   0.000001   0.002250   0.003331   0.003729
    12  C    0.000000  -0.000049   0.000520  -0.022440  -0.022315
    13  N   -0.000010   0.001347   0.002374   0.003497   0.003356
    14  N    0.000000  -0.000008   0.000011   0.321337   0.320992
    15  F    0.000000   0.000000  -0.001237   0.000000  -0.000006
    16  I    0.000169  -0.000157   0.000000   0.000000   0.000000
    17  H    0.000007  -0.000084   0.000005   0.000000   0.000000
    18  H   -0.000083   0.000006   0.000000   0.000000   0.000000
    19  H    0.434731  -0.001712   0.000000   0.000000   0.000000
    20  H   -0.001712   0.437876   0.000000   0.000004   0.000000
    21  H    0.000000   0.000000   0.413271   0.000000   0.000000
    22  H    0.000000   0.000004   0.000000   0.299349  -0.014018
    23  H    0.000000   0.000000   0.000000  -0.014018   0.297563
 Mulliken charges:
               1
     1  C   -0.235003
     2  C   -0.138729
     3  C   -0.402215
     4  C   -0.143666
     5  C   -0.206838
     6  C    0.424695
     7  O   -0.746472
     8  C    0.760230
     9  C   -0.469277
    10  C    0.818740
    11  N   -0.653433
    12  C    0.830733
    13  N   -0.681390
    14  N   -0.937145
    15  F   -0.418410
    16  I    0.191226
    17  H    0.234412
    18  H    0.232653
    19  H    0.232258
    20  H    0.236160
    21  H    0.251958
    22  H    0.408887
    23  H    0.410625
 Sum of Mulliken charges =   0.00000
 Mulliken charges with hydrogens summed into heavy atoms:
               1
     1  C   -0.000590
     2  C    0.093924
     3  C   -0.402215
     4  C    0.088593
     5  C    0.029322
     6  C    0.424695
     7  O   -0.746472
     8  C    0.760230
     9  C   -0.217320
    10  C    0.818740
    11  N   -0.653433
    12  C    0.830733
    13  N   -0.681390
    14  N   -0.117633
    15  F   -0.418410
    16  I    0.191226
 DipInt: DoE/N= T F RetVal/Mat= T F Init=T NMatP=  1 IDeriv=0 Min/MaxMlt=  0  4
 Entering OneElI...
 OneElI was handed   235770960 working-precision words.
 Multipole integrals L=0 to 4 MinM= 0 MaxM= 0.
 Requested accuracy = 0.1000D-12
 ShPair: Thresh= 1.00D-13 NBox=     0 BxSize= 0.00D+00 RnKept= 2.03D+01
         NSMCal=                 3081 NSMKep=                2541
 PrsmSu:  NPrtUS=   1 ThrOK=F IAlg=1 NPAlg=1 LenDen=           0.
 Prism:   IPart=     0 DynPar=F LinDyn=F Incr=          25.
 PRISM was handed   235529059 working-precision words and  2541 shell-pairs
 IPart=  0 NShTot=        2541 NBatch=         103 AvBLen=        24.7
 PrSmSu:  NxtVal=             26.
 Electronic moments (au):
       -112.00000000        369.46977681         23.79642834         -0.61509736
      -4930.60925268       -688.36951314       -213.29117176        185.46077411
         -0.61588407          0.35570629      34589.98647831       -797.54696662
        -40.34691121       3152.93474171       -606.08209065        -66.28486632
         31.32672247         88.58475945        406.56275877       -719.06987376
    -438049.98848549     -12221.95697700      -1508.83182067      -4199.26683843
       3748.95319330       9057.55225357        827.24420949        -12.63298995
       -369.32764937     -28243.05963848      -5096.98679406      -1323.23097439
       3809.70083269      -1194.83215364        561.70975970
 Electronic spatial extent (au):  <R**2>=           5832.2699
 DipInt: DoE/N= F T RetVal/Mat= T F Init=T NMatP=  1 IDeriv=0 Min/MaxMlt=  0  4
 Nuclear    moments (au):
        112.00000000       -369.26820201        -23.41013663          0.27059565
       4836.97794815        617.10628775        137.96764893       -187.92650137
          2.17183312          0.13770600     -34060.26261824        868.13003700
         41.19011430      -3089.86654392        631.08611066         43.56914432
         76.94660515        -79.54085531       -436.31343060        748.74475942
     414754.44344676      10187.48025623        733.32448310       4516.50656659
      -3652.24016405      -9098.51718108       -958.70115083        -13.88054592
        399.04377971      24742.49664107       1538.37161077        835.51571688
      -3932.56110871       1317.56342161       -501.72517669
 Total      moments (au):
          0.00000000          0.20157480          0.38629170         -0.34450171
        -93.63130453        -71.26322540        -75.32352283         -2.46572726
          1.55594904          0.49341229        529.72386007         70.58307037
          0.84320309         63.06819779         25.00402001        -22.71572200
        108.27332762          9.04390414        -29.75067183         29.67488565
     -23295.54503873      -2034.47672077       -775.50733756        317.23972816
         96.71302925        -40.96492751       -131.45694134        -26.51353587
         29.71613034      -3500.56299741      -3558.61518328       -487.71525751
       -122.86027602        122.73126796         59.98458301
 Traceless Quadrup. (au):
        -13.55862028          8.80945886          4.74916143         -2.46572726
          1.55594904          0.49341229
 Charge=              0.0000 electrons
 Dipole moment (field-independent basis, Debye):
    X=              0.5124    Y=              0.9819    Z=             -0.8756  Tot=              1.4118
 Quadrupole moment (field-independent basis, Debye-Ang):
   XX=           -125.9373   YY=            -95.8515   ZZ=           -101.3127
   XY=             -3.3165   XZ=              2.0928   YZ=              0.6637
 Traceless Quadrupole moment (field-independent basis, Debye-Ang):
   XX=            -18.2368   YY=             11.8490   ZZ=              6.3878
   XY=             -3.3165   XZ=              2.0928   YZ=              0.6637
 Octapole moment (field-independent basis, Debye-Ang**2):
  XXX=            377.0370  YYY=             50.2383  ZZZ=              0.6002  XYY=             44.8895
  XXY=             17.7969  XXZ=            -16.1682  XZZ=             77.0648  YZZ=              6.4371
  YYZ=            -21.1754  XYZ=             21.1214
 Hexadecapole moment (field-independent basis, Debye-Ang**3):
 XXXX=          -8774.2187 YYYY=           -766.2814 ZZZZ=           -292.0932 XXXY=            119.4877
 XXXZ=             36.4268 YYYX=            -15.4294 YYYZ=            -49.5130 ZZZX=             -9.9863
 ZZZY=             11.1925 XXYY=          -1318.4798 XXZZ=          -1340.3450 YYZZ=           -183.6969
 XXYZ=            -46.2751 YYXZ=             46.2265 ZZXY=             22.5931
 N-N= 9.811465158654D+02 E-N=-3.672917802164D+03  KE= 7.224867172556D+02
 Entering OneElI...
 OneElI was handed   235807966 working-precision words.
 Calculate electrostatic properties
    NBasis =   232  MinDer = 0  MaxDer = 0
    NGrid  =    23  NMatD  =   1
 Requested accuracy = 0.1000D-12
 PrtBox:  NBox=     1 Levels=  1 BoxLen=   37.65 SMaxX=       20.17
          Shift=           12.145890            4.291965            3.157101
 Box      1 Number                   0 centers from      1 to     78:
 ShPair: Thresh= 1.00D-13 NBox=     1 BxSize= 3.77D+01 RnKept= 1.78D+01
         NSMCal=                 3081 NSMKep=                2293
 PrsmSu:  NPrtUS=   1 ThrOK=F IAlg=1 NPAlg=1 LenDen=           0.
 Prism:   IPart=     0 DynPar=F LinDyn=F Incr=         512.
 PRISM was handed   235586232 working-precision words and  2293 shell-pairs
 IPart=  0 NShTot=       52739 NBatch=        2293 AvBLen=        23.0
 PrSmSu:  NxtVal=            513.
 --------------------------------------------------------
       Center         ----      EFG at Nuclei      ----
                      3XX-RR        3YY-RR        3ZZ-RR
 --------------------------------------------------------
     1   Atom        0.144368     -0.109572     -0.034796
     2   Atom        0.157120     -0.131828     -0.025292
     3   Atom       -0.259014      0.059114      0.199900
     4   Atom        0.146489     -0.122355     -0.024134
     5   Atom        0.139444     -0.102928     -0.036516
     6   Atom       -0.239655      0.044576      0.195079
     7   Atom       -1.798036      0.323300      1.474736
     8   Atom        0.173558      0.235260     -0.408817
     9   Atom       -0.037857      0.019533      0.018325
    10   Atom       -0.084716      0.412164     -0.327448
    11   Atom        0.211586     -0.042303     -0.169284
    12   Atom        0.260295      0.195389     -0.455684
    13   Atom        0.522887     -0.360789     -0.162098
    14   Atom       -0.419137     -0.466470      0.885607
    15   Atom       -2.312507      1.171067      1.141440
    16   Atom       -0.079211      0.035553      0.043658
    17   Atom        0.081518     -0.029192     -0.052325
    18   Atom       -0.018609      0.089190     -0.070581
    19   Atom        0.085539     -0.025636     -0.059903
    20   Atom       -0.022982      0.094337     -0.071355
    21   Atom        0.133128     -0.297501      0.164373
    22   Atom       -0.295432      0.114317      0.181114
    23   Atom       -0.192600      0.001576      0.191024
 --------------------------------------------------------
                        XY            XZ            YZ
 --------------------------------------------------------
     1   Atom        0.073038     -0.056146      0.190311
     2   Atom        0.076501     -0.074305      0.214181
     3   Atom       -0.086204     -0.044189      0.202189
     4   Atom        0.095452     -0.048724      0.217657
     5   Atom        0.078261     -0.064429      0.192295
     6   Atom       -0.094227     -0.061423      0.263907
     7   Atom        0.401882     -0.063320      0.128844
     8   Atom        0.234559     -0.067933     -0.120714
     9   Atom        0.006790      0.002207     -0.000131
    10   Atom       -0.252724      0.034747     -0.123020
    11   Atom       -0.655153      0.098942      0.002159
    12   Atom       -0.007252     -0.028381     -0.132480
    13   Atom        0.521202     -0.113644      0.029191
    14   Atom        0.000019      0.080940      0.417257
    15   Atom       -1.451350      0.361599      0.046518
    16   Atom       -0.033144      0.002955     -0.000560
    17   Atom       -0.111574     -0.109832     -0.205868
    18   Atom        0.099737      0.192267     -0.133611
    19   Atom       -0.106051     -0.105847     -0.207461
    20   Atom        0.096710      0.196074     -0.131829
    21   Atom       -0.060600      0.012142      0.083759
    22   Atom       -0.159266      0.163664      0.074630
    23   Atom        0.246277     -0.123629      0.106358
 --------------------------------------------------------


 ---------------------------------------------------------------------------------
              Nuclear Quadrupole Coupling Constant in Principal Axis System
 ---------------------------------------------------------------------------------

       Atom             a.u.   MegaHertz   Gauss  10(-4) cm-1        Axes

              Baa    -0.5927     2.846     1.016     0.949  0.6354  0.7570 -0.1524
    11 N(14)  Bbb    -0.1654     0.794     0.283     0.265  0.0350  0.1689  0.9850
              Bcc     0.7581    -3.641    -1.299    -1.214  0.7714 -0.6312  0.0808
 
              Baa    -0.6146     2.952     1.053     0.985 -0.4244  0.8905 -0.1640
    13 N(14)  Bbb    -0.1586     0.762     0.272     0.254  0.0186  0.1897  0.9817
              Bcc     0.7732    -3.713    -1.325    -1.239  0.9053  0.4136 -0.0971
 
              Baa    -0.5878     2.823     1.007     0.942  0.1327  0.9517 -0.2768
    14 N(14)  Bbb    -0.4204     2.019     0.720     0.674  0.9897 -0.1426 -0.0158
              Bcc     1.0083    -4.842    -1.728    -1.615  0.0545  0.2718  0.9608
 
              Baa    -0.0882   -14.706    -5.247    -4.905  0.9658  0.2587 -0.0206
    16 I(127) Bbb     0.0427     7.127     2.543     2.377 -0.1408  0.5890  0.7957
              Bcc     0.0454     7.579     2.704     2.528 -0.2179  0.7656 -0.6053
 

 ---------------------------------------------------------------------------------

 No NMR shielding tensors so no spin-rotation constants.
 Leave Link  601 at Fri Jan 17 11:57:11 2014, MaxMem=   235929600 cpu:         0.3
 FitSet:  NAtFit=    23 NAtPot=    23 NAtFrz=     0 MDM=    27 TotChg=   0.00000
 Merz-Kollman atomic radii used.
 Read replacement radii for each type of atom:
 Rad(53) =   2.700000000000D+00
 Atom Element Radius
    1     6    1.50
    2     6    1.50
    3     6    1.50
    4     6    1.50
    5     6    1.50
    6     6    1.50
    7     8    1.40
    8     6    1.50
    9     6    1.50
   10     6    1.50
   11     7    1.50
   12     6    1.50
   13     7    1.50
   14     7    1.50
   15     9    1.35
   16    53    2.70
   17     1    1.20
   18     1    1.20
   19     1    1.20
   20     1    1.20
   21     1    1.20
   22     1    1.20
   23     1    1.20
 Generate VDW surfaces: Layer= 5 Dens= 2 Start= 1.400 Inc= 0.179

 **********************************************************************

            Electrostatic Properties Using The SCF Density

 **********************************************************************

       Atomic Center    1 is at   0.336428 -1.535404 -0.879970
       Atomic Center    2 is at   1.686060 -1.178298 -0.910796
       Atomic Center    3 is at   2.176995 -0.285667  0.039992
       Atomic Center    4 is at   1.341857  0.248799  1.022106
       Atomic Center    5 is at  -0.004850 -0.113353  1.053580
       Atomic Center    6 is at  -0.498071 -1.000205  0.097131
       Atomic Center    7 is at  -1.805210 -1.476703  0.140220
       Atomic Center    8 is at  -2.866983 -0.634342  0.060888
       Atomic Center    9 is at  -4.131039 -1.216407  0.213200
       Atomic Center   10 is at  -5.176207 -0.312965  0.091397
       Atomic Center   11 is at  -5.053916  0.979535 -0.137317
       Atomic Center   12 is at  -3.783557  1.410696 -0.253022
       Atomic Center   13 is at  -2.670121  0.655959 -0.169617
       Atomic Center   14 is at  -3.603785  2.745632 -0.449157
       Atomic Center   15 is at  -6.427328 -0.767263  0.210097
       Atomic Center   16 is at   4.248007  0.269307 -0.003113
       Atomic Center   17 is at  -0.071459 -2.231143 -1.606155
       Atomic Center   18 is at   2.336930 -1.595967 -1.670666
       Atomic Center   19 is at   1.729670  0.938911  1.763190
       Atomic Center   20 is at  -0.664265  0.292830  1.812005
       Atomic Center   21 is at  -4.275634 -2.271210  0.398908
       Atomic Center   22 is at  -2.690814  3.056550 -0.744909
       Atomic Center   23 is at  -4.410190  3.290756 -0.714433
      ESP Fit Center   24 is at   0.897177 -2.763274  0.728723
      ESP Fit Center   25 is at  -0.572899 -3.110404  0.170030
      ESP Fit Center   26 is at   0.146327 -3.344095  0.170030
      ESP Fit Center   27 is at   0.898423 -3.265046  0.170030
      ESP Fit Center   28 is at  -0.229534 -3.524552 -0.515309
      ESP Fit Center   29 is at   0.527248 -3.594678 -0.515309
      ESP Fit Center   30 is at   1.258258 -3.386688 -0.515309
      ESP Fit Center   31 is at   1.258258 -3.386688 -1.244631
      ESP Fit Center   32 is at   0.146327  0.273286 -1.929970
      ESP Fit Center   33 is at  -0.572899  0.039596 -1.929970
      ESP Fit Center   34 is at  -1.134894 -0.466426 -1.929970
      ESP Fit Center   35 is at  -1.442484 -1.157285 -1.929970
      ESP Fit Center   36 is at   0.144324 -0.199290 -2.488663
      ESP Fit Center   37 is at  -0.547539 -0.515253 -2.488663
      ESP Fit Center   38 is at   0.695549 -0.913388 -2.853324
      ESP Fit Center   39 is at  -0.022693 -0.913388 -2.853324
      ESP Fit Center   40 is at   1.493956 -2.514413  0.697897
      ESP Fit Center   41 is at   1.495959 -2.986989  0.139204
      ESP Fit Center   42 is at   1.876880 -3.237572 -0.546135
      ESP Fit Center   43 is at   1.876880 -3.237572 -1.275457
      ESP Fit Center   44 is at   0.776733  0.396702 -1.960796
      ESP Fit Center   45 is at   0.802093 -0.158147 -2.519489
      ESP Fit Center   46 is at   1.326939 -0.556282 -2.884150
      ESP Fit Center   47 is at   0.967818 -1.178298 -2.884150
      ESP Fit Center   48 is at   1.267668 -1.860667  1.089992
      ESP Fit Center   49 is at   0.982736 -0.373217  2.995461
      ESP Fit Center   50 is at   1.700978 -0.373217  2.995461
      ESP Fit Center   51 is at   1.149753 -1.087316  2.630799
      ESP Fit Center   52 is at   1.151756 -1.559892  2.072106
      ESP Fit Center   53 is at   0.775895  2.237947  0.657445
      ESP Fit Center   54 is at   0.432530  1.823799 -0.027894
      ESP Fit Center   55 is at   0.457891  1.268950 -0.586587
      ESP Fit Center   56 is at   0.713392 -0.113353  3.026935
      ESP Fit Center   57 is at   0.354271 -0.735369  3.026935
      ESP Fit Center   58 is at  -0.196954 -1.449467  2.662273
      ESP Fit Center   59 is at   0.555899 -1.341223  2.662273
      ESP Fit Center   60 is at  -1.476172 -1.182331  2.103580
      ESP Fit Center   61 is at  -0.914177 -1.688353  2.103580
      ESP Fit Center   62 is at  -0.194951 -1.922044  2.103580
      ESP Fit Center   63 is at   0.557145 -1.842995  2.103580
      ESP Fit Center   64 is at   0.916980 -1.964637  1.418241
      ESP Fit Center   65 is at  -0.570812  1.875795  0.688919
      ESP Fit Center   66 is at  -0.194951  1.695337  0.003580
      ESP Fit Center   67 is at  -0.196954  1.222761 -0.555113
      ESP Fit Center   68 is at  -0.690175 -2.336319  1.705824
      ESP Fit Center   69 is at   0.062678 -2.228075  1.705824
      ESP Fit Center   70 is at  -0.688172 -2.808896  1.147131
      ESP Fit Center   71 is at   0.063924 -2.729847  1.147131
      ESP Fit Center   72 is at   0.718845 -2.351728  1.147131
      ESP Fit Center   73 is at  -0.307251 -3.059479  0.461792
      ESP Fit Center   74 is at   0.063924  0.729437 -0.952869
      ESP Fit Center   75 is at  -0.688172  0.808486 -0.952869
      ESP Fit Center   76 is at  -0.690175  0.335909 -1.511562
      ESP Fit Center   77 is at  -1.805210 -1.476703  2.100220
      ESP Fit Center   78 is at  -2.180240 -2.126274  1.951024
      ESP Fit Center   79 is at  -1.430180 -2.126274  1.951024
      ESP Fit Center   80 is at  -2.498175 -2.676953  1.526149
      ESP Fit Center   81 is at  -1.805210 -2.862632  1.526149
      ESP Fit Center   82 is at  -1.112246 -2.676953  1.526149
      ESP Fit Center   83 is at  -2.710612 -3.044905  0.890280
      ESP Fit Center   84 is at  -1.994491 -3.277587  0.890280
      ESP Fit Center   85 is at  -1.245641 -3.198880  0.890280
      ESP Fit Center   86 is at  -2.341590 -3.361881  0.140220
      ESP Fit Center   87 is at  -1.624364 -3.428342  0.140220
      ESP Fit Center   88 is at  -0.931563 -3.231223  0.140220
      ESP Fit Center   89 is at  -2.710612 -3.044905 -0.609839
      ESP Fit Center   90 is at  -1.994491 -3.277587 -0.609839
      ESP Fit Center   91 is at  -1.245641 -3.198880 -0.609839
      ESP Fit Center   92 is at  -2.498175 -2.676953 -1.245709
      ESP Fit Center   93 is at  -1.805210 -2.862632 -1.245709
      ESP Fit Center   94 is at  -2.180240 -2.126274 -1.670584
      ESP Fit Center   95 is at  -1.805210 -1.476703 -1.819780
      ESP Fit Center   96 is at  -2.866983 -0.634342  2.160888
      ESP Fit Center   97 is at  -2.148741 -0.634342  2.034243
      ESP Fit Center   98 is at  -2.507862 -0.012326  2.034243
      ESP Fit Center   99 is at  -3.226104 -0.012326  2.034243
      ESP Fit Center  100 is at  -2.507862 -1.256358  2.034243
      ESP Fit Center  101 is at  -3.750950  0.385810  1.669581
      ESP Fit Center  102 is at  -3.059087 -1.970456 -1.547805
      ESP Fit Center  103 is at  -2.148741 -0.634342 -1.912466
      ESP Fit Center  104 is at  -3.585225 -0.634342 -1.912466
      ESP Fit Center  105 is at  -3.226104 -1.256358 -1.912466
      ESP Fit Center  106 is at  -2.507862 -1.256358 -1.912466
      ESP Fit Center  107 is at  -2.866983 -0.634342 -2.039112
      ESP Fit Center  108 is at  -4.131039 -1.216407  2.313200
      ESP Fit Center  109 is at  -3.412797 -1.216407  2.186555
      ESP Fit Center  110 is at  -3.771918 -0.594391  2.186555
      ESP Fit Center  111 is at  -4.490160 -0.594391  2.186555
      ESP Fit Center  112 is at  -4.849281 -1.216407  2.186555
      ESP Fit Center  113 is at  -4.490160 -1.838423  2.186555
      ESP Fit Center  114 is at  -3.771918 -1.838423  2.186555
      ESP Fit Center  115 is at  -5.426215 -1.596705  1.821893
      ESP Fit Center  116 is at  -2.995470 -1.946193  1.821893
      ESP Fit Center  117 is at  -5.602361 -2.285385 -0.836800
      ESP Fit Center  118 is at  -5.015006 -2.236558 -1.395493
      ESP Fit Center  119 is at  -4.323143 -2.552521 -1.395493
      ESP Fit Center  120 is at  -3.570290 -2.444277 -1.395493
      ESP Fit Center  121 is at  -4.490160 -1.838423 -1.760154
      ESP Fit Center  122 is at  -3.771918 -1.838423 -1.760154
      ESP Fit Center  123 is at  -4.131039 -1.216407 -1.886800
      ESP Fit Center  124 is at  -5.176207 -0.312965  2.191397
      ESP Fit Center  125 is at  -4.817086  0.309051  2.064752
      ESP Fit Center  126 is at  -5.535328  0.309051  2.064752
      ESP Fit Center  127 is at  -5.894449 -0.312965  2.064752
      ESP Fit Center  128 is at  -5.535328 -0.934981  2.064752
      ESP Fit Center  129 is at  -4.040638  0.416821  1.700090
      ESP Fit Center  130 is at  -6.060174  0.707187  1.700090
      ESP Fit Center  131 is at  -6.471383  0.067333 -1.517296
      ESP Fit Center  132 is at  -5.368311 -1.649079 -1.517296
      ESP Fit Center  133 is at  -4.457965 -0.312965 -1.881957
      ESP Fit Center  134 is at  -5.894449 -0.312965 -1.881957
      ESP Fit Center  135 is at  -5.535328 -0.934981 -1.881957
      ESP Fit Center  136 is at  -4.817086 -0.934981 -1.881957
      ESP Fit Center  137 is at  -5.176207 -0.312965 -2.008603
      ESP Fit Center  138 is at  -5.053916  0.979535  1.962683
      ESP Fit Center  139 is at  -4.335674  0.979535  1.836038
      ESP Fit Center  140 is at  -4.694795  1.601551  1.836038
      ESP Fit Center  141 is at  -5.413037  1.601551  1.836038
      ESP Fit Center  142 is at  -5.772158  0.979535  1.836038
      ESP Fit Center  143 is at  -5.246020  2.315650  1.471376
      ESP Fit Center  144 is at  -5.937882  1.999687  1.471376
      ESP Fit Center  145 is at  -6.349092  1.359833  1.471376
      ESP Fit Center  146 is at  -5.244017  2.788226  0.912683
      ESP Fit Center  147 is at  -5.963243  2.554535  0.912683
      ESP Fit Center  148 is at  -6.525238  2.048513  0.912683
      ESP Fit Center  149 is at  -6.832828  1.357654  0.912683
      ESP Fit Center  150 is at  -6.300223  2.629912  0.227344
      ESP Fit Center  151 is at  -6.812247  2.068248  0.227344
      ESP Fit Center  152 is at  -7.086799  1.359547  0.227344
      ESP Fit Center  153 is at  -6.300223  2.629912 -0.501978
      ESP Fit Center  154 is at  -6.812247  2.068248 -0.501978
      ESP Fit Center  155 is at  -7.086799  1.359547 -0.501978
      ESP Fit Center  156 is at  -5.963243  2.554535 -1.187317
      ESP Fit Center  157 is at  -6.525238  2.048513 -1.187317
      ESP Fit Center  158 is at  -6.832828  1.357654 -1.187317
      ESP Fit Center  159 is at  -6.832828  0.601416 -1.187317
      ESP Fit Center  160 is at  -5.937882  1.999687 -1.746010
      ESP Fit Center  161 is at  -6.349092  1.359833 -1.746010
      ESP Fit Center  162 is at  -6.349092  0.599237 -1.746010
      ESP Fit Center  163 is at  -5.413037  1.601551 -2.110671
      ESP Fit Center  164 is at  -5.772158  0.979535 -2.110671
      ESP Fit Center  165 is at  -5.413037  0.357519 -2.110671
      ESP Fit Center  166 is at  -4.694795  0.357519 -2.110671
      ESP Fit Center  167 is at  -5.053916  0.979535 -2.237317
      ESP Fit Center  168 is at  -3.783557  1.410696  1.846978
      ESP Fit Center  169 is at  -3.424436  2.032712  1.720333
      ESP Fit Center  170 is at  -4.142678  2.032712  1.720333
      ESP Fit Center  171 is at  -2.647988  2.140482  1.355671
      ESP Fit Center  172 is at  -4.667523  2.430848  1.355671
      ESP Fit Center  173 is at  -3.975661  0.074582 -1.861715
      ESP Fit Center  174 is at  -3.065315  1.410696 -2.226376
      ESP Fit Center  175 is at  -4.501799  1.410696 -2.226376
      ESP Fit Center  176 is at  -4.142678  0.788680 -2.226376
      ESP Fit Center  177 is at  -3.424436  0.788680 -2.226376
      ESP Fit Center  178 is at  -3.783557  1.410696 -2.353022
      ESP Fit Center  179 is at  -2.670121  0.655959  1.930383
      ESP Fit Center  180 is at  -2.311000  1.277975  1.803738
      ESP Fit Center  181 is at  -3.029242  1.277975  1.803738
      ESP Fit Center  182 is at  -3.388363  0.655959  1.803738
      ESP Fit Center  183 is at  -2.109371  1.883829  1.439076
      ESP Fit Center  184 is at  -1.453204  2.007482  0.880383
      ESP Fit Center  185 is at  -1.141780  2.049226  0.195044
      ESP Fit Center  186 is at  -0.741679  1.403042 -0.534278
      ESP Fit Center  187 is at  -1.141780  2.049226 -0.534278
      ESP Fit Center  188 is at  -0.851468  0.655959 -1.219617
      ESP Fit Center  189 is at  -1.008699  1.395672 -1.219617
      ESP Fit Center  190 is at  -1.453204  2.007482 -1.219617
      ESP Fit Center  191 is at  -1.320267  0.655959 -1.778310
      ESP Fit Center  192 is at  -1.534552  1.385745 -1.778310
      ESP Fit Center  193 is at  -1.534552 -0.073827 -1.778310
      ESP Fit Center  194 is at  -1.951879  0.655959 -2.142971
      ESP Fit Center  195 is at  -2.311000  1.277975 -2.142971
      ESP Fit Center  196 is at  -3.029242  0.033943 -2.142971
      ESP Fit Center  197 is at  -2.311000  0.033943 -2.142971
      ESP Fit Center  198 is at  -2.670121  0.655959 -2.269617
      ESP Fit Center  199 is at  -3.603785  2.745632  1.650843
      ESP Fit Center  200 is at  -2.885543  2.745632  1.524198
      ESP Fit Center  201 is at  -3.244664  3.367648  1.524198
      ESP Fit Center  202 is at  -3.962906  3.367648  1.524198
      ESP Fit Center  203 is at  -4.322027  2.745632  1.524198
      ESP Fit Center  204 is at  -2.253931  2.745632  1.159536
      ESP Fit Center  205 is at  -2.468216  3.475418  1.159536
      ESP Fit Center  206 is at  -3.043035  3.973502  1.159536
      ESP Fit Center  207 is at  -3.795889  4.081746  1.159536
      ESP Fit Center  208 is at  -4.487751  3.765784  1.159536
      ESP Fit Center  209 is at  -4.898960  3.125930  1.159536
      ESP Fit Center  210 is at  -2.386868  4.097155  0.600843
      ESP Fit Center  211 is at  -3.041790  4.475274  0.600843
      ESP Fit Center  212 is at  -3.793886  4.554323  0.600843
      ESP Fit Center  213 is at  -3.412965  4.804906 -0.084496
      ESP Fit Center  214 is at  -3.412965  4.804906 -0.813818
      ESP Fit Center  215 is at  -4.898960  2.365334 -2.057850
      ESP Fit Center  216 is at  -2.468216  2.015846 -2.057850
      ESP Fit Center  217 is at  -2.885543  2.745632 -2.422511
      ESP Fit Center  218 is at  -3.244664  3.367648 -2.422511
      ESP Fit Center  219 is at  -3.962906  3.367648 -2.422511
      ESP Fit Center  220 is at  -4.322027  2.745632 -2.422511
      ESP Fit Center  221 is at  -3.962906  2.123616 -2.422511
      ESP Fit Center  222 is at  -3.244664  2.123616 -2.422511
      ESP Fit Center  223 is at  -3.603785  2.745632 -2.549157
      ESP Fit Center  224 is at  -6.427328 -0.767263  2.100097
      ESP Fit Center  225 is at  -6.788964 -0.140891  1.956229
      ESP Fit Center  226 is at  -7.150600 -0.767263  1.956229
      ESP Fit Center  227 is at  -6.788964 -1.393634  1.956229
      ESP Fit Center  228 is at  -6.065692 -1.393634  1.956229
      ESP Fit Center  229 is at  -6.617522  0.555566  1.546529
      ESP Fit Center  230 is at  -7.302505  0.242745  1.546529
      ESP Fit Center  231 is at  -7.709625 -0.390746  1.546529
      ESP Fit Center  232 is at  -7.709625 -1.143779  1.546529
      ESP Fit Center  233 is at  -7.302505 -1.777271  1.546529
      ESP Fit Center  234 is at  -6.617522 -2.090092  1.546529
      ESP Fit Center  235 is at  -5.872154 -1.982924  1.546529
      ESP Fit Center  236 is at  -7.516024  0.597918  0.933369
      ESP Fit Center  237 is at  -8.000539 -0.009644  0.933369
      ESP Fit Center  238 is at  -8.173460 -0.767263  0.933369
      ESP Fit Center  239 is at  -8.000539 -1.524881  0.933369
      ESP Fit Center  240 is at  -7.516024 -2.132444  0.933369
      ESP Fit Center  241 is at  -6.815879 -2.469616  0.933369
      ESP Fit Center  242 is at  -6.038777 -2.469616  0.933369
      ESP Fit Center  243 is at  -7.150600  0.978869  0.210097
      ESP Fit Center  244 is at  -7.763760  0.569169  0.210097
      ESP Fit Center  245 is at  -8.173460 -0.043991  0.210097
      ESP Fit Center  246 is at  -8.317328 -0.767263  0.210097
      ESP Fit Center  247 is at  -8.173460 -1.490535  0.210097
      ESP Fit Center  248 is at  -7.763760 -2.103695  0.210097
      ESP Fit Center  249 is at  -7.150600 -2.513395  0.210097
      ESP Fit Center  250 is at  -6.427328 -2.657263  0.210097
      ESP Fit Center  251 is at  -7.516024  0.597918 -0.513175
      ESP Fit Center  252 is at  -8.000539 -0.009644 -0.513175
      ESP Fit Center  253 is at  -8.173460 -0.767263 -0.513175
      ESP Fit Center  254 is at  -8.000539 -1.524881 -0.513175
      ESP Fit Center  255 is at  -7.516024 -2.132444 -0.513175
      ESP Fit Center  256 is at  -6.815879 -2.469616 -0.513175
      ESP Fit Center  257 is at  -6.038777 -2.469616 -0.513175
      ESP Fit Center  258 is at  -7.302505  0.242745 -1.126335
      ESP Fit Center  259 is at  -7.709625 -0.390746 -1.126335
      ESP Fit Center  260 is at  -7.709625 -1.143779 -1.126335
      ESP Fit Center  261 is at  -7.302505 -1.777271 -1.126335
      ESP Fit Center  262 is at  -6.617522 -2.090092 -1.126335
      ESP Fit Center  263 is at  -5.872154 -1.982924 -1.126335
      ESP Fit Center  264 is at  -6.788964 -0.140891 -1.536035
      ESP Fit Center  265 is at  -7.150600 -0.767263 -1.536035
      ESP Fit Center  266 is at  -6.788964 -1.393634 -1.536035
      ESP Fit Center  267 is at  -6.065692 -1.393634 -1.536035
      ESP Fit Center  268 is at  -6.427328 -0.767263 -1.679903
      ESP Fit Center  269 is at   4.248007  0.269307  3.776887
      ESP Fit Center  270 is at   4.985448  0.269307  3.704255
      ESP Fit Center  271 is at   4.616728  0.907950  3.704255
      ESP Fit Center  272 is at   3.879286  0.907950  3.704255
      ESP Fit Center  273 is at   3.510565  0.269307  3.704255
      ESP Fit Center  274 is at   3.879286 -0.369336  3.704255
      ESP Fit Center  275 is at   4.616728 -0.369336  3.704255
      ESP Fit Center  276 is at   5.694550  0.269307  3.489152
      ESP Fit Center  277 is at   5.500750  0.992578  3.489152
      ESP Fit Center  278 is at   4.971279  1.522050  3.489152
      ESP Fit Center  279 is at   4.248007  1.715850  3.489152
      ESP Fit Center  280 is at   3.524735  1.522050  3.489152
      ESP Fit Center  281 is at   2.995264  0.992578  3.489152
      ESP Fit Center  282 is at   2.801464  0.269307  3.489152
      ESP Fit Center  283 is at   2.995264 -0.453965  3.489152
      ESP Fit Center  284 is at   3.524735 -0.983437  3.489152
      ESP Fit Center  285 is at   4.248007 -1.177237  3.489152
      ESP Fit Center  286 is at   4.971279 -0.983437  3.489152
      ESP Fit Center  287 is at   5.500750 -0.453965  3.489152
      ESP Fit Center  288 is at   6.348062  0.269307  3.139842
      ESP Fit Center  289 is at   6.221414  0.987568  3.139842
      ESP Fit Center  290 is at   5.856743  1.619196  3.139842
      ESP Fit Center  291 is at   5.298035  2.088008  3.139842
      ESP Fit Center  292 is at   4.612678  2.337458  3.139842
      ESP Fit Center  293 is at   3.883336  2.337458  3.139842
      ESP Fit Center  294 is at   3.197979  2.088008  3.139842
      ESP Fit Center  295 is at   2.639271  1.619196  3.139842
      ESP Fit Center  296 is at   2.274600 -0.448955  3.139842
      ESP Fit Center  297 is at   2.639271 -1.080583  3.139842
      ESP Fit Center  298 is at   3.197979 -1.549395  3.139842
      ESP Fit Center  299 is at   3.883336 -1.798844  3.139842
      ESP Fit Center  300 is at   4.612678 -1.798844  3.139842
      ESP Fit Center  301 is at   5.298035 -1.549395  3.139842
      ESP Fit Center  302 is at   5.856743 -1.080583  3.139842
      ESP Fit Center  303 is at   6.221414 -0.448955  3.139842
      ESP Fit Center  304 is at   6.920871  0.269307  2.669751
      ESP Fit Center  305 is at   6.821753  0.990437  2.669751
      ESP Fit Center  306 is at   6.531753  1.658084  2.669751
      ESP Fit Center  307 is at   6.072378  2.222732  2.669751
      ESP Fit Center  308 is at   5.477698  2.642503  2.669751
      ESP Fit Center  309 is at   4.791817  2.886265  2.669751
      ESP Fit Center  310 is at   4.065604  2.935939  2.669751
      ESP Fit Center  311 is at   3.352919  2.787842  2.669751
      ESP Fit Center  312 is at   2.706619  2.452956  2.669751
      ESP Fit Center  313 is at   2.174636 -1.417505  2.669751
      ESP Fit Center  314 is at   2.706619 -1.914342  2.669751
      ESP Fit Center  315 is at   3.352919 -2.249228  2.669751
      ESP Fit Center  316 is at   4.065604 -2.397326  2.669751
      ESP Fit Center  317 is at   4.791817 -2.347651  2.669751
      ESP Fit Center  318 is at   5.477698 -2.103889  2.669751
      ESP Fit Center  319 is at   6.072378 -1.684118  2.669751
      ESP Fit Center  320 is at   6.531753 -1.119470  2.669751
      ESP Fit Center  321 is at   6.821753 -0.451823  2.669751
      ESP Fit Center  322 is at   7.390962  0.269307  2.096943
      ESP Fit Center  323 is at   7.306243  0.994122  2.096943
      ESP Fit Center  324 is at   7.056654  1.679862  2.096943
      ESP Fit Center  325 is at   6.655650  2.289559  2.096943
      ESP Fit Center  326 is at   6.124850  2.790344  2.096943
      ESP Fit Center  327 is at   5.492868  3.155219  2.096943
      ESP Fit Center  328 is at   4.793775  3.364513  2.096943
      ESP Fit Center  329 is at   4.065260  3.406945  2.096943
      ESP Fit Center  330 is at   3.346597  3.280225  2.096943
      ESP Fit Center  331 is at   2.676529  2.991186  2.096943
      ESP Fit Center  332 is at   2.091180  2.555409  2.096943
      ESP Fit Center  333 is at   2.091180 -2.016796  2.096943
      ESP Fit Center  334 is at   2.676529 -2.452572  2.096943
      ESP Fit Center  335 is at   3.346597 -2.741611  2.096943
      ESP Fit Center  336 is at   4.065260 -2.868331  2.096943
      ESP Fit Center  337 is at   4.793775 -2.825900  2.096943
      ESP Fit Center  338 is at   5.492868 -2.616605  2.096943
      ESP Fit Center  339 is at   6.124850 -2.251730  2.096943
      ESP Fit Center  340 is at   6.655650 -1.750946  2.096943
      ESP Fit Center  341 is at   7.056654 -1.141249  2.096943
      ESP Fit Center  342 is at   7.306243 -0.455509  2.096943
      ESP Fit Center  343 is at   7.740272  0.269307  1.443430
      ESP Fit Center  344 is at   7.663957  0.995389  1.443430
      ESP Fit Center  345 is at   7.438349  1.689739  1.443430
      ESP Fit Center  346 is at   7.073308  2.322008  1.443430
      ESP Fit Center  347 is at   6.584788  2.864565  1.443430
      ESP Fit Center  348 is at   5.994139  3.293697  1.443430
      ESP Fit Center  349 is at   5.327176  3.590648  1.443430
      ESP Fit Center  350 is at   4.613048  3.742440  1.443430
      ESP Fit Center  351 is at   3.882966  3.742440  1.443430
      ESP Fit Center  352 is at   3.168838  3.590648  1.443430
      ESP Fit Center  353 is at   2.501875  3.293697  1.443430
      ESP Fit Center  354 is at   1.911226  2.864565  1.443430
      ESP Fit Center  355 is at   1.911226 -2.325952  1.443430
      ESP Fit Center  356 is at   2.501875 -2.755083  1.443430
      ESP Fit Center  357 is at   3.168838 -3.052034  1.443430
      ESP Fit Center  358 is at   3.882966 -3.203827  1.443430
      ESP Fit Center  359 is at   4.613048 -3.203827  1.443430
      ESP Fit Center  360 is at   5.327176 -3.052034  1.443430
      ESP Fit Center  361 is at   5.994139 -2.755083  1.443430
      ESP Fit Center  362 is at   6.584788 -2.325952  1.443430
      ESP Fit Center  363 is at   7.073308 -1.783395  1.443430
      ESP Fit Center  364 is at   7.438349 -1.151125  1.443430
      ESP Fit Center  365 is at   7.663957 -0.456776  1.443430
      ESP Fit Center  366 is at   7.955375  0.269307  0.734329
      ESP Fit Center  367 is at   7.884139  0.992578  0.734329
      ESP Fit Center  368 is at   7.673169  1.688055  0.734329
      ESP Fit Center  369 is at   7.330571  2.329010  0.734329
      ESP Fit Center  370 is at   6.869512  2.890812  0.734329
      ESP Fit Center  371 is at   6.307710  3.351871  0.734329
      ESP Fit Center  372 is at   5.666755  3.694469  0.734329
      ESP Fit Center  373 is at   4.971279  3.905439  0.734329
      ESP Fit Center  374 is at   4.248007  3.976675  0.734329
      ESP Fit Center  375 is at   3.524735  3.905439  0.734329
      ESP Fit Center  376 is at   2.829258  3.694469  0.734329
      ESP Fit Center  377 is at   2.188303  3.351871  0.734329
      ESP Fit Center  378 is at   1.626502  2.890812  0.734329
      ESP Fit Center  379 is at   1.165443  2.329010  0.734329
      ESP Fit Center  380 is at   2.188303 -2.813257  0.734329
      ESP Fit Center  381 is at   2.829258 -3.155855  0.734329
      ESP Fit Center  382 is at   3.524735 -3.366826  0.734329
      ESP Fit Center  383 is at   4.248007 -3.438062  0.734329
      ESP Fit Center  384 is at   4.971279 -3.366826  0.734329
      ESP Fit Center  385 is at   5.666755 -3.155855  0.734329
      ESP Fit Center  386 is at   6.307710 -2.813257  0.734329
      ESP Fit Center  387 is at   6.869512 -2.352199  0.734329
      ESP Fit Center  388 is at   7.330571 -1.790397  0.734329
      ESP Fit Center  389 is at   7.673169 -1.149442  0.734329
      ESP Fit Center  390 is at   7.884139 -0.453965  0.734329
      ESP Fit Center  391 is at   8.028007  0.269307 -0.003113
      ESP Fit Center  392 is at   7.959697  0.984676 -0.003113
      ESP Fit Center  393 is at   7.757238  1.674191 -0.003113
      ESP Fit Center  394 is at   7.427945  2.312929 -0.003113
      ESP Fit Center  395 is at   6.983722  2.877805 -0.003113
      ESP Fit Center  396 is at   6.440622  3.348404 -0.003113
      ESP Fit Center  397 is at   5.818276  3.707716 -0.003113
      ESP Fit Center  398 is at   5.139176  3.942754 -0.003113
      ESP Fit Center  399 is at   4.427867  4.045025 -0.003113
      ESP Fit Center  400 is at   3.710057  4.010832 -0.003113
      ESP Fit Center  401 is at   3.011690  3.841410 -0.003113
      ESP Fit Center  402 is at   2.358007  3.542883 -0.003113
      ESP Fit Center  403 is at   1.772633  3.126040 -0.003113
      ESP Fit Center  404 is at   1.276726  2.605948 -0.003113
      ESP Fit Center  405 is at   2.358007 -3.004269 -0.003113
      ESP Fit Center  406 is at   3.011690 -3.302796 -0.003113
      ESP Fit Center  407 is at   3.710057 -3.472218 -0.003113
      ESP Fit Center  408 is at   4.427867 -3.506412 -0.003113
      ESP Fit Center  409 is at   5.139176 -3.404141 -0.003113
      ESP Fit Center  410 is at   5.818276 -3.169102 -0.003113
      ESP Fit Center  411 is at   6.440622 -2.809790 -0.003113
      ESP Fit Center  412 is at   6.983722 -2.339192 -0.003113
      ESP Fit Center  413 is at   7.427945 -1.774316 -0.003113
      ESP Fit Center  414 is at   7.757238 -1.135577 -0.003113
      ESP Fit Center  415 is at   7.959697 -0.446063 -0.003113
      ESP Fit Center  416 is at   7.955375  0.269307 -0.740554
      ESP Fit Center  417 is at   7.884139  0.992578 -0.740554
      ESP Fit Center  418 is at   7.673169  1.688055 -0.740554
      ESP Fit Center  419 is at   7.330571  2.329010 -0.740554
      ESP Fit Center  420 is at   6.869512  2.890812 -0.740554
      ESP Fit Center  421 is at   6.307710  3.351871 -0.740554
      ESP Fit Center  422 is at   5.666755  3.694469 -0.740554
      ESP Fit Center  423 is at   4.971279  3.905439 -0.740554
      ESP Fit Center  424 is at   4.248007  3.976675 -0.740554
      ESP Fit Center  425 is at   3.524735  3.905439 -0.740554
      ESP Fit Center  426 is at   2.829258  3.694469 -0.740554
      ESP Fit Center  427 is at   2.188303  3.351871 -0.740554
      ESP Fit Center  428 is at   1.626502  2.890812 -0.740554
      ESP Fit Center  429 is at   1.165443  2.329010 -0.740554
      ESP Fit Center  430 is at   0.822845  1.688055 -0.740554
      ESP Fit Center  431 is at   2.829258 -3.155855 -0.740554
      ESP Fit Center  432 is at   3.524735 -3.366826 -0.740554
      ESP Fit Center  433 is at   4.248007 -3.438062 -0.740554
      ESP Fit Center  434 is at   4.971279 -3.366826 -0.740554
      ESP Fit Center  435 is at   5.666755 -3.155855 -0.740554
      ESP Fit Center  436 is at   6.307710 -2.813257 -0.740554
      ESP Fit Center  437 is at   6.869512 -2.352199 -0.740554
      ESP Fit Center  438 is at   7.330571 -1.790397 -0.740554
      ESP Fit Center  439 is at   7.673169 -1.149442 -0.740554
      ESP Fit Center  440 is at   7.884139 -0.453965 -0.740554
      ESP Fit Center  441 is at   7.740272  0.269307 -1.449656
      ESP Fit Center  442 is at   7.663957  0.995389 -1.449656
      ESP Fit Center  443 is at   7.438349  1.689739 -1.449656
      ESP Fit Center  444 is at   7.073308  2.322008 -1.449656
      ESP Fit Center  445 is at   6.584788  2.864565 -1.449656
      ESP Fit Center  446 is at   5.994139  3.293697 -1.449656
      ESP Fit Center  447 is at   5.327176  3.590648 -1.449656
      ESP Fit Center  448 is at   4.613048  3.742440 -1.449656
      ESP Fit Center  449 is at   3.882966  3.742440 -1.449656
      ESP Fit Center  450 is at   3.168838  3.590648 -1.449656
      ESP Fit Center  451 is at   2.501875  3.293697 -1.449656
      ESP Fit Center  452 is at   1.911226  2.864565 -1.449656
      ESP Fit Center  453 is at   1.422705  2.322008 -1.449656
      ESP Fit Center  454 is at   1.057664  1.689739 -1.449656
      ESP Fit Center  455 is at   0.832057  0.995389 -1.449656
      ESP Fit Center  456 is at   3.168838 -3.052034 -1.449656
      ESP Fit Center  457 is at   3.882966 -3.203827 -1.449656
      ESP Fit Center  458 is at   4.613048 -3.203827 -1.449656
      ESP Fit Center  459 is at   5.327176 -3.052034 -1.449656
      ESP Fit Center  460 is at   5.994139 -2.755083 -1.449656
      ESP Fit Center  461 is at   6.584788 -2.325952 -1.449656
      ESP Fit Center  462 is at   7.073308 -1.783395 -1.449656
      ESP Fit Center  463 is at   7.438349 -1.151125 -1.449656
      ESP Fit Center  464 is at   7.663957 -0.456776 -1.449656
      ESP Fit Center  465 is at   7.390962  0.269307 -2.103168
      ESP Fit Center  466 is at   7.306243  0.994122 -2.103168
      ESP Fit Center  467 is at   7.056654  1.679862 -2.103168
      ESP Fit Center  468 is at   6.655650  2.289559 -2.103168
      ESP Fit Center  469 is at   6.124850  2.790344 -2.103168
      ESP Fit Center  470 is at   5.492868  3.155219 -2.103168
      ESP Fit Center  471 is at   4.793775  3.364513 -2.103168
      ESP Fit Center  472 is at   4.065260  3.406945 -2.103168
      ESP Fit Center  473 is at   3.346597  3.280225 -2.103168
      ESP Fit Center  474 is at   2.676529  2.991186 -2.103168
      ESP Fit Center  475 is at   2.091180  2.555409 -2.103168
      ESP Fit Center  476 is at   1.622106  1.996389 -2.103168
      ESP Fit Center  477 is at   1.294595  1.344261 -2.103168
      ESP Fit Center  478 is at   1.126303  0.634182 -2.103168
      ESP Fit Center  479 is at   4.065260 -2.868331 -2.103168
      ESP Fit Center  480 is at   4.793775 -2.825900 -2.103168
      ESP Fit Center  481 is at   5.492868 -2.616605 -2.103168
      ESP Fit Center  482 is at   6.124850 -2.251730 -2.103168
      ESP Fit Center  483 is at   6.655650 -1.750946 -2.103168
      ESP Fit Center  484 is at   7.056654 -1.141249 -2.103168
      ESP Fit Center  485 is at   7.306243 -0.455509 -2.103168
      ESP Fit Center  486 is at   6.920871  0.269307 -2.675977
      ESP Fit Center  487 is at   6.821753  0.990437 -2.675977
      ESP Fit Center  488 is at   6.531753  1.658084 -2.675977
      ESP Fit Center  489 is at   6.072378  2.222732 -2.675977
      ESP Fit Center  490 is at   5.477698  2.642503 -2.675977
      ESP Fit Center  491 is at   4.791817  2.886265 -2.675977
      ESP Fit Center  492 is at   4.065604  2.935939 -2.675977
      ESP Fit Center  493 is at   3.352919  2.787842 -2.675977
      ESP Fit Center  494 is at   2.706619  2.452956 -2.675977
      ESP Fit Center  495 is at   2.174636  1.956119 -2.675977
      ESP Fit Center  496 is at   1.796426  1.334179 -2.675977
      ESP Fit Center  497 is at   1.600038  0.633262 -2.675977
      ESP Fit Center  498 is at   4.065604 -2.397326 -2.675977
      ESP Fit Center  499 is at   4.791817 -2.347651 -2.675977
      ESP Fit Center  500 is at   5.477698 -2.103889 -2.675977
      ESP Fit Center  501 is at   6.072378 -1.684118 -2.675977
      ESP Fit Center  502 is at   6.531753 -1.119470 -2.675977
      ESP Fit Center  503 is at   6.821753 -0.451823 -2.675977
      ESP Fit Center  504 is at   6.348062  0.269307 -3.146068
      ESP Fit Center  505 is at   6.221414  0.987568 -3.146068
      ESP Fit Center  506 is at   5.856743  1.619196 -3.146068
      ESP Fit Center  507 is at   5.298035  2.088008 -3.146068
      ESP Fit Center  508 is at   4.612678  2.337458 -3.146068
      ESP Fit Center  509 is at   3.883336  2.337458 -3.146068
      ESP Fit Center  510 is at   3.197979  2.088008 -3.146068
      ESP Fit Center  511 is at   2.639271  1.619196 -3.146068
      ESP Fit Center  512 is at   2.274600  0.987568 -3.146068
      ESP Fit Center  513 is at   2.147951  0.269307 -3.146068
      ESP Fit Center  514 is at   2.274600 -0.448955 -3.146068
      ESP Fit Center  515 is at   3.197979 -1.549395 -3.146068
      ESP Fit Center  516 is at   3.883336 -1.798844 -3.146068
      ESP Fit Center  517 is at   4.612678 -1.798844 -3.146068
      ESP Fit Center  518 is at   5.298035 -1.549395 -3.146068
      ESP Fit Center  519 is at   5.856743 -1.080583 -3.146068
      ESP Fit Center  520 is at   6.221414 -0.448955 -3.146068
      ESP Fit Center  521 is at   5.694550  0.269307 -3.495378
      ESP Fit Center  522 is at   5.500750  0.992578 -3.495378
      ESP Fit Center  523 is at   4.971279  1.522050 -3.495378
      ESP Fit Center  524 is at   4.248007  1.715850 -3.495378
      ESP Fit Center  525 is at   3.524735  1.522050 -3.495378
      ESP Fit Center  526 is at   2.995264  0.992578 -3.495378
      ESP Fit Center  527 is at   2.801464  0.269307 -3.495378
      ESP Fit Center  528 is at   2.995264 -0.453965 -3.495378
      ESP Fit Center  529 is at   3.524735 -0.983437 -3.495378
      ESP Fit Center  530 is at   4.248007 -1.177237 -3.495378
      ESP Fit Center  531 is at   4.971279 -0.983437 -3.495378
      ESP Fit Center  532 is at   5.500750 -0.453965 -3.495378
      ESP Fit Center  533 is at   4.985448  0.269307 -3.710481
      ESP Fit Center  534 is at   4.616728  0.907950 -3.710481
      ESP Fit Center  535 is at   3.879286  0.907950 -3.710481
      ESP Fit Center  536 is at   3.510565  0.269307 -3.710481
      ESP Fit Center  537 is at   3.879286 -0.369336 -3.710481
      ESP Fit Center  538 is at   4.616728 -0.369336 -3.710481
      ESP Fit Center  539 is at   4.248007  0.269307 -3.783113
      ESP Fit Center  540 is at  -0.477346 -3.480334 -0.558692
      ESP Fit Center  541 is at  -1.297429 -3.317258 -1.232320
      ESP Fit Center  542 is at  -0.652259 -3.762586 -1.232320
      ESP Fit Center  543 is at   0.125965 -3.857080 -1.232320
      ESP Fit Center  544 is at   0.858962 -3.579091 -1.232320
[...]
 3836 Fit       0.007140
 3837 Fit       0.009031
 3838 Fit       0.010553
 3839 Fit       0.010918
 3840 Fit       0.001769
 3841 Fit      -0.000701
 3842 Fit      -0.002031
 3843 Fit      -0.002669
 3844 Fit      -0.002965
 3845 Fit      -0.003112
 3846 Fit      -0.003199
 3847 Fit      -0.003250
 3848 Fit      -0.003256
 3849 Fit      -0.003203
 3850 Fit      -0.003079
 3851 Fit      -0.002885
 3852 Fit      -0.002635
 3853 Fit      -0.002352
 3854 Fit      -0.002062
 3855 Fit      -0.001607
 3856 Fit      -0.001387
 3857 Fit      -0.001221
 3858 Fit      -0.001107
 3859 Fit      -0.001024
 3860 Fit      -0.000943
 3861 Fit      -0.000825
 3862 Fit      -0.000622
 3863 Fit      -0.000287
 3864 Fit       0.000228
 3865 Fit       0.000964
 3866 Fit       0.001954
 3867 Fit       0.003217
 3868 Fit       0.004760
 3869 Fit       0.006575
 3870 Fit       0.008665
 3871 Fit       0.011077
 3872 Fit      -0.002816
 3873 Fit      -0.003344
 3874 Fit      -0.003453
 3875 Fit      -0.003426
 3876 Fit      -0.003385
 3877 Fit      -0.003367
 3878 Fit      -0.003365
 3879 Fit      -0.003352
 3880 Fit      -0.003299
 3881 Fit      -0.003187
 3882 Fit      -0.003008
 3883 Fit      -0.002767
 3884 Fit      -0.002482
 3885 Fit      -0.002176
 3886 Fit      -0.001876
 3887 Fit      -0.001383
 3888 Fit      -0.001173
 3889 Fit      -0.001024
 3890 Fit      -0.000936
 3891 Fit      -0.000895
 3892 Fit      -0.000879
 3893 Fit      -0.000858
 3894 Fit      -0.000792
 3895 Fit      -0.000641
 3896 Fit      -0.000364
 3897 Fit       0.000080
 3898 Fit       0.000722
 3899 Fit       0.001589
 3900 Fit       0.002690
 3901 Fit       0.004018
 3902 Fit       0.005549
 3903 Fit       0.007275
 3904 Fit       0.009328
 3905 Fit      -0.004426
 3906 Fit      -0.004209
 3907 Fit      -0.003893
 3908 Fit      -0.003626
 3909 Fit      -0.003456
 3910 Fit      -0.003375
 3911 Fit      -0.003347
 3912 Fit      -0.003334
 3913 Fit      -0.003296
 3914 Fit      -0.003209
 3915 Fit      -0.003057
 3916 Fit      -0.002841
 3917 Fit      -0.002570
 3918 Fit      -0.002265
 3919 Fit      -0.001949
 3920 Fit      -0.001648
 3921 Fit      -0.001150
 3922 Fit      -0.000947
 3923 Fit      -0.000810
 3924 Fit      -0.000741
 3925 Fit      -0.000729
 3926 Fit      -0.000756
 3927 Fit      -0.000797
 3928 Fit      -0.000818
 3929 Fit      -0.000783
 3930 Fit      -0.000654
 3931 Fit      -0.000394
 3932 Fit       0.000030
 3933 Fit       0.000644
 3934 Fit       0.001464
 3935 Fit       0.002489
 3936 Fit       0.003688
 3937 Fit       0.004994
 3938 Fit       0.006306
 3939 Fit       0.007607
 3940 Fit      -0.005571
 3941 Fit      -0.004791
 3942 Fit      -0.004120
 3943 Fit      -0.003642
 3944 Fit      -0.003356
 3945 Fit      -0.003222
 3946 Fit      -0.003186
 3947 Fit      -0.003192
 3948 Fit      -0.003191
 3949 Fit      -0.003150
 3950 Fit      -0.003048
 3951 Fit      -0.002876
 3952 Fit      -0.002639
 3953 Fit      -0.002352
 3954 Fit      -0.002035
 3955 Fit      -0.001713
 3956 Fit      -0.001411
 3957 Fit      -0.000932
 3958 Fit      -0.000735
 3959 Fit      -0.000610
 3960 Fit      -0.000556
 3961 Fit      -0.000567
 3962 Fit      -0.000626
 3963 Fit      -0.000711
 3964 Fit      -0.000791
 3965 Fit      -0.000833
 3966 Fit      -0.000800
 3967 Fit      -0.000657
 3968 Fit      -0.000371
 3969 Fit       0.000087
 3970 Fit       0.000736
 3971 Fit       0.001584
 3972 Fit       0.002616
 3973 Fit       0.003777
 3974 Fit       0.004936
 3975 Fit       0.005836
 3976 Fit       0.006116
 3977 Fit      -0.005439
 3978 Fit      -0.004305
 3979 Fit      -0.003540
 3980 Fit      -0.003096
 3981 Fit      -0.002893
 3982 Fit      -0.002848
 3983 Fit      -0.002885
 3984 Fit      -0.002942
 3985 Fit      -0.002973
 3986 Fit      -0.002947
 3987 Fit      -0.002847
 3988 Fit      -0.002672
 3989 Fit      -0.002429
 3990 Fit      -0.002136
 3991 Fit      -0.001815
 3992 Fit      -0.001491
 3993 Fit      -0.001189
 3994 Fit      -0.000750
 3995 Fit      -0.000565
 3996 Fit      -0.000450
 3997 Fit      -0.000409
 3998 Fit      -0.000435
 3999 Fit      -0.000515
 4000 Fit      -0.000629
 4001 Fit      -0.000750
 4002 Fit      -0.000848
 4003 Fit      -0.000890
 4004 Fit      -0.000841
 4005 Fit      -0.000671
 4006 Fit      -0.000350
 4007 Fit       0.000147
 4008 Fit       0.000835
 4009 Fit       0.001724
 4010 Fit       0.002803
 4011 Fit       0.004020
 4012 Fit       0.005229
 4013 Fit       0.006028
 4014 Fit       0.005426
 4015 Fit      -0.004139
 4016 Fit      -0.003099
 4017 Fit      -0.002532
 4018 Fit      -0.002296
 4019 Fit      -0.002273
 4020 Fit      -0.002368
 4021 Fit      -0.002504
 4022 Fit      -0.002627
 4023 Fit      -0.002697
 4024 Fit      -0.002693
 4025 Fit      -0.002606
 4026 Fit      -0.002438
 4027 Fit      -0.002201
 4028 Fit      -0.001914
 4029 Fit      -0.001602
 4030 Fit      -0.001288
 4031 Fit      -0.000997
 4032 Fit      -0.000620
 4033 Fit      -0.000444
 4034 Fit      -0.000342
 4035 Fit      -0.000317
 4036 Fit      -0.000362
 4037 Fit      -0.000466
 4038 Fit      -0.000606
 4039 Fit      -0.000757
 4040 Fit      -0.000888
 4041 Fit      -0.000963
 4042 Fit      -0.000949
 4043 Fit      -0.000814
 4044 Fit      -0.000525
 4045 Fit      -0.000056
 4046 Fit       0.000618
 4047 Fit       0.001522
 4048 Fit       0.002677
 4049 Fit       0.004108
 4050 Fit       0.005805
 4051 Fit       0.007562
 4052 Fit      -0.002689
 4053 Fit      -0.001760
 4054 Fit      -0.001369
 4055 Fit      -0.001319
 4056 Fit      -0.001468
 4057 Fit      -0.001713
 4058 Fit      -0.001976
 4059 Fit      -0.002200
 4060 Fit      -0.002352
 4061 Fit      -0.002409
 4062 Fit      -0.002368
 4063 Fit      -0.002233
 4064 Fit      -0.002020
 4065 Fit      -0.001749
 4066 Fit      -0.001448
 4067 Fit      -0.001142
 4068 Fit      -0.000858
 4069 Fit      -0.000550
 4070 Fit      -0.000389
 4071 Fit      -0.000302
 4072 Fit      -0.000291
 4073 Fit      -0.000352
 4074 Fit      -0.000471
 4075 Fit      -0.000628
 4076 Fit      -0.000797
 4077 Fit      -0.000947
 4078 Fit      -0.001045
 4079 Fit      -0.001056
 4080 Fit      -0.000947
 4081 Fit      -0.000687
 4082 Fit      -0.000245
 4083 Fit       0.000411
 4084 Fit       0.001320
 4085 Fit       0.002542
 4086 Fit       0.004181
 4087 Fit       0.006419
 4088 Fit       0.009469
 4089 Fit       0.000404
 4090 Fit       0.000292
 4091 Fit      -0.000025
 4092 Fit      -0.000453
 4093 Fit      -0.000912
 4094 Fit      -0.001340
 4095 Fit      -0.001693
 4096 Fit      -0.001944
 4097 Fit      -0.002079
 4098 Fit      -0.002098
 4099 Fit      -0.002010
 4100 Fit      -0.001835
 4101 Fit      -0.001596
 4102 Fit      -0.001320
 4103 Fit      -0.001036
 4104 Fit      -0.000771
 4105 Fit      -0.000540
 4106 Fit      -0.000401
 4107 Fit      -0.000331
 4108 Fit      -0.000334
 4109 Fit      -0.000404
 4110 Fit      -0.000531
 4111 Fit      -0.000694
 4112 Fit      -0.000870
 4113 Fit      -0.001027
 4114 Fit      -0.001135
 4115 Fit      -0.001161
 4116 Fit      -0.001072
 4117 Fit      -0.000837
 4118 Fit      -0.000426
 4119 Fit       0.000197
 4120 Fit       0.001076
 4121 Fit       0.002284
 4122 Fit       0.003952
 4123 Fit       0.006303
 4124 Fit       0.009596
 4125 Fit       0.003306
 4126 Fit       0.002363
 4127 Fit       0.001516
 4128 Fit       0.000721
 4129 Fit      -0.000002
 4130 Fit      -0.000624
 4131 Fit      -0.001123
 4132 Fit      -0.001486
 4133 Fit      -0.001710
 4134 Fit      -0.001801
 4135 Fit      -0.001774
 4136 Fit      -0.001651
 4137 Fit      -0.001457
 4138 Fit      -0.001220
 4139 Fit      -0.000971
 4140 Fit      -0.000736
 4141 Fit      -0.000586
 4142 Fit      -0.000470
 4143 Fit      -0.000421
 4144 Fit      -0.000443
 4145 Fit      -0.000531
 4146 Fit      -0.000671
 4147 Fit      -0.000843
 4148 Fit      -0.001019
 4149 Fit      -0.001167
 4150 Fit      -0.001253
 4151 Fit      -0.001244
 4152 Fit      -0.001107
 4153 Fit      -0.000808
 4154 Fit      -0.000316
 4155 Fit       0.000409
 4156 Fit       0.001420
 4157 Fit       0.002799
 4158 Fit       0.004654
 4159 Fit       0.007013
 4160 Fit       0.009223
 4161 Fit       0.005681
 4162 Fit       0.003960
 4163 Fit       0.002590
 4164 Fit       0.001445
 4165 Fit       0.000496
 4166 Fit      -0.000263
 4167 Fit      -0.000833
 4168 Fit      -0.001224
 4169 Fit      -0.001449
 4170 Fit      -0.001528
 4171 Fit      -0.001488
 4172 Fit      -0.001358
 4173 Fit      -0.001171
 4174 Fit      -0.000960
 4175 Fit      -0.000757
 4176 Fit      -0.000674
 4177 Fit      -0.000587
 4178 Fit      -0.000562
 4179 Fit      -0.000602
 4180 Fit      -0.000702
 4181 Fit      -0.000848
 4182 Fit      -0.001017
 4183 Fit      -0.001180
 4184 Fit      -0.001304
 4185 Fit      -0.001356
 4186 Fit      -0.001301
 4187 Fit      -0.001109
 4188 Fit      -0.000749
 4189 Fit      -0.000193
 4190 Fit       0.000590
 4191 Fit       0.001627
 4192 Fit       0.002922
 4193 Fit       0.004353
 4194 Fit       0.005364
 4195 Fit       0.004540
 4196 Fit       0.000328
 4197 Fit       0.009922
 4198 Fit       0.007014
 4199 Fit       0.004885
 4200 Fit       0.003200
 4201 Fit       0.001845
 4202 Fit       0.000773
 4203 Fit      -0.000046
 4204 Fit      -0.000634
 4205 Fit      -0.001019
 4206 Fit      -0.001228
 4207 Fit      -0.001292
 4208 Fit      -0.001246
 4209 Fit      -0.001126
 4210 Fit      -0.000970
 4211 Fit      -0.000809
 4212 Fit      -0.000786
 4213 Fit      -0.000733
 4214 Fit      -0.000734
 4215 Fit      -0.000795
 4216 Fit      -0.000908
 4217 Fit      -0.001056
 4218 Fit      -0.001213
 4219 Fit      -0.001348
 4220 Fit      -0.001427
 4221 Fit      -0.001414
 4222 Fit      -0.001278
 4223 Fit      -0.000991
 4224 Fit      -0.000533
 4225 Fit       0.000107
 4226 Fit       0.000917
 4227 Fit       0.001827
 4228 Fit       0.002618
 4229 Fit       0.002800
 4230 Fit       0.001710
 4231 Fit      -0.000687
 4232 Fit      -0.002928
 4233 Fit       0.011023
 4234 Fit       0.008043
 4235 Fit       0.005667
 4236 Fit       0.003754
 4237 Fit       0.002233
 4238 Fit       0.001055
 4239 Fit       0.000178
 4240 Fit      -0.000437
 4241 Fit      -0.000830
 4242 Fit      -0.001039
 4243 Fit      -0.001107
 4244 Fit      -0.001076
 4245 Fit      -0.000987
 4246 Fit      -0.000879
 4247 Fit      -0.000899
 4248 Fit      -0.000885
 4249 Fit      -0.000917
 4250 Fit      -0.001000
 4251 Fit      -0.001123
 4252 Fit      -0.001265
 4253 Fit      -0.001396
 4254 Fit      -0.001479
 4255 Fit      -0.001477
 4256 Fit      -0.001358
 4257 Fit      -0.001098
 4258 Fit      -0.000685
 4259 Fit      -0.000132
 4260 Fit       0.000506
 4261 Fit       0.001090
 4262 Fit       0.001369
 4263 Fit       0.001049
 4264 Fit       0.000150
 4265 Fit      -0.000630
 4266 Fit      -0.000196
 4267 Fit       0.013797
 4268 Fit       0.011438
 4269 Fit       0.008827
 4270 Fit       0.006404
 4271 Fit       0.004335
 4272 Fit       0.002663
 4273 Fit       0.001370
 4274 Fit       0.000416
 4275 Fit      -0.000246
 4276 Fit      -0.000666
 4277 Fit      -0.000895
 4278 Fit      -0.000984
 4279 Fit      -0.000984
 4280 Fit      -0.000942
 4281 Fit      -0.000987
 4282 Fit      -0.001018
 4283 Fit      -0.001081
 4284 Fit      -0.001180
 4285 Fit      -0.001301
 4286 Fit      -0.001419
 4287 Fit      -0.001498
 4288 Fit      -0.001502
 4289 Fit      -0.001398
 4290 Fit      -0.001164
 4291 Fit      -0.000800
 4292 Fit      -0.000339
 4293 Fit       0.000137
 4294 Fit       0.000492
 4295 Fit       0.000585
 4296 Fit       0.000445
 4297 Fit       0.000452
 4298 Fit       0.001240
 4299 Fit       0.003277
 4300 Fit       0.006372
 4301 Fit       0.009307
 4302 Fit       0.010624
 4303 Fit       0.010101
 4304 Fit       0.008455
 4305 Fit       0.006423
 4306 Fit       0.004468
 4307 Fit       0.002804
 4308 Fit       0.001494
 4309 Fit       0.000524
 4310 Fit      -0.000147
 4311 Fit      -0.000574
 4312 Fit      -0.000814
 4313 Fit      -0.000927
 4314 Fit      -0.000969
 4315 Fit      -0.001025
 4316 Fit      -0.001107
 4317 Fit      -0.001201
 4318 Fit      -0.001311
 4319 Fit      -0.001415
 4320 Fit      -0.001480
 4321 Fit      -0.001466
 4322 Fit      -0.001341
 4323 Fit      -0.001090
 4324 Fit      -0.000730
 4325 Fit      -0.000318
 4326 Fit       0.000058
 4327 Fit       0.000342
 4328 Fit       0.000637
 4329 Fit       0.001269
 4330 Fit       0.002600
 4331 Fit       0.004618
 4332 Fit       0.006652
 4333 Fit       0.007741
 4334 Fit       0.007491
 4335 Fit       0.006247
 4336 Fit       0.004602
 4337 Fit       0.003002
 4338 Fit       0.001664
 4339 Fit       0.000649
 4340 Fit      -0.000060
 4341 Fit      -0.000514
 4342 Fit      -0.000782
 4343 Fit      -0.000932
 4344 Fit      -0.000988
 4345 Fit      -0.001124
 4346 Fit      -0.001243
 4347 Fit      -0.001342
 4348 Fit      -0.001394
 4349 Fit      -0.001360
 4350 Fit      -0.001207
 4351 Fit      -0.000929
 4352 Fit      -0.000555
 4353 Fit      -0.000134
 4354 Fit       0.000322
 4355 Fit       0.000926
 4356 Fit       0.001895
 4357 Fit       0.003283
 4358 Fit       0.004702
 4359 Fit       0.005473
 4360 Fit       0.005235
 4361 Fit       0.004213
 4362 Fit       0.002890
 4363 Fit       0.001643
 4364 Fit       0.000648
 4365 Fit      -0.000059
 4366 Fit      -0.000521
 4367 Fit      -0.000806
 4368 Fit      -0.000857
 4369 Fit      -0.001053
 4370 Fit      -0.001178
 4371 Fit      -0.001218
 4372 Fit      -0.001132
 4373 Fit      -0.000892
 4374 Fit      -0.000501
 4375 Fit       0.000016
 4376 Fit       0.000695
 4377 Fit       0.001630
 4378 Fit       0.002739
 4379 Fit       0.003542
 4380 Fit       0.003535
 4381 Fit       0.002760
 4382 Fit       0.001672
 4383 Fit       0.000672
 4384 Fit      -0.000069
 4385 Fit      -0.000554
 4386 Fit      -0.000619
 4387 Fit      -0.000864
 4388 Fit      -0.000918
 4389 Fit      -0.000750
 4390 Fit      -0.000333
 4391 Fit       0.000322
 4392 Fit       0.001184
 4393 Fit       0.001982
 4394 Fit       0.002131
 4395 Fit       0.001496
 4396 Fit       0.000585
 4397 Fit      -0.000155
 4398 Fit      -0.000274
 4399 Fit      -0.000468
 4400 Fit      -0.000096
 4401 Fit       0.000670
 4402 Fit       0.001019
 4403 Fit       0.000406
 4404 Fit       0.000166
 4405 Fit       0.003270
 4406 Fit       0.004487
 4407 Fit       0.004979
 4408 Fit       0.004890
 4409 Fit       0.006259
 4410 Fit       0.007114
 4411 Fit       0.007637
 4412 Fit       0.008171
 4413 Fit       0.005903
 4414 Fit       0.006983
 4415 Fit       0.008033
 4416 Fit       0.008832
 4417 Fit       0.009443
 4418 Fit       0.010126
 4419 Fit       0.011425
 4420 Fit       0.005927
 4421 Fit       0.007072
 4422 Fit       0.008025
 4423 Fit       0.009038
 4424 Fit       0.009915
 4425 Fit       0.010658
 4426 Fit       0.011563
 4427 Fit       0.013246
 4428 Fit       0.007436
 4429 Fit       0.008805
 4430 Fit       0.009961
 4431 Fit       0.010927
 4432 Fit       0.011900
 4433 Fit       0.013195
 4434 Fit       0.011090
 4435 Fit       0.007773
 4436 Fit       0.008991
 4437 Fit       0.010358
 4438 Fit       0.011313
 4439 Fit       0.009828
 4440 Fit       0.008913
 4441 Fit       0.009117
 4442 Fit       0.010450
 4443 Fit       0.009754
 4444 Fit       0.008746
 4445 Fit       0.007459
 4446 Fit       0.007054
 4447 Fit       0.011932
 4448 Fit       0.010403
 4449 Fit       0.009264
 4450 Fit       0.008678
 4451 Fit       0.007988
 4452 Fit       0.006561
 4453 Fit       0.012958
 4454 Fit       0.010460
 4455 Fit       0.008707
 4456 Fit       0.007732
 4457 Fit       0.007702
 4458 Fit       0.007914
 4459 Fit       0.007341
 4460 Fit       0.005706
 4461 Fit       0.009185
 4462 Fit       0.006879
 4463 Fit       0.005157
 4464 Fit       0.004989
 4465 Fit       0.004686
 4466 Fit       0.002477
 4467 Fit       0.003333
 4468 Fit       0.002311
 4469 Fit      -0.000067
 4470 Fit       0.002882
 4471 Fit       0.004419
 4472 Fit       0.004496
 4473 Fit       0.003021
 4474 Fit      -0.000165
 4475 Fit       0.001654
 4476 Fit       0.004222
 4477 Fit       0.005400
 4478 Fit       0.005340
 4479 Fit       0.003936
 4480 Fit       0.000759
 4481 Fit       0.002706
 4482 Fit       0.004992
 4483 Fit       0.005881
 4484 Fit       0.005510
 4485 Fit       0.003663
 4486 Fit      -0.000477
 4487 Fit       0.002435
 4488 Fit       0.004776
 4489 Fit       0.005722
 4490 Fit       0.005437
 4491 Fit       0.003706
 4492 Fit       0.000843
 4493 Fit       0.003555
 4494 Fit       0.004878
 4495 Fit       0.005037
 4496 Fit       0.003957
 4497 Fit       0.001128
 4498 Fit       0.001814
 4499 Fit       0.003527
 4500 Fit       0.003958
 4501 Fit       0.003054
 4502 Fit       0.008056
 4503 Fit       0.009894
 4504 Fit       0.012281
 4505 Fit       0.013074
 4506 Fit       0.011257
 4507 Fit       0.014400
 4508 Fit       0.015913
 4509 Fit       0.016513
 4510 Fit       0.012556
 4511 Fit       0.015892
 4512 Fit       0.017741
 4513 Fit       0.018785
 4514 Fit       0.013862
 4515 Fit       0.016947
 4516 Fit       0.018811
 4517 Fit       0.020043
 4518 Fit       0.011031
 4519 Fit       0.015268
 4520 Fit       0.017970
 4521 Fit       0.019621
 4522 Fit       0.005188
 4523 Fit       0.012411
 4524 Fit       0.016116
 4525 Fit       0.018268
 4526 Fit       0.007709
 4527 Fit       0.012977
 4528 Fit       0.004715
 4529 Fit      -0.000225
 4530 Fit       0.011562
 4531 Fit       0.010188
 4532 Fit       0.007093
 4533 Fit       0.001324
 4534 Fit       0.015415
 4535 Fit       0.014149
 4536 Fit       0.011676
 4537 Fit       0.007242
 4538 Fit      -0.000440
 4539 Fit       0.018937
 4540 Fit       0.017811
 4541 Fit       0.016341
 4542 Fit       0.013862
 4543 Fit       0.009699
 4544 Fit       0.002846
 4545 Fit       0.019919
 4546 Fit       0.018569
 4547 Fit       0.016749
 4548 Fit       0.013863
 4549 Fit       0.009316
 4550 Fit       0.002369
 4551 Fit       0.019830
 4552 Fit       0.018206
 4553 Fit       0.015810
 4554 Fit       0.011991
 4555 Fit       0.006330
 4556 Fit       0.018042
 4557 Fit       0.015726
 4558 Fit       0.011819
 4559 Fit       0.006693
 -----------------------------------------------------------------
 Leave Link  602 at Fri Jan 17 11:57:13 2014, MaxMem=   235929600 cpu:         1.7

 Test job not archived.
 1\1\GINC-G42\SP\RHF\Gen\C10H7F1I1N3O1\KOLAR\17-Jan-2014\0\\# hf/gen ps
 eudo=read pop=(mk, readradii) iop(6/33=2,6/41=5,6/42=2)\\na resp\\0,1\
 C,0,0.336428,-1.535404,-0.87997\C,0,1.68606,-1.178298,-0.910796\C,0,2.
 176995,-0.285667,0.039992\C,0,1.341857,0.248799,1.022106\C,0,-0.00485,
 -0.113353,1.05358\C,0,-0.498071,-1.000205,0.097131\O,0,-1.80521,-1.476
 703,0.14022\C,0,-2.866983,-0.634342,0.060888\C,0,-4.131039,-1.216407,0
 .2132\C,0,-5.176207,-0.312965,0.091397\N,0,-5.053916,0.979535,-0.13731
 7\C,0,-3.783557,1.410696,-0.253022\N,0,-2.670121,0.655959,-0.169617\N,
 0,-3.603785,2.745632,-0.449157\F,0,-6.427328,-0.767263,0.210097\I,0,4.
 248007,0.269307,-0.003113\H,0,-0.071459,-2.231143,-1.606155\H,0,2.3369
 3,-1.595967,-1.670666\H,0,1.72967,0.938911,1.76319\H,0,-0.664265,0.292
 83,1.812005\H,0,-4.275634,-2.27121,0.398908\H,0,-2.690814,3.05655,-0.7
 44909\H,0,-4.41019,3.290756,-0.714433\\Version=AM64L-G09RevD.01\State=
 1-A\HF=-731.5737252\RMSD=9.430e-09\Dipole=0.2015748,0.3862917,-0.34450
 17\Quadrupole=-13.5586201,8.8094587,4.7491614,-2.4657281,1.555949,0.49
 34124\PG=C01 [X(C10H7F1I1N3O1)]\\@


 EVANS BOLDLY PUT 50 ATM. OF ETHYLENE IN A CELL WITH 25 ATM. OF OXYGEN.
 THE APPARATUS SUBSEQUENTLY BLEW UP, BUT LUCKILY NOT BEFORE HE
 OBTAINED THE SPECTRA SHOWN IN FIGURE 8.
 A.J.MERER AND R.S.MULLIKEN, CHEM.REV. 69, 645 (1969)
 Job cpu time:       0 days  0 hours  2 minutes 40.7 seconds.
 File lengths (MBytes):  RWF=     31 Int=      0 D2E=      0 Chk=      3 Scr=      1
 Normal termination of Gaussian 09 at Fri Jan 17 11:57:13 2014.
160.30user 0.38system 2:40.96elapsed 99%CPU (0avgtext+0avgdata 603376maxresident)k
8inputs+122880outputs (0major+171063minor)pagefaults 0swaps
