Linux g33 2.6.38.6-client #1 SMP Tue Jun 12 11:27:21 CEST 2012 x86_64 GNU/Linux
Thu Jan 16 22:36:46 CET 2014

 Entering Gaussian System, Link 0=/usr/local/programs/common/gaussian/gaussian09_d01/arch/amd64-pgi_10.4.0-acml/g09/g09
 Initial command:
 /usr/local/programs/common/gaussian/gaussian09_d01/arch/amd64-pgi_10.4.0-acml/g09/l1.exe "/scratch/kolar/g09_26036/Gau-1851.inp" -scrdir="/scratch/kolar/g09_26036/"
 Entering Link 1 = /usr/local/programs/common/gaussian/gaussian09_d01/arch/amd64-pgi_10.4.0-acml/g09/l1.exe PID=      1854.
  
 Copyright (c) 1988,1990,1992,1993,1995,1998,2003,2009,2013,
            Gaussian, Inc.  All Rights Reserved.
  
 This is part of the Gaussian(R) 09 program.  It is based on
 the Gaussian(R) 03 system (copyright 2003, Gaussian, Inc.),
 the Gaussian(R) 98 system (copyright 1998, Gaussian, Inc.),
 the Gaussian(R) 94 system (copyright 1995, Gaussian, Inc.),
 the Gaussian 92(TM) system (copyright 1992, Gaussian, Inc.),
 the Gaussian 90(TM) system (copyright 1990, Gaussian, Inc.),
 the Gaussian 88(TM) system (copyright 1988, Gaussian, Inc.),
 the Gaussian 86(TM) system (copyright 1986, Carnegie Mellon
 University), and the Gaussian 82(TM) system (copyright 1983,
 Carnegie Mellon University). Gaussian is a federally registered
 trademark of Gaussian, Inc.
  
 This software contains proprietary and confidential information,
 including trade secrets, belonging to Gaussian, Inc.
  
 This software is provided under written license and may be
 used, copied, transmitted, or stored only in accord with that
 written license.
  
 The following legend is applicable only to US Government
 contracts under FAR:
  
                    RESTRICTED RIGHTS LEGEND
  
 Use, reproduction and disclosure by the US Government is
 subject to restrictions as set forth in subparagraphs (a)
 and (c) of the Commercial Computer Software - Restricted
 Rights clause in FAR 52.227-19.
  
 Gaussian, Inc.
 340 Quinnipiac St., Bldg. 40, Wallingford CT 06492
  
  
 ---------------------------------------------------------------
 Warning -- This program may not be used in any manner that
 competes with the business of Gaussian, Inc. or will provide
 assistance to any competitor of Gaussian, Inc.  The licensee
 of this program is prohibited from giving any competitor of
 Gaussian, Inc. access to this program.  By using this program,
 the user acknowledges that Gaussian, Inc. is engaged in the
 business of creating and licensing software in the field of
 computational chemistry and represents and warrants to the
 licensee that it is not a competitor of Gaussian, Inc. and that
 it will not use this program in any manner prohibited above.
 ---------------------------------------------------------------
  

 Cite this work as:
 Gaussian 09, Revision D.01,
 M. J. Frisch, G. W. Trucks, H. B. Schlegel, G. E. Scuseria, 
 M. A. Robb, J. R. Cheeseman, G. Scalmani, V. Barone, B. Mennucci, 
 G. A. Petersson, H. Nakatsuji, M. Caricato, X. Li, H. P. Hratchian, 
 A. F. Izmaylov, J. Bloino, G. Zheng, J. L. Sonnenberg, M. Hada, 
 M. Ehara, K. Toyota, R. Fukuda, J. Hasegawa, M. Ishida, T. Nakajima, 
 Y. Honda, O. Kitao, H. Nakai, T. Vreven, J. A. Montgomery, Jr., 
 J. E. Peralta, F. Ogliaro, M. Bearpark, J. J. Heyd, E. Brothers, 
 K. N. Kudin, V. N. Staroverov, T. Keith, R. Kobayashi, J. Normand, 
 K. Raghavachari, A. Rendell, J. C. Burant, S. S. Iyengar, J. Tomasi, 
 M. Cossi, N. Rega, J. M. Millam, M. Klene, J. E. Knox, J. B. Cross, 
 V. Bakken, C. Adamo, J. Jaramillo, R. Gomperts, R. E. Stratmann, 
 O. Yazyev, A. J. Austin, R. Cammi, C. Pomelli, J. W. Ochterski, 
 R. L. Martin, K. Morokuma, V. G. Zakrzewski, G. A. Voth, 
 P. Salvador, J. J. Dannenberg, S. Dapprich, A. D. Daniels, 
 O. Farkas, J. B. Foresman, J. V. Ortiz, J. Cioslowski, 
 and D. J. Fox, Gaussian, Inc., Wallingford CT, 2013.
 
 ******************************************
 Gaussian 09:  AM64L-G09RevD.01 24-Apr-2013
                16-Jan-2014 
 ******************************************
 %mem=1800mb
 -----------------------------------------
 # hf/gen pop=mk iop(6/33=2,6/41=5,6/42=2)
 -----------------------------------------
 1/38=1/1;
 2/12=2,17=6,18=5,40=1/2;
 3/5=7,11=9,16=1,25=1,30=1/1,2,3;
 4//1;
 5/5=2,38=5/2;
 6/7=2,8=2,9=2,10=2,15=8,20=1,28=1,33=2,41=5,42=2/1,2;
 99/5=1,9=1/99;
 -------
 na resp
 -------
 Symbolic Z-matrix:
 Charge =  0 Multiplicity = 1
 6                    -3.69282  -0.89404  -1.06874 
 6                    -2.61226  -1.71357  -1.39166 
 6                    -1.42505  -1.60634  -0.66123 
 6                    -1.33136  -0.68305   0.37202 
 6                    -2.4057    0.16413   0.7063 
 6                    -3.59026   0.03325  -0.03156 
 7                    -2.27985   1.05224   1.77496 
 8                    -0.20023  -0.55745   1.18644 
 6                     1.04349  -0.75137   0.63126 
 6                     1.72642  -1.94336   0.88127 
 6                     3.01706  -2.132     0.38726 
 6                     3.63307  -1.12715  -0.36006 
 6                     2.96374   0.07292  -0.60463 
 6                     1.67649   0.25795  -0.10524 
 35                    0.77814   1.91375  -0.39264 
 1                    -4.62206  -0.9692   -1.62682 
 1                    -2.68492  -2.43424  -2.20058 
 1                    -0.57268  -2.23695  -0.8937 
 1                    -4.43331   0.67584   0.21287 
 1                    -1.32023   1.33068   1.94629 
 1                    -2.89843   1.85234   1.71982 
 1                     1.22767  -2.70618   1.47093 
 1                     3.53877  -3.06338   0.58694 
 1                     4.63749  -1.26801  -0.74827 
 1                     3.43672   0.86785  -1.17124 
 
                          Input orientation:                          
 ---------------------------------------------------------------------
 Center     Atomic      Atomic             Coordinates (Angstroms)
 Number     Number       Type             X           Y           Z
 ---------------------------------------------------------------------
      1          6           0       -3.692821   -0.894040   -1.068744
      2          6           0       -2.612256   -1.713574   -1.391664
      3          6           0       -1.425053   -1.606336   -0.661233
      4          6           0       -1.331358   -0.683052    0.372020
      5          6           0       -2.405703    0.164125    0.706301
      6          6           0       -3.590262    0.033248   -0.031560
      7          7           0       -2.279849    1.052238    1.774962
      8          8           0       -0.200227   -0.557453    1.186444
      9          6           0        1.043489   -0.751373    0.631260
     10          6           0        1.726420   -1.943362    0.881269
     11          6           0        3.017059   -2.132000    0.387260
     12          6           0        3.633069   -1.127150   -0.360055
     13          6           0        2.963739    0.072917   -0.604632
     14          6           0        1.676493    0.257950   -0.105238
     15         35           0        0.778138    1.913746   -0.392641
     16          1           0       -4.622063   -0.969199   -1.626822
     17          1           0       -2.684916   -2.434243   -2.200584
     18          1           0       -0.572676   -2.236954   -0.893696
     19          1           0       -4.433309    0.675835    0.212872
     20          1           0       -1.320232    1.330675    1.946291
     21          1           0       -2.898429    1.852339    1.719818
     22          1           0        1.227667   -2.706182    1.470925
     23          1           0        3.538767   -3.063376    0.586943
     24          1           0        4.637493   -1.268005   -0.748266
     25          1           0        3.436716    0.867851   -1.171235
 ---------------------------------------------------------------------
                    Distance matrix (angstroms):
                    1          2          3          4          5
     1  C    0.000000
     2  C    1.394107   0.000000
     3  C    2.411680   1.398027   0.000000
     4  C    2.774315   2.411070   1.388828   0.000000
     5  C    2.434578   2.823097   2.442612   1.408428   0.000000
     6  C    1.395038   2.420282   2.787984   2.403874   1.401695
     7  N    3.724400   4.217550   3.705906   2.424688   1.395213
     8  O    4.171016   3.714989   2.452400   1.399471   2.369670
     9  C    5.034183   4.287485   2.914653   2.389931   3.569411
    10  C    5.854212   4.903380   3.524866   3.346300   4.641827
    11  C    6.976746   5.918517   4.594346   4.583494   5.897485
    12  C    7.363779   6.357059   5.089688   5.037727   6.266680
    13  C    6.742418   5.907850   4.699424   4.469138   5.527908
    14  C    5.575389   4.892358   3.661186   3.187543   4.163139
    15  Br   5.322617   5.064609   4.161390   3.431915   3.795483
    16  H    1.086550   2.156088   3.399879   3.860827   3.411765
    17  H    2.160824   1.085815   2.154597   3.393682   3.908895
    18  H    3.401377   2.163743   1.085479   2.142953   3.418356
    19  H    2.157631   3.405884   3.875818   3.390281   2.148605
    20  H    4.434971   4.698800   3.928893   2.556081   2.019074
    21  H    3.993712   4.741197   4.450019   3.271159   2.029794
    22  H    5.826232   4.891288   3.576686   3.442275   4.693047
    23  H    7.729371   6.600904   5.321693   5.424966   6.765185
    24  H    8.344860   7.291869   6.072603   6.101180   7.333033
    25  H    7.344730   6.580456   5.478914   5.246091   6.176911
                    6          7          8          9         10
     6  C    0.000000
     7  N    2.453374   0.000000
     8  O    3.650315   2.694863   0.000000
     9  C    4.746220   3.950398   1.375741   0.000000
    10  C    5.745202   5.081584   2.392874   1.396330   0.000000
    11  C    6.965659   6.334218   3.669989   2.420877   1.394768
    12  C    7.323315   6.653618   4.172574   2.798185   2.417105
    13  C    6.579127   5.840955   3.689987   2.427806   2.793607
    14  C    5.272061   4.451818   2.419794   1.400663   2.412771
    15  Br   4.769651   3.846035   3.091526   2.867341   4.171255
    16  H    2.148109   4.598294   5.257056   6.102857   6.895125
    17  H    3.407760   5.303263   4.600867   4.975178   5.403579
    18  H    3.873360   4.566723   2.699338   2.672907   2.919339
    19  H    1.087839   2.686856   4.515288   5.675146   6.726753
    20  H    3.278452   1.013778   2.323103   3.413416   4.597356
    21  H    2.618215   1.012839   3.656758   4.847988   6.041501
    22  H    5.742332   5.149838   2.595544   2.135471   1.085515
    23  H    7.797094   7.225369   4.540829   3.402019   2.150735
    24  H    8.360794   7.720092   5.258471   3.884181   3.403797
    25  H    7.167555   6.433754   4.562619   3.405644   3.878247
                   11         12         13         14         15
    11  C    0.000000
    12  C    1.395590   0.000000
    13  C    2.418337   1.395701   0.000000
    14  C    2.784157   2.410731   1.393066   0.000000
    15  Br   4.689251   4.171180   2.865387   1.905598   0.000000
    16  H    7.985288   8.353254   7.724977   6.594916   6.244737
    17  H    6.269036   6.709171   6.382806   5.537171   5.845204
    18  H    3.812881   4.382320   4.233827   3.450358   4.393639
    19  H    7.963814   8.285255   7.466468   6.132333   5.390570
    20  H    5.764789   5.991271   5.142137   3.786802   3.195893
    21  H    7.255596   7.474202   6.552437   5.177144   4.240684
    22  H    2.169318   3.410541   3.878824   3.387007   5.001869
    23  H    1.086054   2.157468   3.403945   3.870192   5.775154
    24  H    2.159100   1.086009   2.149455   3.392572   5.014442
    25  H    3.406483   2.162544   1.084742   2.146326   2.961105
                   16         17         18         19         20
    16  H    0.000000
    17  H    2.495615   0.000000
    18  H    4.306067   2.491674   0.000000
    19  H    2.475124   4.307462   4.961181   0.000000
    20  H    5.381324   5.764854   4.620860   3.622817   0.000000
    21  H    4.704465   5.812910   5.381626   2.451715   1.677537
    22  H    6.843427   5.372358   3.008794   6.713225   4.797288
    23  H    8.711227   6.848383   4.447384   8.813378   6.690694
    24  H    9.305940   7.555595   5.301497   9.326401   7.036211
    25  H    8.278057   7.031199   5.078589   7.993117   5.706289
                   21         22         23         24         25
    21  H    0.000000
    22  H    6.153595   0.000000
    23  H    8.178334   2.500039   0.000000
    24  H    8.521626   4.315099   2.492657   0.000000
    25  H    7.032885   4.963327   4.307685   2.486493   0.000000
 Stoichiometry    C12H10BrNO
 Framework group  C1[X(C12H10BrNO)]
 Deg. of freedom    69
 Full point group                 C1      NOp   1
 Largest Abelian subgroup         C1      NOp   1
 Largest concise Abelian subgroup C1      NOp   1
                         Standard orientation:                         
 ---------------------------------------------------------------------
 Center     Atomic      Atomic             Coordinates (Angstroms)
 Number     Number       Type             X           Y           Z
 ---------------------------------------------------------------------
      1          6           0       -3.692821   -0.894041   -1.068744
      2          6           0       -2.612256   -1.713574   -1.391664
      3          6           0       -1.425053   -1.606336   -0.661233
      4          6           0       -1.331358   -0.683052    0.372020
      5          6           0       -2.405703    0.164125    0.706301
      6          6           0       -3.590262    0.033247   -0.031560
      7          7           0       -2.279849    1.052238    1.774962
      8          8           0       -0.200227   -0.557453    1.186444
      9          6           0        1.043489   -0.751373    0.631260
     10          6           0        1.726420   -1.943362    0.881269
     11          6           0        3.017059   -2.132000    0.387260
     12          6           0        3.633069   -1.127150   -0.360055
     13          6           0        2.963739    0.072917   -0.604632
     14          6           0        1.676493    0.257950   -0.105238
     15         35           0        0.778138    1.913746   -0.392641
     16          1           0       -4.622063   -0.969200   -1.626822
     17          1           0       -2.684916   -2.434243   -2.200584
     18          1           0       -0.572676   -2.236954   -0.893696
     19          1           0       -4.433309    0.675834    0.212872
     20          1           0       -1.320232    1.330675    1.946291
     21          1           0       -2.898429    1.852339    1.719818
     22          1           0        1.227667   -2.706182    1.470925
     23          1           0        3.538768   -3.063376    0.586943
     24          1           0        4.637493   -1.268004   -0.748266
     25          1           0        3.436716    0.867851   -1.171235
 ---------------------------------------------------------------------
 Rotational constants (GHZ):      0.7042463      0.3690709      0.2891726
 General basis read from cards:  (5D, 7F)
 There are   260 symmetry adapted cartesian basis functions of A   symmetry.
 There are   244 symmetry adapted basis functions of A   symmetry.
   244 basis functions,   515 primitive gaussians,   260 cartesian basis functions
    66 alpha electrons       66 beta electrons
       nuclear repulsion energy      1284.3510015894 Hartrees.
 NAtoms=   25 NActive=   25 NUniq=   25 SFac= 1.00D+00 NAtFMM=   60 NAOKFM=F Big=F
 Integral buffers will be    131072 words long.
 Raffenetti 1 integral format.
 Two-electron integral symmetry is turned on.
 One-electron integrals computed using PRISM.
 NBasis=   244 RedAO= T EigKep=  3.98D-04  NBF=   244
 NBsUse=   244 1.00D-06 EigRej= -1.00D+00 NBFU=   244
 ExpMin= 1.43D-01 ExpMax= 5.74D+05 ExpMxC= 5.74D+03 IAcc=2 IRadAn=         4 AccDes= 0.00D+00
 Harris functional with IExCor=  205 and IRadAn=       4 diagonalized for initial guess.
 HarFok:  IExCor=  205 AccDes= 0.00D+00 IRadAn=         4 IDoV= 1 UseB2=F ITyADJ=14
 ICtDFT=  3500011 ScaDFX=  1.000000  1.000000  1.000000  1.000000
 FoFCou: FMM=F IPFlag=           0 FMFlag=      100000 FMFlg1=           0
         NFxFlg=           0 DoJE=T BraDBF=F KetDBF=T FulRan=T
         wScrn=  0.000000 ICntrl=     500 IOpCl=  0 I1Cent=   200000004 NGrid=           0
         NMat0=    1 NMatS0=      1 NMatT0=    0 NMatD0=    1 NMtDS0=    0 NMtDT0=    0
 Petite list used in FoFCou.
 Requested convergence on RMS density matrix=1.00D-08 within 128 cycles.
 Requested convergence on MAX density matrix=1.00D-06.
 Requested convergence on             energy=1.00D-06.
 No special actions if energy rises.
 Integral accuracy reduced to 1.0D-05 until final iterations.
 Initial convergence to 1.0D-05 achieved.  Increase integral accuracy.
 SCF Done:  E(RHF) =  -3159.12404575     A.U. after   15 cycles
            NFock= 15  Conv=0.92D-08     -V/T= 1.9991

 **********************************************************************

            Population analysis using the SCF density.

 **********************************************************************

 Orbital symmetries:
 BldTbl:  Degeneracy threshold= 1.00D-02
       Occupied  (A) (A) (A) (A) (A) (A) (A) (A) (A) (A) (A) (A)
                 (A) (A) (A) (A) (A) (A) (A) (A) (A) (A) (A) (A)
                 (A) (A) (A) (A) (A) (A) (A) (A) (A) (A) (A) (A)
                 (A) (A) (A) (A) (A) (A) (A) (A) (A) (A) (A) (A)
                 (A) (A) (A) (A) (A) (A) (A) (A) (A) (A) (A) (A)
                 (A) (A) (A) (A) (A) (A)
       Virtual   (A) (A) (A) (A) (A) (A) (A) (A) (A) (A) (A) (A)
                 (A) (A) (A) (A) (A) (A) (A) (A) (A) (A) (A) (A)
                 (A) (A) (A) (A) (A) (A) (A) (A) (A) (A) (A) (A)
                 (A) (A) (A) (A) (A) (A) (A) (A) (A) (A) (A) (A)
                 (A) (A) (A) (A) (A) (A) (A) (A) (A) (A) (A) (A)
                 (A) (A) (A) (A) (A) (A) (A) (A) (A) (A) (A) (A)
                 (A) (A) (A) (A) (A) (A) (A) (A) (A) (A) (A) (A)
                 (A) (A) (A) (A) (A) (A) (A) (A) (A) (A) (A) (A)
                 (A) (A) (A) (A) (A) (A) (A) (A) (A) (A) (A) (A)
                 (A) (A) (A) (A) (A) (A) (A) (A) (A) (A) (A) (A)
                 (A) (A) (A) (A) (A) (A) (A) (A) (A) (A) (A) (A)
                 (A) (A) (A) (A) (A) (A) (A) (A) (A) (A) (A) (A)
                 (A) (A) (A) (A) (A) (A) (A) (A) (A) (A) (A) (A)
                 (A) (A) (A) (A) (A) (A) (A) (A) (A) (A) (A) (A)
                 (A) (A) (A) (A) (A) (A) (A) (A) (A) (A)
 The electronic state is 1-A.
 Alpha  occ. eigenvalues -- -489.84807 -64.39158 -58.55849 -58.55672 -58.55661
 Alpha  occ. eigenvalues --  -20.60123 -15.55393 -11.31989 -11.30453 -11.29124
 Alpha  occ. eigenvalues --  -11.27390 -11.26005 -11.25536 -11.25141 -11.25067
 Alpha  occ. eigenvalues --  -11.23332 -11.22963 -11.22469 -11.22298  -9.66901
 Alpha  occ. eigenvalues --   -7.48475  -7.47583  -7.47573  -3.22799  -3.22371
 Alpha  occ. eigenvalues --   -3.22359  -3.21326  -3.21325  -1.42470  -1.21453
 Alpha  occ. eigenvalues --   -1.17214  -1.12251  -1.06842  -1.03701  -1.00217
 Alpha  occ. eigenvalues --   -0.98263  -0.96300  -0.86041  -0.84254  -0.81784
 Alpha  occ. eigenvalues --   -0.79935  -0.73022  -0.69664  -0.68997  -0.67830
 Alpha  occ. eigenvalues --   -0.66609  -0.63441  -0.61680  -0.61138  -0.59488
 Alpha  occ. eigenvalues --   -0.58730  -0.58197  -0.55492  -0.53622  -0.52651
 Alpha  occ. eigenvalues --   -0.50901  -0.50505  -0.49671  -0.47956  -0.44308
 Alpha  occ. eigenvalues --   -0.43782  -0.41554  -0.34770  -0.33543  -0.32325
 Alpha  occ. eigenvalues --   -0.28405
 Alpha virt. eigenvalues --    0.11732   0.12730   0.14702   0.16392   0.16869
 Alpha virt. eigenvalues --    0.24294   0.24393   0.24928   0.28495   0.29166
 Alpha virt. eigenvalues --    0.31424   0.31721   0.31881   0.32852   0.33207
 Alpha virt. eigenvalues --    0.34559   0.36655   0.38145   0.42584   0.44026
 Alpha virt. eigenvalues --    0.45105   0.45705   0.49060   0.49790   0.51865
 Alpha virt. eigenvalues --    0.52914   0.54697   0.58923   0.61223   0.62421
 Alpha virt. eigenvalues --    0.63053   0.64255   0.65719   0.66802   0.67255
 Alpha virt. eigenvalues --    0.69370   0.71122   0.72560   0.74335   0.74665
 Alpha virt. eigenvalues --    0.75813   0.78007   0.78550   0.79439   0.79522
 Alpha virt. eigenvalues --    0.80886   0.81466   0.82115   0.83201   0.83910
 Alpha virt. eigenvalues --    0.83987   0.84465   0.85276   0.85715   0.87030
 Alpha virt. eigenvalues --    0.87961   0.89180   0.91014   0.92358   0.95087
 Alpha virt. eigenvalues --    0.97180   0.97341   1.00930   1.02565   1.02956
 Alpha virt. eigenvalues --    1.04244   1.06116   1.06323   1.09841   1.09876
 Alpha virt. eigenvalues --    1.11001   1.12121   1.12229   1.15161   1.15455
 Alpha virt. eigenvalues --    1.17047   1.17890   1.18066   1.19723   1.21306
 Alpha virt. eigenvalues --    1.23262   1.23670   1.25138   1.26529   1.27345
 Alpha virt. eigenvalues --    1.28535   1.29301   1.32500   1.33341   1.35439
 Alpha virt. eigenvalues --    1.37191   1.38143   1.39690   1.45031   1.45420
 Alpha virt. eigenvalues --    1.47885   1.48511   1.50436   1.54911   1.59671
 Alpha virt. eigenvalues --    1.60391   1.62965   1.65184   1.68829   1.69422
 Alpha virt. eigenvalues --    1.70187   1.72321   1.72499   1.74379   1.75454
 Alpha virt. eigenvalues --    1.76110   1.77628   1.79715   1.82685   1.89207
 Alpha virt. eigenvalues --    1.96531   2.03416   2.05791   2.07540   2.10454
 Alpha virt. eigenvalues --    2.11802   2.13138   2.15181   2.17329   2.17763
 Alpha virt. eigenvalues --    2.19579   2.23494   2.24572   2.25530   2.26849
 Alpha virt. eigenvalues --    2.29147   2.30322   2.32643   2.35459   2.38361
 Alpha virt. eigenvalues --    2.41448   2.42718   2.44231   2.44897   2.45756
 Alpha virt. eigenvalues --    2.46824   2.50628   2.53494   2.54811   2.57832
 Alpha virt. eigenvalues --    2.58592   2.60262   2.61465   2.61960   2.64324
 Alpha virt. eigenvalues --    2.68358   2.76190   2.80531   2.82681   2.84455
 Alpha virt. eigenvalues --    2.87043   2.89669   2.91813   2.96504   2.98257
 Alpha virt. eigenvalues --    3.00806   3.02354   3.05153   3.07109   3.08047
 Alpha virt. eigenvalues --    3.09205   3.09719   3.12901   3.17510   3.19633
 Alpha virt. eigenvalues --    3.23830   3.32237   3.43258   3.47757   3.60248
 Alpha virt. eigenvalues --    3.74855   3.82257   9.19953
          Condensed to atoms (all electrons):
               1          2          3          4          5          6
     1  C    4.869443   0.559789  -0.046834  -0.030027  -0.037718   0.543859
     2  C    0.559789   4.929357   0.516213  -0.037496  -0.028089  -0.048206
     3  C   -0.046834   0.516213   5.005740   0.548117  -0.046123  -0.037913
     4  C   -0.030027  -0.037496   0.548117   4.538672   0.577960  -0.036020
     5  C   -0.037718  -0.028089  -0.046123   0.577960   4.545464   0.559880
     6  C    0.543859  -0.048206  -0.037913  -0.036020   0.559880   4.981019
     7  N    0.002819   0.000042   0.003944  -0.067110   0.289529  -0.065798
     8  O   -0.000124   0.003284  -0.058192   0.200438  -0.051455   0.003075
     9  C    0.000033  -0.000139   0.002400  -0.029857   0.000133  -0.000085
    10  C    0.000001  -0.000011  -0.001686  -0.002964  -0.000199   0.000000
    11  C    0.000000   0.000002  -0.000196  -0.000010   0.000006   0.000000
    12  C    0.000000   0.000000   0.000030   0.000025  -0.000001   0.000000
    13  C    0.000000   0.000000  -0.000109  -0.000174   0.000001   0.000000
    14  C    0.000002  -0.000079   0.001026  -0.002696   0.000297  -0.000016
    15  Br   0.000028   0.000016  -0.000451  -0.003490  -0.000606  -0.000091
    16  H    0.381470  -0.028816   0.002535   0.000426   0.001517  -0.029687
    17  H   -0.027516   0.382238  -0.028403   0.000960   0.000435   0.002255
    18  H    0.002183  -0.024031   0.373656  -0.031410   0.001796   0.000232
    19  H   -0.025458   0.002367   0.000212   0.002115  -0.033931   0.378021
    20  H   -0.000082  -0.000011   0.000232  -0.009998  -0.028997   0.003503
    21  H    0.000055   0.000001  -0.000061   0.004279  -0.033958  -0.004999
    22  H    0.000000  -0.000005   0.000006   0.000462  -0.000025   0.000000
    23  H    0.000000   0.000000  -0.000001  -0.000001   0.000000   0.000000
    24  H    0.000000   0.000000   0.000000   0.000000   0.000000   0.000000
    25  H    0.000000   0.000000   0.000000   0.000002   0.000000   0.000000
               7          8          9         10         11         12
     1  C    0.002819  -0.000124   0.000033   0.000001   0.000000   0.000000
     2  C    0.000042   0.003284  -0.000139  -0.000011   0.000002   0.000000
     3  C    0.003944  -0.058192   0.002400  -0.001686  -0.000196   0.000030
     4  C   -0.067110   0.200438  -0.029857  -0.002964  -0.000010   0.000025
     5  C    0.289529  -0.051455   0.000133  -0.000199   0.000006  -0.000001
     6  C   -0.065798   0.003075  -0.000085   0.000000   0.000000   0.000000
     7  N    7.120869  -0.008485   0.000032   0.000001   0.000000   0.000000
     8  O   -0.008485   8.565015   0.226155  -0.045078   0.003477  -0.000088
     9  C    0.000032   0.226155   4.474783   0.569422  -0.042050  -0.025919
    10  C    0.000001  -0.045078   0.569422   4.991131   0.513416  -0.045903
    11  C    0.000000   0.003477  -0.042050   0.513416   4.916109   0.546311
    12  C    0.000000  -0.000088  -0.025919  -0.045903   0.546311   4.911340
    13  C   -0.000001   0.003168  -0.036834  -0.032762  -0.044641   0.536851
    14  C   -0.000075  -0.065428   0.521289  -0.063110  -0.025134  -0.048556
    15  Br  -0.001805  -0.004302  -0.066317   0.003208   0.000096   0.002764
    16  H   -0.000067   0.000001   0.000000   0.000000   0.000000   0.000000
    17  H    0.000003  -0.000033  -0.000005  -0.000001   0.000000   0.000000
    18  H   -0.000061  -0.004718   0.005322   0.003093   0.000293  -0.000045
    19  H   -0.002520  -0.000042   0.000000   0.000000   0.000000   0.000000
    20  H    0.325080   0.008546  -0.000289   0.000029  -0.000001   0.000000
    21  H    0.331796   0.000117   0.000001   0.000000   0.000000   0.000000
    22  H    0.000001  -0.000848  -0.026796   0.375900  -0.026465   0.002145
    23  H    0.000000  -0.000042   0.001300  -0.025540   0.379906  -0.027747
    24  H    0.000000   0.000001   0.000339   0.002128  -0.027578   0.382255
    25  H    0.000000  -0.000032   0.001466   0.000126   0.002136  -0.025286
              13         14         15         16         17         18
     1  C    0.000000   0.000002   0.000028   0.381470  -0.027516   0.002183
     2  C    0.000000  -0.000079   0.000016  -0.028816   0.382238  -0.024031
     3  C   -0.000109   0.001026  -0.000451   0.002535  -0.028403   0.373656
     4  C   -0.000174  -0.002696  -0.003490   0.000426   0.000960  -0.031410
     5  C    0.000001   0.000297  -0.000606   0.001517   0.000435   0.001796
     6  C    0.000000  -0.000016  -0.000091  -0.029687   0.002255   0.000232
     7  N   -0.000001  -0.000075  -0.001805  -0.000067   0.000003  -0.000061
     8  O    0.003168  -0.065428  -0.004302   0.000001  -0.000033  -0.004718
     9  C   -0.036834   0.521289  -0.066317   0.000000  -0.000005   0.005322
    10  C   -0.032762  -0.063110   0.003208   0.000000  -0.000001   0.003093
    11  C   -0.044641  -0.025134   0.000096   0.000000   0.000000   0.000293
    12  C    0.536851  -0.048556   0.002764   0.000000   0.000000  -0.000045
    13  C    4.947078   0.521827  -0.065928   0.000000   0.000000  -0.000126
    14  C    0.521827   4.914433   0.295968   0.000000   0.000000   0.000259
    15  Br  -0.065928   0.295968  34.962108   0.000000  -0.000001  -0.000012
    16  H    0.000000   0.000000   0.000000   0.472991  -0.001275  -0.000101
    17  H    0.000000   0.000000  -0.000001  -0.001275   0.470997  -0.001191
    18  H   -0.000126   0.000259  -0.000012  -0.000101  -0.001191   0.452305
    19  H    0.000000   0.000000  -0.000002  -0.001603  -0.000111   0.000009
    20  H    0.000005  -0.000331   0.004326   0.000002   0.000000  -0.000003
    21  H    0.000000   0.000002   0.000123  -0.000005   0.000000   0.000002
    22  H    0.000069   0.003061  -0.000091   0.000000   0.000000   0.000093
    23  H    0.002238   0.000270   0.000005   0.000000   0.000000  -0.000005
    24  H   -0.028460   0.001854  -0.000098   0.000000   0.000000   0.000000
    25  H    0.379998  -0.028301  -0.001171   0.000000   0.000000   0.000000
              19         20         21         22         23         24
     1  C   -0.025458  -0.000082   0.000055   0.000000   0.000000   0.000000
     2  C    0.002367  -0.000011   0.000001  -0.000005   0.000000   0.000000
     3  C    0.000212   0.000232  -0.000061   0.000006  -0.000001   0.000000
     4  C    0.002115  -0.009998   0.004279   0.000462  -0.000001   0.000000
     5  C   -0.033931  -0.028997  -0.033958  -0.000025   0.000000   0.000000
     6  C    0.378021   0.003503  -0.004999   0.000000   0.000000   0.000000
     7  N   -0.002520   0.325080   0.331796   0.000001   0.000000   0.000000
     8  O   -0.000042   0.008546   0.000117  -0.000848  -0.000042   0.000001
     9  C    0.000000  -0.000289   0.000001  -0.026796   0.001300   0.000339
    10  C    0.000000   0.000029   0.000000   0.375900  -0.025540   0.002128
    11  C    0.000000  -0.000001   0.000000  -0.026465   0.379906  -0.027578
    12  C    0.000000   0.000000   0.000000   0.002145  -0.027747   0.382255
    13  C    0.000000   0.000005   0.000000   0.000069   0.002238  -0.028460
    14  C    0.000000  -0.000331   0.000002   0.003061   0.000270   0.001854
    15  Br  -0.000002   0.004326   0.000123  -0.000091   0.000005  -0.000098
    16  H   -0.001603   0.000002  -0.000005   0.000000   0.000000   0.000000
    17  H   -0.000111   0.000000   0.000000   0.000000   0.000000   0.000000
    18  H    0.000009  -0.000003   0.000002   0.000093  -0.000005   0.000000
    19  H    0.478438  -0.000082   0.002824   0.000000   0.000000   0.000000
    20  H   -0.000082   0.325658  -0.021510   0.000000   0.000000   0.000000
    21  H    0.002824  -0.021510   0.359349   0.000000   0.000000   0.000000
    22  H    0.000000   0.000000   0.000000   0.436652  -0.001417  -0.000090
    23  H    0.000000   0.000000   0.000000  -0.001417   0.452430  -0.001166
    24  H    0.000000   0.000000   0.000000  -0.000090  -0.001166   0.454435
    25  H    0.000000   0.000000   0.000000   0.000008  -0.000095  -0.001303
              25
     1  C    0.000000
     2  C    0.000000
     3  C    0.000000
     4  C    0.000002
     5  C    0.000000
     6  C    0.000000
     7  N    0.000000
     8  O   -0.000032
     9  C    0.001466
    10  C    0.000126
    11  C    0.002136
    12  C   -0.025286
    13  C    0.379998
    14  C   -0.028301
    15  Br  -0.001171
    16  H    0.000000
    17  H    0.000000
    18  H    0.000000
    19  H    0.000000
    20  H    0.000000
    21  H    0.000000
    22  H    0.000008
    23  H   -0.000095
    24  H   -0.001303
    25  H    0.435014
 Mulliken charges:
               1
     1  C   -0.191923
     2  C   -0.226425
     3  C   -0.234143
     4  C    0.377796
     5  C    0.284083
     6  C   -0.249030
     7  N   -0.928192
     8  O   -0.774410
     9  C    0.425618
    10  C   -0.241201
    11  C   -0.195676
    12  C   -0.208175
    13  C   -0.182198
    14  C   -0.026562
    15  Br  -0.124279
    16  H    0.202613
    17  H    0.201648
    18  H    0.222459
    19  H    0.199765
    20  H    0.393924
    21  H    0.361986
    22  H    0.237338
    23  H    0.219863
    24  H    0.217684
    25  H    0.237437
 Sum of Mulliken charges =   0.00000
 Mulliken charges with hydrogens summed into heavy atoms:
               1
     1  C    0.010690
     2  C   -0.024778
     3  C   -0.011684
     4  C    0.377796
     5  C    0.284083
     6  C   -0.049265
     7  N   -0.172281
     8  O   -0.774410
     9  C    0.425618
    10  C   -0.003863
    11  C    0.024187
    12  C    0.009510
    13  C    0.055238
    14  C   -0.026562
    15  Br  -0.124279
 DipInt: DoE/N= T F RetVal/Mat= T F Init=T NMatP=  1 IDeriv=0 Min/MaxMlt=  0  4
 Entering OneElI...
 OneElI was handed   235754149 working-precision words.
 Multipole integrals L=0 to 4 MinM= 0 MaxM= 0.
 Requested accuracy = 0.1000D-12
 ShPair: Thresh= 1.00D-13 NBox=     0 BxSize= 0.00D+00 RnKept= 1.76D+01
         NSMCal=                 3916 NSMKep=                3378
 PrsmSu:  NPrtUS=   1 ThrOK=F IAlg=1 NPAlg=1 LenDen=           0.
 Prism:   IPart=     0 DynPar=F LinDyn=F Incr=          33.
 PRISM was handed   235448100 working-precision words and  3378 shell-pairs
 IPart=  0 NShTot=        3378 NBatch=         140 AvBLen=        24.1
 PrSmSu:  NxtVal=             34.
 Electronic moments (au):
       -132.00000000          0.62422387         -0.18770322         -0.45765408
      -2383.31560619      -1058.11726555       -413.52347839         -6.94743772
          0.93060186          2.29820013       1660.67537504         16.72031575
       -225.11967314      -1063.96987254       2651.10114158        907.73216187
        836.75684886        223.18257239        264.19616663       1262.12616401
     -93098.30264318     -16044.12227387      -3893.52449018       6230.55977063
      -2795.42444289        995.80838865        799.87320814         44.99451698
      -1272.57652893     -15114.45852737      -8490.03363433      -3150.92999680
      -3495.37237583      -1651.49829716       -218.97174474
 Electronic spatial extent (au):  <R**2>=           3854.9564
 DipInt: DoE/N= F T RetVal/Mat= T F Init=T NMatP=  1 IDeriv=0 Min/MaxMlt=  0  4
 Nuclear    moments (au):
        132.00000000          0.00000000          0.00000000          0.00000000
       2318.99759324        990.09414743        336.19480741          0.00000000
          0.00004812         -0.00008822      -1614.72161047         68.68758950
        203.00147849       1078.77902639      -2616.15572702       -945.89600398
       -820.94597113       -192.76550871       -255.67380807      -1287.42521841
      85203.35305681      12979.66921454       2372.59227943      -6446.73956331
       2720.45510835      -1106.64116326       -860.12256882        -12.54787854
       1250.79936402      13261.15118983       6753.37688615       2443.68309902
       3561.82004256       1656.73431096        285.18472095
 Total      moments (au):
          0.00000000          0.62422387         -0.18770322         -0.45765408
        -64.31801295        -68.02311812        -77.32867099         -6.94743772
          0.93064998          2.29811191         45.95376457         85.40790525
        -22.11819464         14.80915384         34.94541456        -38.16384211
         15.81087773         30.41706368          8.52235856        -25.29905440
      -7894.94958637      -3064.45305933      -1520.93221075       -216.17979268
        -74.96933454       -110.83277460        -60.24936068         32.44663844
        -21.77716492      -1853.30733755      -1736.65674818       -707.24689779
         66.44766673          5.23601381         66.21297621
 Traceless Quadrup. (au):
          5.57192107          1.86681590         -7.43873697         -6.94743772
          0.93064998          2.29811191
 Charge=              0.0000 electrons
 Dipole moment (field-independent basis, Debye):
    X=              1.5866    Y=             -0.4771    Z=             -1.1632  Tot=              2.0244
 Quadrupole moment (field-independent basis, Debye-Ang):
   XX=            -86.5099   YY=            -91.4934   ZZ=           -104.0097
   XY=             -9.3445   XZ=              1.2518   YZ=              3.0910
 Traceless Quadrupole moment (field-independent basis, Debye-Ang):
   XX=              7.4944   YY=              2.5109   ZZ=            -10.0054
   XY=             -9.3445   XZ=              1.2518   YZ=              3.0910
 Octapole moment (field-independent basis, Debye-Ang**2):
  XXX=             32.7081  YYY=             60.7901  ZZZ=            -15.7429  XYY=             10.5406
  XXY=             24.8728  XXZ=            -27.1636  XZZ=             11.2536  YZZ=             21.6497
  YYZ=              6.0659  XYZ=            -18.0069
 Hexadecapole moment (field-independent basis, Debye-Ang**3):
 XXXX=          -2973.6164 YYYY=          -1154.2199 ZZZZ=           -572.8560 XXXY=            -81.4237
 XXXZ=            -28.2370 YYYX=            -41.7449 YYYZ=            -22.6928 ZZZX=             12.2210
 ZZZY=             -8.2023 XXYY=           -698.0444 XXZZ=           -654.1082 YYZZ=           -266.3831
 XXYZ=             25.0274 YYXZ=              1.9721 ZZXY=             24.9390
 N-N= 1.284351001589D+03 E-N=-1.009698428326D+04  KE= 3.161997079274D+03
 Entering OneElI...
 OneElI was handed   235795274 working-precision words.
 Calculate electrostatic properties
    NBasis =   244  MinDer = 0  MaxDer = 0
    NGrid  =    25  NMatD  =   1
 Requested accuracy = 0.1000D-12
 PrtBox:  NBox=     1 Levels=  1 BoxLen=   32.44 SMaxX=       17.50
          Shift=            8.734433            5.788941            4.158501
 Box      1 Number                   0 centers from      1 to     88:
 ShPair: Thresh= 1.00D-13 NBox=     1 BxSize= 3.24D+01 RnKept= 1.67D+01
         NSMCal=                 3916 NSMKep=                2985
 PrsmSu:  NPrtUS=   1 ThrOK=F IAlg=1 NPAlg=1 LenDen=           0.
 Prism:   IPart=     0 DynPar=F LinDyn=F Incr=         512.
 PRISM was handed   235522645 working-precision words and  2985 shell-pairs
 IPart=  0 NShTot=       74625 NBatch=        3091 AvBLen=        24.1
 PrSmSu:  NxtVal=            513.
 --------------------------------------------------------
       Center         ----      EFG at Nuclei      ----
                      3XX-RR        3YY-RR        3ZZ-RR
 --------------------------------------------------------
     1   Atom        0.098106     -0.052317     -0.045789
     2   Atom        0.101809     -0.055441     -0.046368
     3   Atom        0.115719     -0.099133     -0.016586
     4   Atom       -0.174304      0.154917      0.019388
     5   Atom        0.226632     -0.109101     -0.117531
     6   Atom        0.033568     -0.032750     -0.000819
     7   Atom       -0.299693     -0.168916      0.468609
     8   Atom       -1.922912      1.756097      0.166815
     9   Atom       -0.151850      0.258821     -0.106971
    10   Atom        0.114365      0.046813     -0.161179
    11   Atom        0.102313      0.085192     -0.187504
    12   Atom        0.069270      0.098597     -0.167867
    13   Atom        0.062583      0.125442     -0.188025
    14   Atom        0.160025     -0.209036      0.049011
    15   Atom        1.357692     -4.574042      3.216350
    16   Atom       -0.185616      0.152279      0.033337
    17   Atom        0.143532     -0.044863     -0.098669
    18   Atom       -0.131837     -0.000057      0.131894
    19   Atom       -0.126299     -0.004550      0.130849
    20   Atom       -0.325656      0.131663      0.193992
    21   Atom       -0.031623     -0.177974      0.209597
    22   Atom        0.052473     -0.078750      0.026277
    23   Atom        0.042106     -0.185703      0.143597
    24   Atom       -0.240544      0.138430      0.102114
    25   Atom        0.058290     -0.094389      0.036100
 --------------------------------------------------------
                        XY            XZ            YZ
 --------------------------------------------------------
     1   Atom       -0.130207      0.083940      0.229626
     2   Atom       -0.102803      0.073122      0.156914
     3   Atom       -0.091883      0.115453      0.178960
     4   Atom       -0.113836     -0.214554      0.155499
     5   Atom       -0.119243      0.132664      0.137750
     6   Atom       -0.054079      0.071587      0.160817
     7   Atom        0.230155     -0.343075     -0.699979
     8   Atom        0.117300     -0.189075     -0.382274
     9   Atom       -0.038918      0.035116     -0.185659
    10   Atom       -0.067070     -0.152401     -0.133196
    11   Atom       -0.060531     -0.178624     -0.174979
    12   Atom       -0.056670     -0.144987     -0.159597
    13   Atom       -0.084067     -0.137821     -0.164246
    14   Atom        0.183871     -0.182912     -0.024884
    15   Atom        4.241366     -0.710246      1.412886
    16   Atom       -0.021786     -0.204314     -0.026125
    17   Atom       -0.013994     -0.028689     -0.237350
    18   Atom        0.211226      0.070234     -0.068739
    19   Atom        0.211847      0.070777     -0.074714
    20   Atom       -0.145823     -0.095437     -0.059955
    21   Atom        0.284677     -0.046352      0.002190
    22   Atom       -0.142291      0.117739      0.180932
    23   Atom        0.189627     -0.032982      0.078294
    24   Atom        0.057933      0.157255     -0.012924
    25   Atom       -0.140995      0.111339      0.179365
 --------------------------------------------------------


 ---------------------------------------------------------------------------------
              Nuclear Quadrupole Coupling Constant in Principal Axis System
 ---------------------------------------------------------------------------------

       Atom             a.u.   MegaHertz   Gauss  10(-4) cm-1        Axes

              Baa    -0.6196     2.976     1.062     0.993 -0.0379  0.8458  0.5321
     7 N(14)  Bbb    -0.4262     2.047     0.730     0.683  0.9552 -0.1258  0.2679
              Bcc     1.0458    -5.023    -1.792    -1.675 -0.2935 -0.5184  0.8032
 
              Baa    -7.0277   516.846   184.423   172.401 -0.4563  0.8766 -0.1525
    15 Br(79) Bbb     3.4558  -254.154   -90.689   -84.777 -0.2455  0.0407  0.9685
              Bcc     3.5719  -262.691   -93.735   -87.624  0.8553  0.4794  0.1967
 

 ---------------------------------------------------------------------------------

 No NMR shielding tensors so no spin-rotation constants.
 Leave Link  601 at Thu Jan 16 22:40:32 2014, MaxMem=   235929600 cpu:         0.3
 FitSet:  NAtFit=    25 NAtPot=    25 NAtFrz=     0 MDM=    29 TotChg=   0.00000
 Merz-Kollman atomic radii used.
 Atom Element Radius
    1     6    1.50
    2     6    1.50
    3     6    1.50
    4     6    1.50
    5     6    1.50
    6     6    1.50
    7     7    1.50
    8     8    1.40
    9     6    1.50
   10     6    1.50
   11     6    1.50
   12     6    1.50
   13     6    1.50
   14     6    1.50
   15    35    2.30
   16     1    1.20
   17     1    1.20
   18     1    1.20
   19     1    1.20
   20     1    1.20
   21     1    1.20
   22     1    1.20
   23     1    1.20
   24     1    1.20
   25     1    1.20
 Generate VDW surfaces: Layer= 5 Dens= 2 Start= 1.400 Inc= 0.179

 **********************************************************************

            Electrostatic Properties Using The SCF Density

 **********************************************************************

       Atomic Center    1 is at  -3.692821 -0.894041 -1.068744
       Atomic Center    2 is at  -2.612256 -1.713574 -1.391664
       Atomic Center    3 is at  -1.425053 -1.606336 -0.661233
       Atomic Center    4 is at  -1.331358 -0.683052  0.372020
       Atomic Center    5 is at  -2.405703  0.164125  0.706301
       Atomic Center    6 is at  -3.590262  0.033247 -0.031560
       Atomic Center    7 is at  -2.279849  1.052238  1.774962
       Atomic Center    8 is at  -0.200227 -0.557453  1.186444
       Atomic Center    9 is at   1.043489 -0.751373  0.631260
       Atomic Center   10 is at   1.726420 -1.943362  0.881269
       Atomic Center   11 is at   3.017059 -2.132000  0.387260
       Atomic Center   12 is at   3.633069 -1.127150 -0.360055
       Atomic Center   13 is at   2.963739  0.072917 -0.604632
       Atomic Center   14 is at   1.676493  0.257950 -0.105238
       Atomic Center   15 is at   0.778138  1.913746 -0.392641
       Atomic Center   16 is at  -4.622063 -0.969200 -1.626822
       Atomic Center   17 is at  -2.684916 -2.434243 -2.200584
       Atomic Center   18 is at  -0.572676 -2.236954 -0.893696
       Atomic Center   19 is at  -4.433309  0.675834  0.212872
       Atomic Center   20 is at  -1.320232  1.330675  1.946291
       Atomic Center   21 is at  -2.898429  1.852339  1.719818
       Atomic Center   22 is at   1.227667 -2.706182  1.470925
       Atomic Center   23 is at   3.538768 -3.063376  0.586943
       Atomic Center   24 is at   4.637493 -1.268004 -0.748266
       Atomic Center   25 is at   3.436716  0.867851 -1.171235
      ESP Fit Center   26 is at  -4.576787 -1.914192  0.539949
      ESP Fit Center   27 is at  -3.884925 -2.230155  0.539949
      ESP Fit Center   28 is at  -5.471732 -1.272160 -0.018744
      ESP Fit Center   29 is at  -5.164142 -1.963018 -0.018744
      ESP Fit Center   30 is at  -4.602147 -2.469041 -0.018744
      ESP Fit Center   31 is at  -3.882922 -2.702731 -0.018744
      ESP Fit Center   32 is at  -4.939127 -2.544417 -0.704083
      ESP Fit Center   33 is at  -4.258782 -2.883189 -0.704083
      ESP Fit Center   34 is at  -2.475904  0.457482 -2.118744
      ESP Fit Center   35 is at  -3.130826  0.835602 -2.118744
      ESP Fit Center   36 is at  -3.882922  0.914650 -2.118744
      ESP Fit Center   37 is at  -4.602147  0.680959 -2.118744
      ESP Fit Center   38 is at  -3.132071  0.333830 -2.677437
      ESP Fit Center   39 is at  -3.884925  0.442074 -2.677437
      ESP Fit Center   40 is at  -3.333700 -0.272025 -3.042099
      ESP Fit Center   41 is at  -3.692821 -0.894041 -3.168744
      ESP Fit Center   42 is at  -2.971377 -2.335591  0.581690
      ESP Fit Center   43 is at  -3.496222 -2.733726  0.217029
      ESP Fit Center   44 is at  -2.804360 -3.049689  0.217029
      ESP Fit Center   45 is at  -3.521582 -3.288574 -0.341664
      ESP Fit Center   46 is at  -2.802357 -3.522265 -0.341664
      ESP Fit Center   47 is at  -3.858562 -3.363951 -1.027003
      ESP Fit Center   48 is at  -3.178217 -3.702722 -1.027003
      ESP Fit Center   49 is at  -2.421436 -3.772849 -1.027003
      ESP Fit Center   50 is at  -4.370587 -2.802287 -1.756325
      ESP Fit Center   51 is at  -1.395339 -0.362052 -2.441664
      ESP Fit Center   52 is at  -2.050261  0.016068 -2.441664
      ESP Fit Center   53 is at  -1.262402 -1.713574 -3.000357
      ESP Fit Center   54 is at  -1.476686 -0.983788 -3.000357
      ESP Fit Center   55 is at  -2.051506 -0.485704 -3.000357
      ESP Fit Center   56 is at  -2.804360 -0.377460 -3.000357
      ESP Fit Center   57 is at  -2.253135 -1.091558 -3.365019
      ESP Fit Center   58 is at  -2.971377 -1.091558 -3.365019
      ESP Fit Center   59 is at  -2.309019 -2.626488  0.947460
      ESP Fit Center   60 is at  -1.617157 -2.942451  0.947460
      ESP Fit Center   61 is at  -0.864303 -2.834207  0.947460
      ESP Fit Center   62 is at  -2.334379 -3.181336  0.388767
      ESP Fit Center   63 is at  -1.615154 -3.415027  0.388767
      ESP Fit Center   64 is at  -0.863058 -3.335978  0.388767
      ESP Fit Center   65 is at  -1.991014 -3.595484 -0.296572
      ESP Fit Center   66 is at  -1.234233 -3.665610 -0.296572
      ESP Fit Center   67 is at  -1.615154  0.202354 -1.711233
      ESP Fit Center   68 is at  -0.289483 -0.876550 -2.269926
      ESP Fit Center   69 is at  -0.864303 -0.378466 -2.269926
      ESP Fit Center   70 is at  -0.706810 -1.606336 -2.634588
      ESP Fit Center   71 is at  -1.065932 -0.984320 -2.634588
      ESP Fit Center   72 is at  -1.690479 -1.305068  2.345374
      ESP Fit Center   73 is at  -2.215324 -1.703204  1.980713
      ESP Fit Center   74 is at  -1.523462 -2.019167  1.980713
      ESP Fit Center   75 is at  -2.240684 -2.258052  1.422020
      ESP Fit Center   76 is at  -1.521459 -2.491743  1.422020
      ESP Fit Center   77 is at  -3.289669 -0.856027  2.314994
      ESP Fit Center   78 is at  -2.597807 -1.171990  2.314994
      ESP Fit Center   79 is at  -3.315030 -1.410875  1.756301
      ESP Fit Center   80 is at  -2.595804 -1.644566  1.756301
      ESP Fit Center   81 is at  -2.971664 -1.825023  1.070962
      ESP Fit Center   82 is at  -2.595804  1.972815 -0.343699
      ESP Fit Center   83 is at  -4.308504  0.033247  1.941794
      ESP Fit Center   84 is at  -3.949383 -0.588769  1.941794
      ESP Fit Center   85 is at  -4.885437 -0.347050  1.577133
      ESP Fit Center   86 is at  -4.474228 -0.986904  1.577133
      ESP Fit Center   87 is at  -3.782366 -1.302867  1.577133
      ESP Fit Center   88 is at  -5.061583 -1.035730  1.018440
      ESP Fit Center   89 is at  -4.499589 -1.541753  1.018440
      ESP Fit Center   90 is at  -3.780363 -1.775443  1.018440
      ESP Fit Center   91 is at  -5.348593 -1.055465  0.333101
      ESP Fit Center   92 is at  -3.399442  2.092522 -0.396221
      ESP Fit Center   93 is at  -5.623145 -0.346764 -0.396221
      ESP Fit Center   94 is at  -2.373345  1.384770 -1.081560
      ESP Fit Center   95 is at  -3.028267  1.762890 -1.081560
      ESP Fit Center   96 is at  -3.780363  1.841938 -1.081560
      ESP Fit Center   97 is at  -2.454692  0.763034 -1.640253
      ESP Fit Center   98 is at  -3.029512  1.261118 -1.640253
      ESP Fit Center   99 is at  -3.782366  1.369362 -1.640253
      ESP Fit Center  100 is at  -4.474228  1.053399 -1.640253
      ESP Fit Center  101 is at  -2.279849  1.052238  3.874962
      ESP Fit Center  102 is at  -1.561607  1.052238  3.748316
      ESP Fit Center  103 is at  -1.920728  1.674254  3.748316
      ESP Fit Center  104 is at  -2.638970  1.674254  3.748316
      ESP Fit Center  105 is at  -2.998091  1.052238  3.748316
      ESP Fit Center  106 is at  -2.638970  0.430222  3.748316
      ESP Fit Center  107 is at  -1.920728  0.430222  3.748316
      ESP Fit Center  108 is at  -1.719099  2.280108  3.383655
      ESP Fit Center  109 is at  -2.471953  2.388352  3.383655
      ESP Fit Center  110 is at  -3.163815  2.072389  3.383655
      ESP Fit Center  111 is at  -3.575024  1.432535  3.383655
      ESP Fit Center  112 is at  -3.575024  0.671940  3.383655
      ESP Fit Center  113 is at  -3.163815  0.032086  3.383655
      ESP Fit Center  114 is at  -2.471953 -0.283877  3.383655
      ESP Fit Center  115 is at  -1.719099 -0.175633  3.383655
      ESP Fit Center  116 is at  -1.144280  0.322451  3.383655
      ESP Fit Center  117 is at  -1.717854  2.781880  2.824962
      ESP Fit Center  118 is at  -4.058760  0.674118  2.824962
      ESP Fit Center  119 is at  -3.751170 -0.016740  2.824962
      ESP Fit Center  120 is at  -3.189176 -0.522762  2.824962
      ESP Fit Center  121 is at  -2.469950 -0.756453  2.824962
      ESP Fit Center  122 is at  -1.717854 -0.677405  2.824962
      ESP Fit Center  123 is at  -4.312732  0.672226  2.139623
      ESP Fit Center  124 is at  -4.038180 -0.036475  2.139623
      ESP Fit Center  125 is at  -2.471953  2.388352  0.166269
      ESP Fit Center  126 is at  -0.200227 -0.557453  3.146444
      ESP Fit Center  127 is at   0.549833 -0.557453  2.997248
      ESP Fit Center  128 is at   0.174803  0.092117  2.997248
      ESP Fit Center  129 is at  -0.575257  0.092117  2.997248
      ESP Fit Center  130 is at  -0.950286 -0.557453  2.997248
      ESP Fit Center  131 is at  -0.575257 -1.207024  2.997248
      ESP Fit Center  132 is at   0.174803 -1.207024  2.997248
      ESP Fit Center  133 is at   1.000023  0.135512  2.572373
      ESP Fit Center  134 is at   0.492738  0.642797  2.572373
      ESP Fit Center  135 is at  -1.400477 -1.250418  2.572373
      ESP Fit Center  136 is at  -0.893191 -1.757703  2.572373
      ESP Fit Center  137 is at  -0.200227 -1.943382  2.572373
      ESP Fit Center  138 is at  -1.105629 -2.125655  1.936504
      ESP Fit Center  139 is at  -0.389507 -2.358337  1.936504
      ESP Fit Center  140 is at   1.043489 -0.751373  2.731260
      ESP Fit Center  141 is at   1.402610 -0.129357  2.604614
      ESP Fit Center  142 is at   2.179059 -0.021587  2.239953
      ESP Fit Center  143 is at   1.726420 -1.943362  2.981269
      ESP Fit Center  144 is at   2.444663 -1.943362  2.854623
      ESP Fit Center  145 is at   2.085542 -1.321346  2.854623
      ESP Fit Center  146 is at   1.367299 -1.321346  2.854623
      ESP Fit Center  147 is at   3.076274 -1.943362  2.489962
      ESP Fit Center  148 is at   2.861990 -1.213576  2.489962
      ESP Fit Center  149 is at   2.287170 -0.715491  2.489962
      ESP Fit Center  150 is at   2.861990 -2.673148  2.489962
      ESP Fit Center  151 is at   2.943337 -0.591839  1.931269
      ESP Fit Center  152 is at   1.917240 -4.002636  0.516608
      ESP Fit Center  153 is at   0.817094 -3.518362 -0.168731
      ESP Fit Center  154 is at   1.536319 -3.752052 -0.168731
      ESP Fit Center  155 is at   1.534316 -3.279476 -0.727424
      ESP Fit Center  156 is at   1.367299 -2.565378 -1.092086
      ESP Fit Center  157 is at   3.735302 -2.132000  2.360614
      ESP Fit Center  158 is at   3.376181 -1.509984  2.360614
      ESP Fit Center  159 is at   3.376181 -2.754016  2.360614
      ESP Fit Center  160 is at   4.366913 -2.132000  1.995953
      ESP Fit Center  161 is at   4.152629 -1.402214  1.995953
      ESP Fit Center  162 is at   3.577809 -0.904129  1.995953
      ESP Fit Center  163 is at   4.835713 -2.132000  1.437260
      ESP Fit Center  164 is at   2.107733 -3.707000 -0.662740
      ESP Fit Center  165 is at   2.826958 -3.940690 -0.662740
      ESP Fit Center  166 is at   1.721884 -1.751702 -1.221433
      ESP Fit Center  167 is at   1.721884 -2.512297 -1.221433
      ESP Fit Center  168 is at   2.133093 -3.152151 -1.221433
      ESP Fit Center  169 is at   2.824955 -3.468114 -1.221433
      ESP Fit Center  170 is at   3.577809 -3.359870 -1.221433
      ESP Fit Center  171 is at   2.657938 -2.754016 -1.586095
      ESP Fit Center  172 is at   3.992190 -0.505134  1.613299
      ESP Fit Center  173 is at   4.982923 -1.127150  1.248638
      ESP Fit Center  174 is at   4.768639 -0.397363  1.248638
      ESP Fit Center  175 is at   4.193819  0.100721  1.248638
      ESP Fit Center  176 is at   5.294492 -0.387437  0.689945
      ESP Fit Center  177 is at   4.849986  0.224373  0.689945
      ESP Fit Center  178 is at   5.294492 -1.866863  0.689945
      ESP Fit Center  179 is at   5.161411  0.266118  0.004606
      ESP Fit Center  180 is at   4.195064 -2.856792 -1.410055
      ESP Fit Center  181 is at   2.337894 -1.507447 -1.968748
      ESP Fit Center  182 is at   2.749103 -2.147301 -1.968748
      ESP Fit Center  183 is at   3.440965 -2.463264 -1.968748
      ESP Fit Center  184 is at   4.193819 -2.355020 -1.968748
      ESP Fit Center  185 is at   2.914827 -1.127150 -2.333410
      ESP Fit Center  186 is at   3.273948 -1.749166 -2.333410
      ESP Fit Center  187 is at   3.992190 -1.749166 -2.333410
      ESP Fit Center  188 is at   3.633069 -1.127150 -2.460055
      ESP Fit Center  189 is at   3.681981  0.072917  1.368722
      ESP Fit Center  190 is at   3.322860  0.694933  1.368722
      ESP Fit Center  191 is at   4.099309  0.802703  1.004061
      ESP Fit Center  192 is at   4.625162  0.812630  0.445368
      ESP Fit Center  193 is at   4.180656  1.424440  0.445368
      ESP Fit Center  194 is at   4.892181  0.820000 -0.239971
      ESP Fit Center  195 is at   2.079773 -0.947234 -2.213325
      ESP Fit Center  196 is at   2.604618 -0.549099 -2.577987
      ESP Fit Center  197 is at   3.322860 -0.549099 -2.577987
      ESP Fit Center  198 is at   2.963739  0.072917 -2.704632
      ESP Fit Center  199 is at   3.026347  0.257950  1.503455
      ESP Fit Center  200 is at   1.484389 -1.078164 -1.713931
      ESP Fit Center  201 is at   0.778138  1.913746  2.827359
      ESP Fit Center  202 is at   1.494655  1.913746  2.746627
      ESP Fit Center  203 is at   1.136397  2.534268  2.746627
      ESP Fit Center  204 is at   0.419879  2.534268  2.746627
      ESP Fit Center  205 is at   0.061620  1.913746  2.746627
      ESP Fit Center  206 is at   0.419879  1.293224  2.746627
      ESP Fit Center  207 is at   1.136397  1.293224  2.746627
      ESP Fit Center  208 is at   2.175243  1.913746  2.508479
      ESP Fit Center  209 is at   1.988067  2.612299  2.508479
      ESP Fit Center  210 is at   1.476691  3.123675  2.508479
      ESP Fit Center  211 is at   0.778138  3.310852  2.508479
      ESP Fit Center  212 is at   0.079585  3.123675  2.508479
      ESP Fit Center  213 is at   0.778138  0.516640  2.508479
      ESP Fit Center  214 is at   1.476691  0.703817  2.508479
      ESP Fit Center  215 is at   1.988067  1.215193  2.508479
      ESP Fit Center  216 is at   2.785775  1.913746  2.124856
      ESP Fit Center  217 is at   2.650204  2.638988  2.124856
      ESP Fit Center  218 is at   2.261800  3.266282  2.124856
      ESP Fit Center  219 is at   1.673019  3.710909  2.124856
      ESP Fit Center  220 is at   0.963379  3.912819  2.124856
      ESP Fit Center  221 is at   0.228722  3.844743  2.124856
      ESP Fit Center  222 is at  -0.431734  3.515875  2.124856
      ESP Fit Center  223 is at  -0.928790  2.970631  2.124856
      ESP Fit Center  224 is at   2.261800  0.561210  2.124856
      ESP Fit Center  225 is at   2.650204  1.188504  2.124856
      ESP Fit Center  226 is at   3.295635  1.913746  1.614996
      ESP Fit Center  227 is at   3.183790  2.655791  1.614996
      ESP Fit Center  228 is at   2.858192  3.331903  1.614996
      ESP Fit Center  229 is at   2.347772  3.882005  1.614996
      ESP Fit Center  230 is at   1.697883  4.257218  1.614996
      ESP Fit Center  231 is at   0.966271  4.424204  1.614996
      ESP Fit Center  232 is at   0.217942  4.368124  1.614996
      ESP Fit Center  233 is at  -0.480611  4.093963  1.614996
      ESP Fit Center  234 is at  -1.067318  3.626079  1.614996
      ESP Fit Center  235 is at  -1.490049  3.006047  1.614996
      ESP Fit Center  236 is at   2.858192  0.495589  1.614996
      ESP Fit Center  237 is at   3.183790  1.171701  1.614996
      ESP Fit Center  238 is at   3.679258  1.913746  1.004465
      ESP Fit Center  239 is at   3.588114  2.635225  1.004465
      ESP Fit Center  240 is at   3.320408  3.311371  1.004465
      ESP Fit Center  241 is at   2.892963  3.899699  1.004465
      ESP Fit Center  242 is at   2.332636  4.363242  1.004465
      ESP Fit Center  243 is at   1.674633  4.672875  1.004465
      ESP Fit Center  244 is at   0.960301  4.809141  1.004465
      ESP Fit Center  245 is at   0.234522  4.763479  1.004465
      ESP Fit Center  246 is at  -0.457099  4.538758  1.004465
      ESP Fit Center  247 is at  -1.071105  4.149097  1.004465
      ESP Fit Center  248 is at  -1.568917  3.618981  1.004465
      ESP Fit Center  249 is at   3.917406  1.913746  0.323876
      ESP Fit Center  250 is at   3.832786  2.637711  0.323876
      ESP Fit Center  251 is at   3.583490  3.322647  0.323876
      ESP Fit Center  252 is at   3.182957  3.931629  0.323876
      ESP Fit Center  253 is at   2.652779  4.431826  0.323876
      ESP Fit Center  254 is at   2.021538  4.796272  0.323876
      ESP Fit Center  255 is at   1.323266  5.005321  0.323876
      ESP Fit Center  256 is at   0.595606  5.047703  0.323876
      ESP Fit Center  257 is at  -0.122214  4.921132  0.323876
      ESP Fit Center  258 is at  -0.791496  4.632432  0.323876
      ESP Fit Center  259 is at  -1.376158  4.197167  0.323876
      ESP Fit Center  260 is at  -1.844682  3.638802  0.323876
      ESP Fit Center  261 is at  -2.171809  2.987439  0.323876
      ESP Fit Center  262 is at   3.917406  2.630263 -0.392641
      ESP Fit Center  263 is at   3.679258  3.310852 -0.392641
      ESP Fit Center  264 is at   3.295635  3.921383 -0.392641
      ESP Fit Center  265 is at   2.785775  4.431243 -0.392641
      ESP Fit Center  266 is at   2.175243  4.814866 -0.392641
      ESP Fit Center  267 is at   1.494655  5.053014 -0.392641
      ESP Fit Center  268 is at   0.778138  5.133746 -0.392641
      ESP Fit Center  269 is at   0.061620  5.053014 -0.392641
      ESP Fit Center  270 is at  -0.618968  4.814866 -0.392641
      ESP Fit Center  271 is at  -1.229499  4.431243 -0.392641
      ESP Fit Center  272 is at  -1.739360  3.921383 -0.392641
      ESP Fit Center  273 is at  -2.122982  3.310852 -0.392641
      ESP Fit Center  274 is at  -2.361130  2.630263 -0.392641
      ESP Fit Center  275 is at   3.832786  2.637711 -1.109158
      ESP Fit Center  276 is at   3.583490  3.322647 -1.109158
      ESP Fit Center  277 is at   3.182957  3.931629 -1.109158
      ESP Fit Center  278 is at   2.652779  4.431826 -1.109158
      ESP Fit Center  279 is at   2.021538  4.796272 -1.109158
      ESP Fit Center  280 is at   1.323266  5.005321 -1.109158
      ESP Fit Center  281 is at   0.595606  5.047703 -1.109158
      ESP Fit Center  282 is at  -0.122214  4.921132 -1.109158
      ESP Fit Center  283 is at  -0.791496  4.632432 -1.109158
      ESP Fit Center  284 is at  -1.376158  4.197167 -1.109158
      ESP Fit Center  285 is at  -1.844682  3.638802 -1.109158
      ESP Fit Center  286 is at  -2.171809  2.987439 -1.109158
      ESP Fit Center  287 is at  -2.339903  2.278193 -1.109158
      ESP Fit Center  288 is at  -2.339903  1.549299 -1.109158
      ESP Fit Center  289 is at   3.588114  2.635225 -1.789747
      ESP Fit Center  290 is at   3.320408  3.311371 -1.789747
      ESP Fit Center  291 is at   2.892963  3.899699 -1.789747
      ESP Fit Center  292 is at   2.332636  4.363242 -1.789747
      ESP Fit Center  293 is at   1.674633  4.672875 -1.789747
      ESP Fit Center  294 is at   0.960301  4.809141 -1.789747
      ESP Fit Center  295 is at   0.234522  4.763479 -1.789747
      ESP Fit Center  296 is at  -0.457099  4.538758 -1.789747
      ESP Fit Center  297 is at  -1.071105  4.149097 -1.789747
      ESP Fit Center  298 is at  -1.568917  3.618981 -1.789747
      ESP Fit Center  299 is at  -1.919255  2.981719 -1.789747
      ESP Fit Center  300 is at  -2.100106  2.277353 -1.789747
      ESP Fit Center  301 is at  -2.100106  1.550139 -1.789747
      ESP Fit Center  302 is at  -1.919255  0.845773 -1.789747
      ESP Fit Center  303 is at  -1.568917  0.208511 -1.789747
      ESP Fit Center  304 is at   0.234522 -0.935987 -1.789747
      ESP Fit Center  305 is at   0.960301 -0.981649 -1.789747
      ESP Fit Center  306 is at   3.183790  2.655791 -2.400278
      ESP Fit Center  307 is at   2.858192  3.331903 -2.400278
      ESP Fit Center  308 is at   2.347772  3.882005 -2.400278
      ESP Fit Center  309 is at   1.697883  4.257218 -2.400278
      ESP Fit Center  310 is at   0.966271  4.424204 -2.400278
      ESP Fit Center  311 is at   0.217942  4.368124 -2.400278
      ESP Fit Center  312 is at  -0.480611  4.093963 -2.400278
      ESP Fit Center  313 is at  -1.067318  3.626079 -2.400278
      ESP Fit Center  314 is at  -1.490049  3.006047 -2.400278
      ESP Fit Center  315 is at  -1.711241  2.288960 -2.400278
      ESP Fit Center  316 is at  -1.711241  1.538533 -2.400278
      ESP Fit Center  317 is at  -1.490049  0.821445 -2.400278
      ESP Fit Center  318 is at  -1.067318  0.201413 -2.400278
      ESP Fit Center  319 is at  -0.480611 -0.266471 -2.400278
      ESP Fit Center  320 is at   0.217942 -0.540632 -2.400278
      ESP Fit Center  321 is at   0.966271 -0.596712 -2.400278
      ESP Fit Center  322 is at   1.697883 -0.429726 -2.400278
      ESP Fit Center  323 is at   2.785775  1.913746 -2.910138
      ESP Fit Center  324 is at   2.650204  2.638988 -2.910138
      ESP Fit Center  325 is at   2.261800  3.266282 -2.910138
      ESP Fit Center  326 is at   1.673019  3.710909 -2.910138
      ESP Fit Center  327 is at   0.963379  3.912819 -2.910138
      ESP Fit Center  328 is at   0.228722  3.844743 -2.910138
      ESP Fit Center  329 is at  -0.431734  3.515875 -2.910138
      ESP Fit Center  330 is at  -0.928790  2.970631 -2.910138
      ESP Fit Center  331 is at  -1.195315  2.282648 -2.910138
      ESP Fit Center  332 is at  -1.195315  1.544844 -2.910138
      ESP Fit Center  333 is at  -0.928790  0.856861 -2.910138
      ESP Fit Center  334 is at  -0.431734  0.311617 -2.910138
      ESP Fit Center  335 is at   0.228722 -0.017251 -2.910138
      ESP Fit Center  336 is at   0.963379 -0.085327 -2.910138
      ESP Fit Center  337 is at   1.673019  0.116583 -2.910138
      ESP Fit Center  338 is at   2.261800  0.561210 -2.910138
      ESP Fit Center  339 is at   2.650204  1.188504 -2.910138
      ESP Fit Center  340 is at   2.175243  1.913746 -3.293761
      ESP Fit Center  341 is at   1.988067  2.612299 -3.293761
      ESP Fit Center  342 is at   1.476691  3.123675 -3.293761
      ESP Fit Center  343 is at   0.778138  3.310852 -3.293761
      ESP Fit Center  344 is at   0.079585  3.123675 -3.293761
      ESP Fit Center  345 is at  -0.431791  2.612299 -3.293761
      ESP Fit Center  346 is at  -0.618968  1.913746 -3.293761
      ESP Fit Center  347 is at  -0.431791  1.215193 -3.293761
      ESP Fit Center  348 is at   0.079585  0.703817 -3.293761
      ESP Fit Center  349 is at   0.778138  0.516640 -3.293761
      ESP Fit Center  350 is at   1.476691  0.703817 -3.293761
      ESP Fit Center  351 is at   1.988067  1.215193 -3.293761
      ESP Fit Center  352 is at   1.494655  1.913746 -3.531909
      ESP Fit Center  353 is at   1.136397  2.534268 -3.531909
      ESP Fit Center  354 is at   0.419879  2.534268 -3.531909
      ESP Fit Center  355 is at   0.061620  1.913746 -3.531909
      ESP Fit Center  356 is at   0.419879  1.293224 -3.531909
      ESP Fit Center  357 is at   1.136397  1.293224 -3.531909
      ESP Fit Center  358 is at   0.778138  1.913746 -3.612641
      ESP Fit Center  359 is at  -5.684688 -0.197157 -0.579359
      ESP Fit Center  360 is at  -5.935540 -0.969200 -0.579359
      ESP Fit Center  361 is at  -5.684688 -1.741242 -0.579359
      ESP Fit Center  362 is at  -5.848033  0.116915 -1.252987
      ESP Fit Center  363 is at  -6.212348 -0.577230 -1.252987
      ESP Fit Center  364 is at  -6.212348 -1.361170 -1.252987
      ESP Fit Center  365 is at  -5.848033 -2.055314 -1.252987
      ESP Fit Center  366 is at  -5.202863 -2.500643 -1.252987
      ESP Fit Center  367 is at  -5.202863  0.562244 -2.000657
      ESP Fit Center  368 is at  -5.848033  0.116915 -2.000657
      ESP Fit Center  369 is at  -6.212348 -0.577230 -2.000657
      ESP Fit Center  370 is at  -6.212348 -1.361170 -2.000657
      ESP Fit Center  371 is at  -5.848033 -2.055314 -2.000657
      ESP Fit Center  372 is at  -5.202863 -2.500643 -2.000657
      ESP Fit Center  373 is at  -5.027949  0.279991 -2.674285
      ESP Fit Center  374 is at  -5.684688 -0.197157 -2.674285
      ESP Fit Center  375 is at  -5.935540 -0.969200 -2.674285
      ESP Fit Center  376 is at  -5.684688 -1.741242 -2.674285
      ESP Fit Center  377 is at  -5.027949 -2.218390 -2.674285
      ESP Fit Center  378 is at  -4.257600 -0.337932 -3.140450
      ESP Fit Center  379 is at  -4.986525 -0.337932 -3.140450
      ESP Fit Center  380 is at  -5.350987 -0.969200 -3.140450
      ESP Fit Center  381 is at  -4.986525 -1.600467 -3.140450
      ESP Fit Center  382 is at  -4.257600 -1.600467 -3.140450
      ESP Fit Center  383 is at  -4.622063 -0.969200 -3.306822
      ESP Fit Center  384 is at  -3.910886 -3.520358 -1.826749
      ESP Fit Center  385 is at  -3.265715 -3.965687 -1.826749
      ESP Fit Center  386 is at  -2.487491 -4.060180 -1.826749
      ESP Fit Center  387 is at  -1.754494 -3.782191 -1.826749
      ESP Fit Center  388 is at  -4.275201 -2.826214 -2.574419
      ESP Fit Center  389 is at  -3.910886 -3.520358 -2.574419
      ESP Fit Center  390 is at  -3.265715 -3.965687 -2.574419
      ESP Fit Center  391 is at  -2.487491 -4.060180 -2.574419
      ESP Fit Center  392 is at  -1.754494 -3.782191 -2.574419
      ESP Fit Center  393 is at  -1.234646 -3.195404 -2.574419
      ESP Fit Center  394 is at  -1.371439 -2.434243 -3.248047
      ESP Fit Center  395 is at  -1.622290 -1.662201 -3.248047
      ESP Fit Center  396 is at  -3.747541 -1.662201 -3.248047
      ESP Fit Center  397 is at  -3.998392 -2.434243 -3.248047
      ESP Fit Center  398 is at  -3.747541 -3.206286 -3.248047
      ESP Fit Center  399 is at  -3.090802 -3.683434 -3.248047
      ESP Fit Center  400 is at  -2.279029 -3.683434 -3.248047
      ESP Fit Center  401 is at  -1.622290 -3.206286 -3.248047
      ESP Fit Center  402 is at  -1.955991 -2.434243 -3.714212
      ESP Fit Center  403 is at  -2.320453 -1.802976 -3.714212
      ESP Fit Center  404 is at  -3.049378 -1.802976 -3.714212
      ESP Fit Center  405 is at  -3.413840 -2.434243 -3.714212
      ESP Fit Center  406 is at  -3.049378 -3.065511 -3.714212
      ESP Fit Center  407 is at  -2.320453 -3.065511 -3.714212
      ESP Fit Center  408 is at  -2.684916 -2.434243 -3.880584
      ESP Fit Center  409 is at  -0.166789 -3.486145  0.153767
      ESP Fit Center  410 is at  -1.153475 -3.768398 -0.519861
      ESP Fit Center  411 is at  -0.375251 -3.862891 -0.519861
      ESP Fit Center  412 is at   0.357746 -3.584902 -0.519861
      ESP Fit Center  413 is at   1.065203 -2.236954 -1.267531
      ESP Fit Center  414 is at  -1.153475 -3.768398 -1.267531
      ESP Fit Center  415 is at  -0.375251 -3.862891 -1.267531
      ESP Fit Center  416 is at   0.357746 -3.584902 -1.267531
      ESP Fit Center  417 is at   0.877594 -2.998114 -1.267531
      ESP Fit Center  418 is at   0.740801 -2.236954 -1.941159
      ESP Fit Center  419 is at   0.489950 -1.464912 -1.941159
      ESP Fit Center  420 is at  -0.978562 -3.486145 -1.941159
      ESP Fit Center  421 is at  -0.166789 -3.486145 -1.941159
      ESP Fit Center  422 is at   0.489950 -3.008997 -1.941159
      ESP Fit Center  423 is at   0.156249 -2.236954 -2.407324
      ESP Fit Center  424 is at  -0.208213 -1.605687 -2.407324
      ESP Fit Center  425 is at  -0.937138 -2.868221 -2.407324
      ESP Fit Center  426 is at  -0.208213 -2.868221 -2.407324
      ESP Fit Center  427 is at  -0.572676 -2.236954 -2.573696
      ESP Fit Center  428 is at  -4.433309  0.675834  1.892872
      ESP Fit Center  429 is at  -4.797771  1.307102  1.726500
      ESP Fit Center  430 is at  -5.162234  0.675834  1.726500
      ESP Fit Center  431 is at  -4.797771  0.044567  1.726500
      ESP Fit Center  432 is at  -4.839196  1.925025  1.260335
      ESP Fit Center  433 is at  -5.495934  1.447877  1.260335
      ESP Fit Center  434 is at  -5.746786  0.675834  1.260335
      ESP Fit Center  435 is at  -5.495934 -0.096208  1.260335
      ESP Fit Center  436 is at  -4.235884  2.301771  0.586707
      ESP Fit Center  437 is at  -5.014109  2.207278  0.586707
      ESP Fit Center  438 is at  -5.659279  1.761949  0.586707
      ESP Fit Center  439 is at  -6.023594  1.067804  0.586707
      ESP Fit Center  440 is at  -6.023594  0.283864  0.586707
      ESP Fit Center  441 is at  -5.659279 -0.410280  0.586707
      ESP Fit Center  442 is at  -4.235884  2.301771 -0.160963
      ESP Fit Center  443 is at  -5.014109  2.207278 -0.160963
      ESP Fit Center  444 is at  -5.659279  1.761949 -0.160963
      ESP Fit Center  445 is at  -6.023594  1.067804 -0.160963
      ESP Fit Center  446 is at  -6.023594  0.283864 -0.160963
      ESP Fit Center  447 is at  -5.659279 -0.410280 -0.160963
      ESP Fit Center  448 is at  -4.027422  1.925025 -0.834591
      ESP Fit Center  449 is at  -4.839196  1.925025 -0.834591
      ESP Fit Center  450 is at  -5.495934  1.447877 -0.834591
      ESP Fit Center  451 is at  -5.746786  0.675834 -0.834591
      ESP Fit Center  452 is at  -4.797771  1.307102 -1.300756
      ESP Fit Center  453 is at  -5.162234  0.675834 -1.300756
      ESP Fit Center  454 is at  -1.320232  1.330675  3.626291
      ESP Fit Center  455 is at  -0.591307  1.330675  3.459919
      ESP Fit Center  456 is at  -0.955770  1.961942  3.459919
      ESP Fit Center  457 is at  -0.955770  0.699407  3.459919
      ESP Fit Center  458 is at  -0.006755  1.330675  2.993754
      ESP Fit Center  459 is at  -0.257607  2.102717  2.993754
      ESP Fit Center  460 is at  -0.914345  2.579865  2.993754
      ESP Fit Center  461 is at  -0.257607  0.558632  2.993754
      ESP Fit Center  462 is at  -1.122808  2.956612  2.320126
      ESP Fit Center  463 is at  -3.262891  2.483606  3.233446
      ESP Fit Center  464 is at  -3.627354  1.852339  3.233446
      ESP Fit Center  465 is at  -2.492542  3.101529  2.767281
      ESP Fit Center  466 is at  -3.304316  3.101529  2.767281
      ESP Fit Center  467 is at  -3.961054  2.624381  2.767281
      ESP Fit Center  468 is at  -4.211906  1.852339  2.767281
      ESP Fit Center  469 is at  -1.968008  3.200286  2.093653
      ESP Fit Center  470 is at  -2.701005  3.478275  2.093653
      ESP Fit Center  471 is at  -3.479229  3.383782  2.093653
      ESP Fit Center  472 is at  -4.124399  2.938453  2.093653
      ESP Fit Center  473 is at  -4.488714  2.244309  2.093653
      ESP Fit Center  474 is at  -4.488714  1.460368  2.093653
      ESP Fit Center  475 is at  -1.968008  3.200286  1.345983
      ESP Fit Center  476 is at  -2.701005  3.478275  1.345983
      ESP Fit Center  477 is at  -3.479229  3.383782  1.345983
      ESP Fit Center  478 is at  -4.124399  2.938453  1.345983
      ESP Fit Center  479 is at  -4.488714  2.244309  1.345983
      ESP Fit Center  480 is at  -2.492542  3.101529  0.672355
      ESP Fit Center  481 is at  -3.304316  3.101529  0.672355
      ESP Fit Center  482 is at  -3.961054  2.624381  0.672355
      ESP Fit Center  483 is at  -2.533967  2.483606  0.206190
      ESP Fit Center  484 is at  -3.262891  2.483606  0.206190
      ESP Fit Center  485 is at   1.227667 -2.706182  3.150925
      ESP Fit Center  486 is at   1.956592 -2.706182  2.984553
      ESP Fit Center  487 is at   1.592130 -2.074915  2.984553
      ESP Fit Center  488 is at   0.863205 -2.074915  2.984553
      ESP Fit Center  489 is at   0.498743 -2.706182  2.984553
      ESP Fit Center  490 is at   0.863205 -3.337449  2.984553
      ESP Fit Center  491 is at   1.592130 -3.337449  2.984553
      ESP Fit Center  492 is at  -0.085809 -2.706182  2.518388
      ESP Fit Center  493 is at   0.165042 -3.478224  2.518388
      ESP Fit Center  494 is at   0.821781 -3.955373  2.518388
      ESP Fit Center  495 is at   1.633554 -3.955373  2.518388
      ESP Fit Center  496 is at   2.290293 -3.478224  2.518388
      ESP Fit Center  497 is at  -0.362618 -3.098152  1.844760
      ESP Fit Center  498 is at   0.001698 -3.792297  1.844760
      ESP Fit Center  499 is at   0.646868 -4.237625  1.844760
      ESP Fit Center  500 is at   1.425092 -4.332119  1.844760
      ESP Fit Center  501 is at   2.158089 -4.054130  1.844760
      ESP Fit Center  502 is at  -0.362618 -3.098152  1.097090
      ESP Fit Center  503 is at   0.001698 -3.792297  1.097090
      ESP Fit Center  504 is at   0.646868 -4.237625  1.097090
      ESP Fit Center  505 is at   1.425092 -4.332119  1.097090
      ESP Fit Center  506 is at   2.158089 -4.054130  1.097090
      ESP Fit Center  507 is at   0.165042 -3.478224  0.423462
      ESP Fit Center  508 is at   0.821781 -3.955373  0.423462
      ESP Fit Center  509 is at   3.538768 -3.063376  2.266943
      ESP Fit Center  510 is at   4.267692 -3.063376  2.100571
      ESP Fit Center  511 is at   3.174305 -3.694643  2.100571
      ESP Fit Center  512 is at   3.903230 -3.694643  2.100571
      ESP Fit Center  513 is at   4.852244 -3.063376  1.634406
      ESP Fit Center  514 is at   2.476142 -3.835418  1.634406
      ESP Fit Center  515 is at   3.132881 -4.312566  1.634406
      ESP Fit Center  516 is at   3.944654 -4.312566  1.634406
      ESP Fit Center  517 is at   4.601393 -3.835418  1.634406
      ESP Fit Center  518 is at   5.176646 -3.063376  0.960778
      ESP Fit Center  519 is at   2.312798 -4.149490  0.960778
      ESP Fit Center  520 is at   2.957968 -4.594819  0.960778
      ESP Fit Center  521 is at   3.736192 -4.689313  0.960778
      ESP Fit Center  522 is at   4.469189 -4.411324  0.960778
      ESP Fit Center  523 is at   4.989037 -3.824536  0.960778
      ESP Fit Center  524 is at   5.176646 -3.063376  0.213108
      ESP Fit Center  525 is at   2.312798 -4.149490  0.213108
      ESP Fit Center  526 is at   2.957968 -4.594819  0.213108
      ESP Fit Center  527 is at   3.736192 -4.689313  0.213108
      ESP Fit Center  528 is at   4.469189 -4.411324  0.213108
      ESP Fit Center  529 is at   4.989037 -3.824536  0.213108
      ESP Fit Center  530 is at   4.852244 -3.063376 -0.460520
      ESP Fit Center  531 is at   3.132881 -4.312566 -0.460520
      ESP Fit Center  532 is at   3.944654 -4.312566 -0.460520
      ESP Fit Center  533 is at   4.601393 -3.835418 -0.460520
      ESP Fit Center  534 is at   3.903230 -3.694643 -0.926685
      ESP Fit Center  535 is at   5.950970 -1.268004  0.299197
      ESP Fit Center  536 is at   5.700118 -0.495962  0.299197
      ESP Fit Center  537 is at   5.700118 -2.040047  0.299197
      ESP Fit Center  538 is at   6.275372 -1.268004 -0.374431
      ESP Fit Center  539 is at   6.087763 -0.506844 -0.374431
      ESP Fit Center  540 is at   5.567915  0.079943 -0.374431
      ESP Fit Center  541 is at   5.567915 -2.615952 -0.374431
      ESP Fit Center  542 is at   6.087763 -2.029165 -0.374431
      ESP Fit Center  543 is at   6.275372 -1.268004 -1.122101
      ESP Fit Center  544 is at   6.087763 -0.506844 -1.122101
      ESP Fit Center  545 is at   5.567915  0.079943 -1.122101
      ESP Fit Center  546 is at   4.834918 -2.893941 -1.122101
      ESP Fit Center  547 is at   5.567915 -2.615952 -1.122101
      ESP Fit Center  548 is at   6.087763 -2.029165 -1.122101
      ESP Fit Center  549 is at   5.950970 -1.268004 -1.795729
      ESP Fit Center  550 is at   5.700118 -0.495962 -1.795729
      ESP Fit Center  551 is at   5.043380 -0.018814 -1.795729
      ESP Fit Center  552 is at   5.043380 -2.517195 -1.795729
      ESP Fit Center  553 is at   5.700118 -2.040047 -1.795729
      ESP Fit Center  554 is at   5.366418 -1.268004 -2.261894
      ESP Fit Center  555 is at   5.001956 -0.636737 -2.261894
      ESP Fit Center  556 is at   4.273031 -1.899272 -2.261894
      ESP Fit Center  557 is at   5.001956 -1.899272 -2.261894
      ESP Fit Center  558 is at   4.637493 -1.268004 -2.428266
      ESP Fit Center  559 is at   4.499341  1.639894 -0.123772
      ESP Fit Center  560 is at   5.074595  0.867851 -0.797400
      ESP Fit Center  561 is at   4.886986  1.629012 -0.797400
      ESP Fit Center  562 is at   4.367137  2.215799 -0.797400
      ESP Fit Center  563 is at   5.074595  0.867851 -1.545070
      ESP Fit Center  564 is at   4.886986  1.629012 -1.545070
      ESP Fit Center  565 is at   4.367137  2.215799 -1.545070
      ESP Fit Center  566 is at   4.750193  0.867851 -2.218698
      ESP Fit Center  567 is at   4.499341  1.639894 -2.218698
      ESP Fit Center  568 is at   3.842603  2.117042 -2.218698
      ESP Fit Center  569 is at   4.499341  0.095809 -2.218698
      ESP Fit Center  570 is at   4.165641  0.867851 -2.684863
      ESP Fit Center  571 is at   3.801178  1.499119 -2.684863
      ESP Fit Center  572 is at   3.072254  1.499119 -2.684863
      ESP Fit Center  573 is at   3.801178  0.236584 -2.684863
      ESP Fit Center  574 is at   3.436716  0.867851 -2.851235
      ESP Fit Center  575 is at  -4.604432 -1.946096  0.847274
      ESP Fit Center  576 is at  -3.890933 -2.271940  0.847274
      ESP Fit Center  577 is at  -5.462990 -1.627269  0.323324
      ESP Fit Center  578 is at  -5.047650 -2.248870  0.323324
      ESP Fit Center  579 is at  -4.426049 -2.664210  0.323324
      ESP Fit Center  580 is at  -5.673760 -1.966071 -0.336890
      ESP Fit Center  581 is at  -5.218339 -2.551195 -0.336890
      ESP Fit Center  582 is at  -4.597605 -2.956741 -0.336890
      ESP Fit Center  583 is at  -5.084889 -2.810058 -1.068744
      ESP Fit Center  584 is at  -4.597605 -2.956741 -1.800598
      ESP Fit Center  585 is at  -2.337992  0.460789 -2.460812
      ESP Fit Center  586 is at  -2.959593  0.876129 -2.460812
[...]
 2810 Fit       0.001394
 2811 Fit      -0.019457
 2812 Fit      -0.015805
 2813 Fit      -0.016657
 2814 Fit      -0.020593
 2815 Fit      -0.016598
 2816 Fit      -0.013156
 2817 Fit      -0.026065
 2818 Fit      -0.020128
 2819 Fit      -0.015104
 2820 Fit      -0.012177
 2821 Fit      -0.020598
 2822 Fit      -0.014602
 2823 Fit      -0.016937
 2824 Fit      -0.005251
 2825 Fit      -0.004062
 2826 Fit      -0.007239
 2827 Fit      -0.009417
 2828 Fit      -0.007505
 2829 Fit      -0.001409
 2830 Fit      -0.003361
 2831 Fit      -0.006328
 2832 Fit      -0.008584
 2833 Fit      -0.010831
 2834 Fit       0.002255
 2835 Fit      -0.000116
 2836 Fit      -0.008243
 2837 Fit       0.006105
 2838 Fit       0.004187
 2839 Fit       0.005715
 2840 Fit       0.007166
 2841 Fit       0.008647
 2842 Fit       0.005998
 2843 Fit       0.006212
 2844 Fit       0.004886
 2845 Fit      -0.001659
 2846 Fit       0.001126
 2847 Fit      -0.000278
 2848 Fit      -0.003601
 2849 Fit      -0.006696
 2850 Fit       0.004803
 2851 Fit       0.002701
 2852 Fit       0.001377
 2853 Fit      -0.001891
 2854 Fit      -0.005146
 2855 Fit      -0.007998
 2856 Fit       0.004391
 2857 Fit       0.003393
 2858 Fit       0.000134
 2859 Fit       0.006374
 2860 Fit       0.005923
 2861 Fit       0.008528
 2862 Fit       0.011087
 2863 Fit       0.008301
 2864 Fit       0.005439
 2865 Fit       0.006811
 2866 Fit       0.003403
 2867 Fit       0.004535
 2868 Fit       0.006240
 2869 Fit       0.008091
 2870 Fit       0.009916
 2871 Fit       0.001345
 2872 Fit       0.002390
 2873 Fit       0.004043
 2874 Fit       0.005941
 2875 Fit      -0.001778
 2876 Fit      -0.000241
 2877 Fit       0.001480
 2878 Fit      -0.004823
 2879 Fit      -0.007321
 2880 Fit       0.000453
 2881 Fit      -0.001711
 2882 Fit      -0.003987
 2883 Fit       0.003500
 2884 Fit       0.001462
 2885 Fit      -0.000615
 2886 Fit      -0.002847
 2887 Fit       0.005633
 2888 Fit       0.006684
 2889 Fit       0.004862
 2890 Fit       0.003031
 2891 Fit       0.001216
 2892 Fit       0.010466
 2893 Fit       0.008469
 2894 Fit       0.006584
 2895 Fit       0.005082
 2896 Fit       0.008847
 2897 Fit       0.012089
 2898 Fit       0.004635
 2899 Fit       0.007414
 2900 Fit      -0.003666
 2901 Fit      -0.001783
 2902 Fit       0.000518
 2903 Fit       0.003290
 2904 Fit       0.006140
 2905 Fit       0.009153
 2906 Fit      -0.003076
 2907 Fit      -0.000877
 2908 Fit       0.001838
 2909 Fit       0.004752
 2910 Fit       0.005387
 2911 Fit       0.000091
 2912 Fit       0.003195
 2913 Fit       0.001965
 2914 Fit       0.005266
 2915 Fit       0.010717
 2916 Fit       0.007389
 2917 Fit      -0.001250
 2918 Fit       0.005390
 2919 Fit      -0.005838
 2920 Fit      -0.005922
 2921 Fit      -0.004642
 2922 Fit      -0.003981
 2923 Fit      -0.005655
 2924 Fit      -0.008213
 2925 Fit      -0.007548
 2926 Fit      -0.005858
 2927 Fit      -0.004929
 2928 Fit      -0.004056
 2929 Fit      -0.003078
 2930 Fit      -0.002199
 2931 Fit      -0.002492
 2932 Fit      -0.012585
 2933 Fit      -0.011200
 2934 Fit      -0.008857
 2935 Fit      -0.007093
 2936 Fit      -0.005668
 2937 Fit      -0.004979
 2938 Fit      -0.004399
 2939 Fit      -0.003751
 2940 Fit      -0.002910
 2941 Fit      -0.001838
 2942 Fit      -0.000633
 2943 Fit       0.000175
 2944 Fit      -0.012397
 2945 Fit      -0.009605
 2946 Fit      -0.007874
 2947 Fit      -0.006611
 2948 Fit      -0.005345
 2949 Fit      -0.004793
 2950 Fit      -0.004406
 2951 Fit      -0.004033
 2952 Fit      -0.003549
 2953 Fit      -0.002876
 2954 Fit      -0.001971
 2955 Fit      -0.000807
 2956 Fit       0.000636
 2957 Fit       0.002244
 2958 Fit      -0.008551
 2959 Fit      -0.007265
 2960 Fit      -0.006168
 2961 Fit      -0.004836
 2962 Fit      -0.004353
 2963 Fit      -0.004102
 2964 Fit      -0.003921
 2965 Fit      -0.003678
 2966 Fit      -0.003286
 2967 Fit      -0.002703
 2968 Fit      -0.001909
 2969 Fit      -0.000879
 2970 Fit       0.000450
 2971 Fit       0.002195
 2972 Fit       0.004528
 2973 Fit      -0.008351
 2974 Fit      -0.006890
 2975 Fit      -0.005678
 2976 Fit      -0.004040
 2977 Fit      -0.003625
 2978 Fit      -0.003520
 2979 Fit      -0.003525
 2980 Fit      -0.003487
 2981 Fit      -0.003312
 2982 Fit      -0.002956
 2983 Fit      -0.002407
 2984 Fit      -0.001665
 2985 Fit      -0.000715
 2986 Fit       0.000494
 2987 Fit       0.002100
 2988 Fit       0.004397
 2989 Fit       0.008012
 2990 Fit      -0.006496
 2991 Fit      -0.004967
 2992 Fit      -0.002802
 2993 Fit      -0.002539
 2994 Fit      -0.002641
 2995 Fit      -0.002866
 2996 Fit      -0.003051
 2997 Fit      -0.003098
 2998 Fit      -0.002963
 2999 Fit      -0.002636
 3000 Fit      -0.002129
 3001 Fit      -0.001454
 3002 Fit      -0.000615
 3003 Fit       0.000419
 3004 Fit       0.001743
 3005 Fit       0.003575
 3006 Fit       0.006392
 3007 Fit      -0.003731
 3008 Fit      -0.000927
 3009 Fit      -0.001007
 3010 Fit      -0.001442
 3011 Fit      -0.001963
 3012 Fit      -0.002403
 3013 Fit      -0.002674
 3014 Fit      -0.002737
 3015 Fit      -0.002590
 3016 Fit      -0.002253
 3017 Fit      -0.001750
 3018 Fit      -0.001109
 3019 Fit      -0.000340
 3020 Fit       0.000576
 3021 Fit       0.001709
 3022 Fit       0.003222
 3023 Fit       0.005452
 3024 Fit       0.009124
 3025 Fit      -0.001600
 3026 Fit       0.001723
 3027 Fit       0.000966
 3028 Fit      -0.000008
 3029 Fit      -0.000939
 3030 Fit      -0.001681
 3031 Fit      -0.002172
 3032 Fit      -0.002397
 3033 Fit      -0.002372
 3034 Fit      -0.002131
 3035 Fit      -0.001714
 3036 Fit      -0.001162
 3037 Fit      -0.000505
 3038 Fit       0.000248
 3039 Fit       0.001124
 3040 Fit       0.002202
 3041 Fit       0.003652
 3042 Fit       0.005792
 3043 Fit       0.009195
 3044 Fit       0.005035
 3045 Fit       0.003266
 3046 Fit       0.001591
 3047 Fit       0.000178
 3048 Fit      -0.000897
 3049 Fit      -0.001624
 3050 Fit      -0.002023
 3051 Fit      -0.002133
 3052 Fit      -0.002003
 3053 Fit      -0.001686
 3054 Fit      -0.001234
 3055 Fit      -0.000691
 3056 Fit      -0.000086
 3057 Fit       0.000572
 3058 Fit       0.001306
 3059 Fit       0.002180
 3060 Fit       0.003306
 3061 Fit       0.004841
 3062 Fit       0.006929
 3063 Fit       0.005488
 3064 Fit       0.003052
 3065 Fit       0.001155
 3066 Fit      -0.000231
 3067 Fit      -0.001159
 3068 Fit      -0.001696
 3069 Fit      -0.001906
 3070 Fit      -0.001856
 3071 Fit      -0.001613
 3072 Fit      -0.001238
 3073 Fit      -0.000786
 3074 Fit      -0.000300
 3075 Fit       0.000193
 3076 Fit       0.000688
 3077 Fit       0.001197
 3078 Fit       0.001742
 3079 Fit       0.002327
 3080 Fit       0.002858
 3081 Fit       0.002972
 3082 Fit       0.007005
 3083 Fit       0.004003
 3084 Fit       0.001759
 3085 Fit       0.000169
 3086 Fit      -0.000882
 3087 Fit      -0.001493
 3088 Fit      -0.001754
 3089 Fit      -0.001749
 3090 Fit      -0.001556
 3091 Fit      -0.001246
 3092 Fit      -0.000884
 3093 Fit      -0.000521
 3094 Fit      -0.000195
 3095 Fit       0.000066
 3096 Fit       0.000242
 3097 Fit       0.000295
 3098 Fit       0.000125
 3099 Fit      -0.000512
 3100 Fit      -0.002178
 3101 Fit       0.007360
 3102 Fit       0.004283
 3103 Fit       0.001973
 3104 Fit       0.000334
 3105 Fit      -0.000753
 3106 Fit      -0.001397
 3107 Fit      -0.001697
 3108 Fit      -0.001741
 3109 Fit      -0.001614
 3110 Fit      -0.001392
 3111 Fit      -0.001143
 3112 Fit      -0.000927
 3113 Fit      -0.000790
 3114 Fit      -0.000775
 3115 Fit      -0.000931
 3116 Fit      -0.001333
 3117 Fit      -0.002128
 3118 Fit      -0.003597
 3119 Fit      -0.006245
 3120 Fit       0.006339
 3121 Fit       0.003597
 3122 Fit       0.001485
 3123 Fit      -0.000014
 3124 Fit      -0.000994
 3125 Fit      -0.001556
 3126 Fit      -0.001804
 3127 Fit      -0.001836
 3128 Fit      -0.001743
 3129 Fit      -0.001611
 3130 Fit      -0.001515
 3131 Fit      -0.001520
 3132 Fit      -0.001686
 3133 Fit      -0.002076
 3134 Fit      -0.002782
 3135 Fit      -0.003946
 3136 Fit      -0.005794
 3137 Fit      -0.008639
 3138 Fit      -0.003155
 3139 Fit       0.006794
 3140 Fit       0.004511
 3141 Fit       0.002324
 3142 Fit       0.000579
 3143 Fit      -0.000662
 3144 Fit      -0.001451
 3145 Fit      -0.001882
 3146 Fit      -0.002061
 3147 Fit      -0.002097
 3148 Fit      -0.002094
 3149 Fit      -0.002145
 3150 Fit      -0.002333
 3151 Fit      -0.002733
 3152 Fit      -0.003425
 3153 Fit      -0.004508
 3154 Fit      -0.006104
 3155 Fit      -0.008338
 3156 Fit      -0.011247
 3157 Fit      -0.003501
 3158 Fit      -0.003018
 3159 Fit      -0.003208
 3160 Fit      -0.002940
 3161 Fit       0.003997
 3162 Fit       0.002506
 3163 Fit       0.000910
 3164 Fit      -0.000424
 3165 Fit      -0.001379
 3166 Fit      -0.001979
 3167 Fit      -0.002312
 3168 Fit      -0.002489
 3169 Fit      -0.002627
 3170 Fit      -0.002835
 3171 Fit      -0.003209
 3172 Fit      -0.003830
 3173 Fit      -0.004771
 3174 Fit      -0.006092
 3175 Fit      -0.007804
 3176 Fit      -0.009796
 3177 Fit      -0.011716
 3178 Fit      -0.012853
 3179 Fit      -0.007154
 3180 Fit      -0.005079
 3181 Fit      -0.003934
 3182 Fit      -0.003180
 3183 Fit      -0.002095
 3184 Fit      -0.000230
 3185 Fit       0.002147
 3186 Fit       0.004085
 3187 Fit       0.004725
 3188 Fit       0.001559
 3189 Fit       0.000607
 3190 Fit      -0.000533
 3191 Fit      -0.001510
 3192 Fit      -0.002205
 3193 Fit      -0.002652
 3194 Fit      -0.002962
 3195 Fit      -0.003265
 3196 Fit      -0.003690
 3197 Fit      -0.004336
 3198 Fit      -0.005264
 3199 Fit      -0.006476
 3200 Fit      -0.007862
 3201 Fit      -0.009122
 3202 Fit      -0.009752
 3203 Fit      -0.009275
 3204 Fit      -0.007795
 3205 Fit      -0.006053
 3206 Fit      -0.004615
 3207 Fit      -0.003425
 3208 Fit      -0.002109
 3209 Fit      -0.000502
 3210 Fit       0.001020
 3211 Fit       0.001801
 3212 Fit      -0.000428
 3213 Fit      -0.001052
 3214 Fit      -0.001891
 3215 Fit      -0.002613
 3216 Fit      -0.003153
 3217 Fit      -0.003619
 3218 Fit      -0.004173
 3219 Fit      -0.004938
 3220 Fit      -0.005930
 3221 Fit      -0.006990
 3222 Fit      -0.007734
 3223 Fit      -0.007697
 3224 Fit      -0.006777
 3225 Fit      -0.005426
 3226 Fit      -0.004065
 3227 Fit      -0.002709
 3228 Fit      -0.001382
 3229 Fit      -0.000491
 3230 Fit      -0.002016
 3231 Fit      -0.002439
 3232 Fit      -0.003117
 3233 Fit      -0.003769
 3234 Fit      -0.004466
 3235 Fit      -0.005313
 3236 Fit      -0.006146
 3237 Fit      -0.006465
 3238 Fit      -0.005890
 3239 Fit      -0.004698
 3240 Fit      -0.003381
 3241 Fit      -0.002331
 3242 Fit      -0.003298
 3243 Fit      -0.003704
 3244 Fit      -0.004534
 3245 Fit      -0.005290
 3246 Fit      -0.005091
 3247 Fit      -0.003964
 3248 Fit      -0.004364
 3249 Fit       0.003079
 3250 Fit       0.000994
 3251 Fit      -0.001007
 3252 Fit      -0.003243
 3253 Fit       0.004401
 3254 Fit       0.003308
 3255 Fit       0.002077
 3256 Fit       0.000628
 3257 Fit      -0.001106
 3258 Fit       0.004052
 3259 Fit       0.004302
 3260 Fit       0.004010
 3261 Fit       0.003357
 3262 Fit       0.002410
 3263 Fit       0.001232
 3264 Fit      -0.000058
 3265 Fit       0.002065
 3266 Fit       0.003534
 3267 Fit       0.004127
 3268 Fit       0.004143
 3269 Fit       0.003753
 3270 Fit       0.003104
 3271 Fit       0.002399
 3272 Fit       0.002025
 3273 Fit      -0.000510
 3274 Fit       0.002108
 3275 Fit       0.003497
 3276 Fit       0.004008
 3277 Fit       0.003940
 3278 Fit       0.003607
 3279 Fit       0.003496
 3280 Fit      -0.002274
 3281 Fit       0.001045
 3282 Fit       0.002885
 3283 Fit       0.003536
 3284 Fit       0.003568
 3285 Fit       0.003733
 3286 Fit      -0.000044
 3287 Fit       0.002085
 3288 Fit       0.002463
 3289 Fit       0.000193
 3290 Fit      -0.002201
 3291 Fit      -0.001242
 3292 Fit       0.000019
 3293 Fit       0.001705
 3294 Fit       0.001143
 3295 Fit       0.000592
 3296 Fit       0.000836
 3297 Fit       0.001468
 3298 Fit       0.002330
 3299 Fit       0.003398
 3300 Fit       0.004711
 3301 Fit       0.003339
 3302 Fit       0.002680
 3303 Fit       0.002677
 3304 Fit       0.003023
 3305 Fit       0.003522
 3306 Fit       0.004054
 3307 Fit       0.004485
 3308 Fit       0.004520
 3309 Fit       0.003583
 3310 Fit       0.003534
 3311 Fit       0.003566
 3312 Fit       0.003808
 3313 Fit       0.004095
 3314 Fit       0.004212
 3315 Fit       0.003845
 3316 Fit       0.002456
 3317 Fit      -0.000311
 3318 Fit       0.001623
 3319 Fit       0.003059
 3320 Fit       0.003618
 3321 Fit       0.003867
 3322 Fit       0.003634
 3323 Fit       0.002410
 3324 Fit       0.000288
 3325 Fit      -0.001944
 3326 Fit      -0.000856
 3327 Fit       0.001706
 3328 Fit       0.002837
 3329 Fit       0.002448
 3330 Fit       0.000979
 3331 Fit       0.003431
 3332 Fit       0.005717
 3333 Fit       0.004188
 3334 Fit       0.005428
 3335 Fit       0.005041
 3336 Fit       0.004717
 3337 Fit       0.005253
 3338 Fit       0.004816
 3339 Fit       0.002655
 3340 Fit       0.005300
 3341 Fit       0.004879
 3342 Fit       0.003644
 3343 Fit       0.001007
 3344 Fit      -0.001344
 3345 Fit       0.003908
 3346 Fit       0.001913
 3347 Fit       0.001868
 3348 Fit      -0.000151
 3349 Fit      -0.005345
 3350 Fit       0.007031
 3351 Fit       0.003489
 3352 Fit       0.000044
 3353 Fit      -0.004175
 3354 Fit       0.009294
 3355 Fit       0.006620
 3356 Fit       0.004321
 3357 Fit       0.001813
 3358 Fit      -0.001335
 3359 Fit       0.011785
 3360 Fit       0.009169
 3361 Fit       0.007374
 3362 Fit       0.005810
 3363 Fit       0.004101
 3364 Fit       0.001952
 3365 Fit      -0.001013
 3366 Fit       0.008654
 3367 Fit       0.007958
 3368 Fit       0.007222
 3369 Fit       0.006518
 3370 Fit       0.005724
 3371 Fit       0.004719
 3372 Fit       0.003377
 3373 Fit       0.003262
 3374 Fit       0.004466
 3375 Fit       0.005004
 3376 Fit       0.005172
 3377 Fit       0.005100
 3378 Fit       0.004915
 3379 Fit       0.001593
 3380 Fit       0.003179
 3381 Fit       0.004237
 3382 Fit       0.006696
 3383 Fit       0.006760
 3384 Fit       0.005619
 3385 Fit       0.002810
 3386 Fit       0.009406
 3387 Fit       0.009850
 3388 Fit       0.009627
 3389 Fit       0.008527
 3390 Fit       0.006287
 3391 Fit       0.002428
 3392 Fit       0.010449
 3393 Fit       0.011343
 3394 Fit       0.011729
 3395 Fit       0.011505
 3396 Fit       0.010598
 3397 Fit       0.008814
 3398 Fit       0.011684
 3399 Fit       0.012440
 3400 Fit       0.012780
 3401 Fit       0.012893
 3402 Fit       0.011147
 3403 Fit       0.012154
 3404 Fit       0.013085
 3405 Fit       0.010544
 3406 Fit      -0.002089
 3407 Fit      -0.004490
 3408 Fit       0.000194
 3409 Fit       0.001841
 3410 Fit      -0.011236
 3411 Fit      -0.004565
 3412 Fit       0.000743
 3413 Fit       0.003938
 3414 Fit       0.005136
 3415 Fit       0.004103
 3416 Fit      -0.004363
 3417 Fit       0.000887
 3418 Fit       0.004394
 3419 Fit       0.006625
 3420 Fit       0.007894
 3421 Fit       0.008074
 3422 Fit      -0.006958
 3423 Fit      -0.001003
 3424 Fit       0.003165
 3425 Fit       0.006058
 3426 Fit       0.008156
 3427 Fit       0.009869
 3428 Fit       0.011416
 3429 Fit      -0.004758
 3430 Fit       0.000887
 3431 Fit       0.004697
 3432 Fit       0.007368
 3433 Fit       0.009563
 3434 Fit       0.011974
 3435 Fit       0.001180
 3436 Fit       0.004937
 3437 Fit       0.007509
 3438 Fit       0.009792
 3439 Fit       0.004483
 3440 Fit       0.006714
 3441 Fit       0.007121
 3442 Fit       0.010108
 3443 Fit       0.009447
 3444 Fit       0.008241
 3445 Fit       0.007528
 3446 Fit       0.011969
 3447 Fit       0.011299
 3448 Fit       0.010981
 3449 Fit       0.010444
 3450 Fit       0.009389
 3451 Fit       0.009528
 3452 Fit       0.012102
 3453 Fit       0.011881
 3454 Fit       0.011884
 3455 Fit       0.011786
 3456 Fit       0.011435
 3457 Fit       0.010736
 3458 Fit       0.011884
 3459 Fit       0.011793
 3460 Fit       0.011667
 3461 Fit       0.011936
 3462 Fit       0.012231
 3463 Fit       0.012392
 3464 Fit       0.012378
 3465 Fit       0.012212
 3466 Fit       0.010256
 3467 Fit       0.010832
 3468 Fit       0.011492
 3469 Fit       0.012083
 3470 Fit       0.012554
 3471 Fit       0.012964
 3472 Fit       0.013505
 3473 Fit       0.009283
 3474 Fit       0.010362
 3475 Fit       0.011293
 3476 Fit       0.012110
 3477 Fit       0.012969
 3478 Fit       0.014262
 3479 Fit       0.008992
 3480 Fit       0.010401
 3481 Fit       0.011738
 3482 Fit       0.013563
 3483 Fit       0.007532
 3484 Fit       0.009342
 3485 Fit       0.009635
 3486 Fit       0.008468
 3487 Fit       0.007207
 3488 Fit       0.012225
 3489 Fit       0.010799
 3490 Fit       0.011093
 3491 Fit       0.010341
 3492 Fit       0.009657
 3493 Fit       0.013974
 3494 Fit       0.012718
 3495 Fit       0.011853
 3496 Fit       0.011966
 3497 Fit       0.011566
 3498 Fit       0.011354
 3499 Fit       0.011811
 3500 Fit       0.013711
 3501 Fit       0.013184
 3502 Fit       0.012754
 3503 Fit       0.012370
 3504 Fit       0.012262
 3505 Fit       0.012165
 3506 Fit       0.012333
 3507 Fit       0.013405
 3508 Fit       0.011434
 3509 Fit       0.012064
 3510 Fit       0.012309
 3511 Fit       0.012350
 3512 Fit       0.011972
 3513 Fit       0.012148
 3514 Fit       0.012731
 3515 Fit       0.009981
 3516 Fit       0.011153
 3517 Fit       0.011729
 3518 Fit       0.011064
 3519 Fit       0.011460
 3520 Fit       0.012035
 3521 Fit       0.008758
 3522 Fit       0.010338
 3523 Fit       0.009462
 3524 Fit       0.007891
 3525 Fit       0.009060
 3526 Fit       0.012928
 3527 Fit       0.010536
 3528 Fit       0.008785
 3529 Fit       0.012689
 3530 Fit       0.010847
 3531 Fit       0.009251
 3532 Fit       0.011376
 3533 Fit       0.010027
 3534 Fit       0.009401
 -----------------------------------------------------------------
 Leave Link  602 at Thu Jan 16 22:40:34 2014, MaxMem=   235929600 cpu:         1.6

 Test job not archived.
 1\1\GINC-G33\SP\RHF\Gen\C12H10Br1N1O1\KOLAR\16-Jan-2014\0\\# hf/gen po
 p=mk iop(6/33=2,6/41=5,6/42=2)\\na resp\\0,1\C,0,-3.692821,-0.89404,-1
 .068744\C,0,-2.612256,-1.713574,-1.391664\C,0,-1.425053,-1.606336,-0.6
 61233\C,0,-1.331358,-0.683052,0.37202\C,0,-2.405703,0.164125,0.706301\
 C,0,-3.590262,0.033248,-0.03156\N,0,-2.279849,1.052238,1.774962\O,0,-0
 .200227,-0.557453,1.186444\C,0,1.043489,-0.751373,0.63126\C,0,1.72642,
 -1.943362,0.881269\C,0,3.017059,-2.132,0.38726\C,0,3.633069,-1.12715,-
 0.360055\C,0,2.963739,0.072917,-0.604632\C,0,1.676493,0.25795,-0.10523
 8\Br,0,0.778138,1.913746,-0.392641\H,0,-4.622063,-0.969199,-1.626822\H
 ,0,-2.684916,-2.434243,-2.200584\H,0,-0.572676,-2.236954,-0.893696\H,0
 ,-4.433309,0.675835,0.212872\H,0,-1.320232,1.330675,1.946291\H,0,-2.89
 8429,1.852339,1.719818\H,0,1.227667,-2.706182,1.470925\H,0,3.538767,-3
 .063376,0.586943\H,0,4.637493,-1.268005,-0.748266\H,0,3.436716,0.86785
 1,-1.171235\\Version=AM64L-G09RevD.01\State=1-A\HF=-3159.1240457\RMSD=
 9.199e-09\Dipole=0.6242238,-0.1877033,-0.4576541\Quadrupole=5.5719192,
 1.8668178,-7.438737,-6.9474382,0.9306503,2.2981118\PG=C01 [X(C12H10Br1
 N1O1)]\\@


 IN THE LONG RUN, DIGGING FOR TRUTH HAS ALWAYS PROVED NOT ONLY 
 MORE INTERESTING BUT MORE PROFITABLE THAN DIGGING FOR GOLD.

                             -- GEORGE R. HARRISON
 Job cpu time:       0 days  0 hours  3 minutes 47.0 seconds.
 File lengths (MBytes):  RWF=     34 Int=      0 D2E=      0 Chk=      3 Scr=      1
 Normal termination of Gaussian 09 at Thu Jan 16 22:40:34 2014.
226.63user 0.43system 3:47.85elapsed 99%CPU (0avgtext+0avgdata 603392maxresident)k
8inputs+153480outputs (0major+172467minor)pagefaults 0swaps
