Linux g59 2.6.38.6-client #1 SMP Tue Jun 12 11:27:21 CEST 2012 x86_64 GNU/Linux
Thu Jan 16 22:36:46 CET 2014

 Entering Gaussian System, Link 0=/usr/local/programs/common/gaussian/gaussian09_d01/arch/amd64-pgi_10.4.0-acml/g09/g09
 Initial command:
 /usr/local/programs/common/gaussian/gaussian09_d01/arch/amd64-pgi_10.4.0-acml/g09/l1.exe "/scratch/kolar/g09_25910/Gau-1813.inp" -scrdir="/scratch/kolar/g09_25910/"
 Entering Link 1 = /usr/local/programs/common/gaussian/gaussian09_d01/arch/amd64-pgi_10.4.0-acml/g09/l1.exe PID=      1819.
  
 Copyright (c) 1988,1990,1992,1993,1995,1998,2003,2009,2013,
            Gaussian, Inc.  All Rights Reserved.
  
 This is part of the Gaussian(R) 09 program.  It is based on
 the Gaussian(R) 03 system (copyright 2003, Gaussian, Inc.),
 the Gaussian(R) 98 system (copyright 1998, Gaussian, Inc.),
 the Gaussian(R) 94 system (copyright 1995, Gaussian, Inc.),
 the Gaussian 92(TM) system (copyright 1992, Gaussian, Inc.),
 the Gaussian 90(TM) system (copyright 1990, Gaussian, Inc.),
 the Gaussian 88(TM) system (copyright 1988, Gaussian, Inc.),
 the Gaussian 86(TM) system (copyright 1986, Carnegie Mellon
 University), and the Gaussian 82(TM) system (copyright 1983,
 Carnegie Mellon University). Gaussian is a federally registered
 trademark of Gaussian, Inc.
  
 This software contains proprietary and confidential information,
 including trade secrets, belonging to Gaussian, Inc.
  
 This software is provided under written license and may be
 used, copied, transmitted, or stored only in accord with that
 written license.
  
 The following legend is applicable only to US Government
 contracts under FAR:
  
                    RESTRICTED RIGHTS LEGEND
  
 Use, reproduction and disclosure by the US Government is
 subject to restrictions as set forth in subparagraphs (a)
 and (c) of the Commercial Computer Software - Restricted
 Rights clause in FAR 52.227-19.
  
 Gaussian, Inc.
 340 Quinnipiac St., Bldg. 40, Wallingford CT 06492
  
  
 ---------------------------------------------------------------
 Warning -- This program may not be used in any manner that
 competes with the business of Gaussian, Inc. or will provide
 assistance to any competitor of Gaussian, Inc.  The licensee
 of this program is prohibited from giving any competitor of
 Gaussian, Inc. access to this program.  By using this program,
 the user acknowledges that Gaussian, Inc. is engaged in the
 business of creating and licensing software in the field of
 computational chemistry and represents and warrants to the
 licensee that it is not a competitor of Gaussian, Inc. and that
 it will not use this program in any manner prohibited above.
 ---------------------------------------------------------------
  

 Cite this work as:
 Gaussian 09, Revision D.01,
 M. J. Frisch, G. W. Trucks, H. B. Schlegel, G. E. Scuseria, 
 M. A. Robb, J. R. Cheeseman, G. Scalmani, V. Barone, B. Mennucci, 
 G. A. Petersson, H. Nakatsuji, M. Caricato, X. Li, H. P. Hratchian, 
 A. F. Izmaylov, J. Bloino, G. Zheng, J. L. Sonnenberg, M. Hada, 
 M. Ehara, K. Toyota, R. Fukuda, J. Hasegawa, M. Ishida, T. Nakajima, 
 Y. Honda, O. Kitao, H. Nakai, T. Vreven, J. A. Montgomery, Jr., 
 J. E. Peralta, F. Ogliaro, M. Bearpark, J. J. Heyd, E. Brothers, 
 K. N. Kudin, V. N. Staroverov, T. Keith, R. Kobayashi, J. Normand, 
 K. Raghavachari, A. Rendell, J. C. Burant, S. S. Iyengar, J. Tomasi, 
 M. Cossi, N. Rega, J. M. Millam, M. Klene, J. E. Knox, J. B. Cross, 
 V. Bakken, C. Adamo, J. Jaramillo, R. Gomperts, R. E. Stratmann, 
 O. Yazyev, A. J. Austin, R. Cammi, C. Pomelli, J. W. Ochterski, 
 R. L. Martin, K. Morokuma, V. G. Zakrzewski, G. A. Voth, 
 P. Salvador, J. J. Dannenberg, S. Dapprich, A. D. Daniels, 
 O. Farkas, J. B. Foresman, J. V. Ortiz, J. Cioslowski, 
 and D. J. Fox, Gaussian, Inc., Wallingford CT, 2013.
 
 ******************************************
 Gaussian 09:  AM64L-G09RevD.01 24-Apr-2013
                16-Jan-2014 
 ******************************************
 %mem=1800mb
 -----------------------------------------
 # hf/gen pop=mk iop(6/33=2,6/41=5,6/42=2)
 -----------------------------------------
 1/38=1/1;
 2/12=2,17=6,18=5,40=1/2;
 3/5=7,11=9,16=1,25=1,30=1/1,2,3;
 4//1;
 5/5=2,38=5/2;
 6/7=2,8=2,9=2,10=2,15=8,20=1,28=1,33=2,41=5,42=2/1,2;
 99/5=1,9=1/99;
 -------
 na resp
 -------
 Symbolic Z-matrix:
 Charge =  0 Multiplicity = 1
 6                    -2.40983   2.2406   -0.00017 
 6                    -2.696     0.88587  -0.00002 
 6                    -1.63696  -0.03149   0.00029 
 6                    -0.30779   0.46667   0.00034 
 6                     0.77663  -0.49142   0.00027 
 6                     0.50287  -1.81867  -0.00007 
 7                    -0.79413  -2.27874  -0.00001 
 1                    -0.97519  -3.27537  -0.00044 
 6                    -1.93467  -1.47468   0.00081 
 8                    -3.05537  -1.96967  -0.00056 
 35                    2.57872   0.09745  -0.00007 
 7                    -0.03524   1.78757   0.0001 
 6                    -1.06089   2.63211  -0.00013 
 1                    -3.19747   2.98731  -0.00032 
 1                    -3.71179   0.50321   0.00001 
 1                     1.27872  -2.57417  -0.00051 
 1                    -0.80123   3.68983  -0.00028 
 
                          Input orientation:                          
 ---------------------------------------------------------------------
 Center     Atomic      Atomic             Coordinates (Angstroms)
 Number     Number       Type             X           Y           Z
 ---------------------------------------------------------------------
      1          6           0       -2.409831    2.240603   -0.000168
      2          6           0       -2.695998    0.885873   -0.000021
      3          6           0       -1.636961   -0.031487    0.000287
      4          6           0       -0.307791    0.466670    0.000336
      5          6           0        0.776625   -0.491423    0.000265
      6          6           0        0.502868   -1.818666   -0.000074
      7          7           0       -0.794133   -2.278738   -0.000006
      8          1           0       -0.975193   -3.275373   -0.000436
      9          6           0       -1.934667   -1.474677    0.000813
     10          8           0       -3.055367   -1.969671   -0.000561
     11         35           0        2.578724    0.097449   -0.000071
     12          7           0       -0.035236    1.787572    0.000096
     13          6           0       -1.060890    2.632112   -0.000126
     14          1           0       -3.197474    2.987310   -0.000323
     15          1           0       -3.711792    0.503205    0.000011
     16          1           0        1.278721   -2.574170   -0.000505
     17          1           0       -0.801225    3.689829   -0.000280
 ---------------------------------------------------------------------
                    Distance matrix (angstroms):
                    1          2          3          4          5
     1  C    0.000000
     2  C    1.384624   0.000000
     3  C    2.399942   1.401110   0.000000
     4  C    2.750529   2.424719   1.419455   0.000000
     5  C    4.197317   3.735780   2.457018   1.447032   0.000000
     6  C    4.996147   4.188947   2.787988   2.424856   1.355182
     7  N    4.799471   3.692134   2.400103   2.788152   2.379449
     8  H    5.699489   4.503014   3.310700   3.801094   3.289262
     9  C    3.745542   2.480287   1.473576   2.532894   2.884076
    10  O    4.259475   2.878068   2.401756   3.672184   4.107235
    11  Br   5.429437   5.333320   4.217656   2.910033   1.895872
    12  N    2.417424   2.809398   2.423737   1.348728   2.419284
    13  C    1.404607   2.392264   2.725182   2.292662   3.623939
    14  H    1.085335   2.160443   3.398284   3.834566   5.281576
    15  H    2.171095   1.085482   2.142620   3.404197   4.597301
    16  H    6.065266   5.269752   3.868648   3.429829   2.142414
    17  H    2.165149   3.384130   3.814007   3.260710   4.469058
                    6          7          8          9         10
     6  C    0.000000
     7  N    1.376182   0.000000
     8  H    2.075249   1.012948   0.000000
     9  C    2.461688   1.395469   2.040367   0.000000
    10  O    3.561438   2.282258   2.456009   1.225149   0.000000
    11  Br   2.825009   4.125825   4.899618   4.779360   6.001330
    12  N    3.646164   4.136520   5.149459   3.774931   4.820588
    13  C    4.717496   4.918090   5.908107   4.198714   5.015411
    14  H    6.065471   5.788550   6.645279   4.637242   4.959018
    15  H    4.811906   4.031370   4.665472   2.658983   2.558517
    16  H    1.082929   2.093801   2.360469   3.396285   4.376041
    17  H    5.660758   5.968571   6.967374   5.287420   6.091888
                   11         12         13         14         15
    11  Br   0.000000
    12  N    3.112764   0.000000
    13  C    4.435235   1.328614   0.000000
    14  H    6.458774   3.382177   2.165908   0.000000
    15  H    6.303589   3.894440   3.399930   2.536789   0.000000
    16  H    2.971120   4.555357   5.707815   7.139074   5.863059
    17  H    4.932469   2.050688   1.089124   2.497107   4.315782
                   16         17
    16  H    0.000000
    17  H    6.600292   0.000000
 Stoichiometry    C8H5BrN2O
 Framework group  C1[X(C8H5BrN2O)]
 Deg. of freedom    45
 Full point group                 C1      NOp   1
 Largest Abelian subgroup         C1      NOp   1
 Largest concise Abelian subgroup C1      NOp   1
                         Standard orientation:                         
 ---------------------------------------------------------------------
 Center     Atomic      Atomic             Coordinates (Angstroms)
 Number     Number       Type             X           Y           Z
 ---------------------------------------------------------------------
      1          6           0        2.409831    2.240603    0.000168
      2          6           0        2.695998    0.885873    0.000021
      3          6           0        1.636961   -0.031487   -0.000287
      4          6           0        0.307791    0.466670   -0.000336
      5          6           0       -0.776625   -0.491423   -0.000265
      6          6           0       -0.502868   -1.818666    0.000074
      7          7           0        0.794133   -2.278738    0.000006
      8          1           0        0.975193   -3.275373    0.000436
      9          6           0        1.934667   -1.474677   -0.000813
     10          8           0        3.055367   -1.969671    0.000561
     11         35           0       -2.578724    0.097449    0.000071
     12          7           0        0.035236    1.787572   -0.000096
     13          6           0        1.060890    2.632112    0.000126
     14          1           0        3.197474    2.987310    0.000323
     15          1           0        3.711792    0.503205   -0.000011
     16          1           0       -1.278721   -2.574170    0.000505
     17          1           0        0.801225    3.689829    0.000280
 ---------------------------------------------------------------------
 Rotational constants (GHZ):      1.1374793      0.5233238      0.3584230
 General basis read from cards:  (5D, 7F)
 There are   205 symmetry adapted cartesian basis functions of A   symmetry.
 There are   192 symmetry adapted basis functions of A   symmetry.
   192 basis functions,   411 primitive gaussians,   205 cartesian basis functions
    55 alpha electrons       55 beta electrons
       nuclear repulsion energy       915.3824107986 Hartrees.
 NAtoms=   17 NActive=   17 NUniq=   17 SFac= 1.00D+00 NAtFMM=   60 NAOKFM=F Big=F
 Integral buffers will be    131072 words long.
 Raffenetti 1 integral format.
 Two-electron integral symmetry is turned on.
 One-electron integrals computed using PRISM.
 NBasis=   192 RedAO= T EigKep=  6.83D-04  NBF=   192
 NBsUse=   192 1.00D-06 EigRej= -1.00D+00 NBFU=   192
 ExpMin= 1.43D-01 ExpMax= 5.74D+05 ExpMxC= 5.74D+03 IAcc=2 IRadAn=         4 AccDes= 0.00D+00
 Harris functional with IExCor=  205 and IRadAn=       4 diagonalized for initial guess.
 HarFok:  IExCor=  205 AccDes= 0.00D+00 IRadAn=         4 IDoV= 1 UseB2=F ITyADJ=14
 ICtDFT=  3500011 ScaDFX=  1.000000  1.000000  1.000000  1.000000
 FoFCou: FMM=F IPFlag=           0 FMFlag=      100000 FMFlg1=           0
         NFxFlg=           0 DoJE=T BraDBF=F KetDBF=T FulRan=T
         wScrn=  0.000000 ICntrl=     500 IOpCl=  0 I1Cent=   200000004 NGrid=           0
         NMat0=    1 NMatS0=      1 NMatT0=    0 NMatD0=    1 NMtDS0=    0 NMtDT0=    0
 Petite list used in FoFCou.
 Keep R1 ints in memory in canonical form, NReq=176170838.
 Requested convergence on RMS density matrix=1.00D-08 within 128 cycles.
 Requested convergence on MAX density matrix=1.00D-06.
 Requested convergence on             energy=1.00D-06.
 No special actions if energy rises.
 SCF Done:  E(RHF) =  -3059.22380620     A.U. after   16 cycles
            NFock= 16  Conv=0.60D-08     -V/T= 1.9991

 **********************************************************************

            Population analysis using the SCF density.

 **********************************************************************

 Orbital symmetries:
 BldTbl:  Degeneracy threshold= 1.00D-02
       Occupied  (A) (A) (A) (A) (A) (A) (A) (A) (A) (A) (A) (A)
                 (A) (A) (A) (A) (A) (A) (A) (A) (A) (A) (A) (A)
                 (A) (A) (A) (A) (A) (A) (A) (A) (A) (A) (A) (A)
                 (A) (A) (A) (A) (A) (A) (A) (A) (A) (A) (A) (A)
                 (A) (A) (A) (A) (A) (A) (A)
       Virtual   (A) (A) (A) (A) (A) (A) (A) (A) (A) (A) (A) (A)
                 (A) (A) (A) (A) (A) (A) (A) (A) (A) (A) (A) (A)
                 (A) (A) (A) (A) (A) (A) (A) (A) (A) (A) (A) (A)
                 (A) (A) (A) (A) (A) (A) (A) (A) (A) (A) (A) (A)
                 (A) (A) (A) (A) (A) (A) (A) (A) (A) (A) (A) (A)
                 (A) (A) (A) (A) (A) (A) (A) (A) (A) (A) (A) (A)
                 (A) (A) (A) (A) (A) (A) (A) (A) (A) (A) (A) (A)
                 (A) (A) (A) (A) (A) (A) (A) (A) (A) (A) (A) (A)
                 (A) (A) (A) (A) (A) (A) (A) (A) (A) (A) (A) (A)
                 (A) (A) (A) (A) (A) (A) (A) (A) (A) (A) (A) (A)
                 (A) (A) (A) (A) (A) (A) (A) (A) (A) (A) (A) (A)
                 (A) (A) (A) (A) (A)
 The electronic state is 1-A.
 Alpha  occ. eigenvalues -- -489.84626 -64.38972 -58.55670 -58.55479 -58.55469
 Alpha  occ. eigenvalues --  -20.53982 -15.63690 -15.58214 -11.38009 -11.32682
 Alpha  occ. eigenvalues --  -11.31827 -11.30046 -11.29980 -11.27788 -11.26479
 Alpha  occ. eigenvalues --  -11.25360  -9.66710  -7.48310  -7.47368  -7.47366
 Alpha  occ. eigenvalues --   -3.22647  -3.22194  -3.22188  -3.21092  -3.21091
 Alpha  occ. eigenvalues --   -1.39712  -1.29331  -1.27348  -1.11782  -1.11241
 Alpha  occ. eigenvalues --   -1.04995  -0.97810  -0.91912  -0.90393  -0.82685
 Alpha  occ. eigenvalues --   -0.77430  -0.75171  -0.73217  -0.67550  -0.65372
 Alpha  occ. eigenvalues --   -0.63346  -0.62653  -0.61293  -0.59288  -0.55297
 Alpha  occ. eigenvalues --   -0.55134  -0.52986  -0.51158  -0.45156  -0.44621
 Alpha  occ. eigenvalues --   -0.42982  -0.40815  -0.39721  -0.37977  -0.31078
 Alpha virt. eigenvalues --    0.07926   0.08051   0.16074   0.17840   0.22236
 Alpha virt. eigenvalues --    0.24293   0.24662   0.28070   0.29955   0.31482
 Alpha virt. eigenvalues --    0.37427   0.39016   0.39828   0.41779   0.44040
 Alpha virt. eigenvalues --    0.45370   0.45993   0.50124   0.55068   0.57885
 Alpha virt. eigenvalues --    0.60664   0.62603   0.63621   0.65086   0.65374
 Alpha virt. eigenvalues --    0.66260   0.66500   0.67376   0.68172   0.71215
 Alpha virt. eigenvalues --    0.72361   0.73262   0.74433   0.75230   0.79844
 Alpha virt. eigenvalues --    0.80144   0.80557   0.81359   0.83593   0.84049
 Alpha virt. eigenvalues --    0.85194   0.86007   0.90555   0.91040   0.95958
 Alpha virt. eigenvalues --    0.97352   0.97708   0.99267   1.02171   1.04035
 Alpha virt. eigenvalues --    1.04750   1.06784   1.08557   1.08737   1.10402
 Alpha virt. eigenvalues --    1.12125   1.13519   1.15732   1.16215   1.17387
 Alpha virt. eigenvalues --    1.20893   1.24186   1.27682   1.28569   1.31802
 Alpha virt. eigenvalues --    1.33580   1.34819   1.37717   1.40750   1.43467
 Alpha virt. eigenvalues --    1.43969   1.45117   1.48406   1.49789   1.56083
 Alpha virt. eigenvalues --    1.60812   1.61942   1.65203   1.66172   1.68222
 Alpha virt. eigenvalues --    1.70085   1.73415   1.74235   1.76740   1.78649
 Alpha virt. eigenvalues --    1.79111   1.81573   1.93927   1.95542   1.99086
 Alpha virt. eigenvalues --    2.02870   2.05276   2.08848   2.11922   2.14170
 Alpha virt. eigenvalues --    2.16300   2.18952   2.21001   2.23215   2.25147
 Alpha virt. eigenvalues --    2.31136   2.32932   2.35632   2.37859   2.43726
 Alpha virt. eigenvalues --    2.44216   2.47980   2.49264   2.50015   2.51306
 Alpha virt. eigenvalues --    2.56994   2.57594   2.59710   2.63587   2.65551
 Alpha virt. eigenvalues --    2.70834   2.74029   2.78757   2.90656   2.91379
 Alpha virt. eigenvalues --    2.93077   2.95595   2.97227   2.97390   3.03617
 Alpha virt. eigenvalues --    3.04506   3.09332   3.11812   3.14078   3.24169
 Alpha virt. eigenvalues --    3.26924   3.34439   3.39189   3.46704   3.74752
 Alpha virt. eigenvalues --    3.81386   9.18209
          Condensed to atoms (all electrons):
               1          2          3          4          5          6
     1  C    5.072910   0.526515  -0.044680  -0.025075  -0.000481   0.000007
     2  C    0.526515   4.862537   0.508574  -0.055766   0.003749  -0.000420
     3  C   -0.044680   0.508574   5.366109   0.457883  -0.070596  -0.018712
     4  C   -0.025075  -0.055766   0.457883   4.551035   0.398522  -0.056852
     5  C   -0.000481   0.003749  -0.070596   0.398522   4.984221   0.633682
     6  C    0.000007  -0.000420  -0.018712  -0.056852   0.633682   4.767894
     7  N   -0.000089   0.005687  -0.094533  -0.022518  -0.033754   0.235056
     8  H    0.000000  -0.000100   0.006312  -0.000469   0.001990  -0.022485
     9  C    0.004053  -0.036125   0.334207  -0.013645  -0.007379  -0.027373
    10  O    0.000663   0.005500  -0.097823   0.002194  -0.000144   0.002221
    11  Br   0.000029  -0.000120   0.003453  -0.048422   0.291772  -0.069850
    12  N   -0.046120  -0.031503  -0.070144   0.510572  -0.076767   0.002644
    13  C    0.497704  -0.045140  -0.025095  -0.071139   0.003177  -0.000097
    14  H    0.377456  -0.025829   0.002227   0.000369   0.000014   0.000000
    15  H   -0.026280   0.377667  -0.029103   0.001612  -0.000080  -0.000016
    16  H    0.000000   0.000010  -0.000173   0.002348  -0.022353   0.383085
    17  H   -0.050038   0.002344  -0.000363   0.003706   0.000047   0.000003
               7          8          9         10         11         12
     1  C   -0.000089   0.000000   0.004053   0.000663   0.000029  -0.046120
     2  C    0.005687  -0.000100  -0.036125   0.005500  -0.000120  -0.031503
     3  C   -0.094533   0.006312   0.334207  -0.097823   0.003453  -0.070144
     4  C   -0.022518  -0.000469  -0.013645   0.002194  -0.048422   0.510572
     5  C   -0.033754   0.001990  -0.007379  -0.000144   0.291772  -0.076767
     6  C    0.235056  -0.022485  -0.027373   0.002221  -0.069850   0.002644
     7  N    7.378230   0.312371   0.248800  -0.094802   0.002944  -0.000198
     8  H    0.312371   0.288775  -0.011572   0.006293  -0.000081   0.000004
     9  C    0.248800  -0.011572   3.985959   0.642360   0.000094   0.003346
    10  O   -0.094802   0.006293   0.642360   8.158444   0.000001  -0.000014
    11  Br   0.002944  -0.000081   0.000094   0.000001  34.919438  -0.005243
    12  N   -0.000198   0.000004   0.003346  -0.000014  -0.005243   6.837367
    13  C    0.000005   0.000000  -0.000373  -0.000012  -0.000333   0.490342
    14  H    0.000000   0.000000  -0.000042   0.000000   0.000000   0.002678
    15  H    0.000268  -0.000004  -0.002006   0.007165   0.000001  -0.000148
    16  H   -0.036188  -0.002597   0.000772  -0.000053   0.000537  -0.000045
    17  H    0.000000   0.000000   0.000008   0.000000  -0.000011  -0.041350
              13         14         15         16         17
     1  C    0.497704   0.377456  -0.026280   0.000000  -0.050038
     2  C   -0.045140  -0.025829   0.377667   0.000010   0.002344
     3  C   -0.025095   0.002227  -0.029103  -0.000173  -0.000363
     4  C   -0.071139   0.000369   0.001612   0.002348   0.003706
     5  C    0.003177   0.000014  -0.000080  -0.022353   0.000047
     6  C   -0.000097   0.000000  -0.000016   0.383085   0.000003
     7  N    0.000005   0.000000   0.000268  -0.036188   0.000000
     8  H    0.000000   0.000000  -0.000004  -0.002597   0.000000
     9  C   -0.000373  -0.000042  -0.002006   0.000772   0.000008
    10  O   -0.000012   0.000000   0.007165  -0.000053   0.000000
    11  Br  -0.000333   0.000000   0.000001   0.000537  -0.000011
    12  N    0.490342   0.002678  -0.000148  -0.000045  -0.041350
    13  C    4.676057  -0.025490   0.002011   0.000002   0.402135
    14  H   -0.025490   0.443410  -0.001168   0.000000   0.000347
    15  H    0.002011  -0.001168   0.399265   0.000000  -0.000067
    16  H    0.000002   0.000000   0.000000   0.408683   0.000000
    17  H    0.402135   0.000347  -0.000067   0.000000   0.459509
 Mulliken charges:
               1
     1  C   -0.286574
     2  C   -0.097578
     3  C   -0.227543
     4  C    0.365648
     5  C   -0.105618
     6  C    0.171214
     7  N   -0.901278
     8  H    0.421563
     9  C    0.878917
    10  O   -0.631990
    11  Br  -0.094205
    12  N   -0.575420
    13  C    0.096247
    14  H    0.226027
    15  H    0.270882
    16  H    0.265974
    17  H    0.223732
 Sum of Mulliken charges =   0.00000
 Mulliken charges with hydrogens summed into heavy atoms:
               1
     1  C   -0.060546
     2  C    0.173304
     3  C   -0.227543
     4  C    0.365648
     5  C   -0.105618
     6  C    0.437188
     7  N   -0.479714
     9  C    0.878917
    10  O   -0.631990
    11  Br  -0.094205
    12  N   -0.575420
    13  C    0.319980
 DipInt: DoE/N= T F RetVal/Mat= T F Init=T NMatP=  1 IDeriv=0 Min/MaxMlt=  0  4
 Entering OneElI...
 OneElI was handed   235819499 working-precision words.
 Multipole integrals L=0 to 4 MinM= 0 MaxM= 0.
 Requested accuracy = 0.1000D-12
 ShPair: Thresh= 1.00D-13 NBox=     0 BxSize= 0.00D+00 RnKept= 1.35D+01
         NSMCal=                 2211 NSMKep=                1983
 PrsmSu:  NPrtUS=   1 ThrOK=F IAlg=1 NPAlg=1 LenDen=           0.
 Prism:   IPart=     0 DynPar=F LinDyn=F Incr=          19.
 PRISM was handed   235624826 working-precision words and  1983 shell-pairs
 IPart=  0 NShTot=        1983 NBatch=         118 AvBLen=        16.8
 PrSmSu:  NxtVal=             20.
 Electronic moments (au):
       -110.00000000          0.01680049         -0.14605482         -0.00069715
      -1739.01139923       -915.08942580        -61.87887245         11.22529326
         -0.00569999          0.00247997        -70.91386835       -334.91400108
          0.00660504      -2129.50032989         97.77962911         -0.32966075
        -36.11226954         -5.91841089         -0.19302842          0.03635701
     -46001.56430107     -19666.95198915       -226.54898811       2093.26689825
         -1.02185489      -1568.44886251         -0.01618139         -0.00774413
         -0.01415677     -11040.91550825       -924.96384575       -606.43785295
          0.47943793         -0.83653320        -47.40988320
 Electronic spatial extent (au):  <R**2>=           2715.9797
 DipInt: DoE/N= F T RetVal/Mat= T F Init=T NMatP=  1 IDeriv=0 Min/MaxMlt=  0  4
 Nuclear    moments (au):
        110.00000000          0.00000000          0.00000000          0.00000000
       1673.13454232        865.21744937          0.00003302          0.00000000
          0.00005535          0.00003789        -69.10715783        313.93523217
         -0.00000001       2091.50920268        -36.17891470          0.31522348
          0.00011040         -0.00007212          0.20680599         -0.01497940
      40842.25012831      17117.02893471          0.00000000      -1774.95984364
          0.89443833       1707.57391848         -0.02193859         -0.00000003
          0.00000002       9567.01281621          0.00056105          0.00033408
         -0.39011135          0.79938000         -0.00030092
 Total      moments (au):
          0.00000000          0.01680049         -0.14605482         -0.00069715
        -65.87685690        -49.87197644        -61.87883943         11.22529326
         -0.00564464          0.00251786       -140.02102618        -20.97876891
          0.00660503        -37.99112720         61.60071441         -0.01443727
        -36.11215915         -5.91848301          0.01377757          0.02137761
      -5159.31417276      -2549.92305444       -226.54898811        318.30705461
         -0.12741657        139.12505597         -0.03811998         -0.00774416
         -0.01415675      -1473.90269204       -924.96328470       -606.43751886
          0.08932657         -0.03715320        -47.41018412
 Traceless Quadrup. (au):
         -6.66763265          9.33724782         -2.66961517         11.22529326
         -0.00564464          0.00251786
 Charge=              0.0000 electrons
 Dipole moment (field-independent basis, Debye):
    X=              0.0427    Y=             -0.3712    Z=             -0.0018  Tot=              0.3737
 Quadrupole moment (field-independent basis, Debye-Ang):
   XX=            -88.6066   YY=            -67.0795   ZZ=            -83.2292
   XY=             15.0984   XZ=             -0.0076   YZ=              0.0034
 Traceless Quadrupole moment (field-independent basis, Debye-Ang):
   XX=             -8.9682   YY=             12.5589   ZZ=             -3.5907
   XY=             15.0984   XZ=             -0.0076   YZ=              0.0034
 Octapole moment (field-independent basis, Debye-Ang**2):
  XXX=            -99.6616  YYY=            -14.9319  ZZZ=              0.0047  XYY=            -27.0406
  XXY=             43.8450  XXZ=             -0.0103  XZZ=            -25.7032  YZZ=             -4.2125
  YYZ=              0.0098  XYZ=              0.0152
 Hexadecapole moment (field-independent basis, Debye-Ang**3):
 XXXX=          -1943.2450 YYYY=           -960.4232 ZZZZ=            -85.3292 XXXY=            119.8897
 XXXZ=             -0.0480 YYYX=             52.4012 YYYZ=             -0.0144 ZZZX=             -0.0029
 ZZZY=             -0.0053 XXYY=           -555.1424 XXZZ=           -348.3855 YYZZ=           -228.4134
 XXYZ=              0.0336 YYXZ=             -0.0140 ZZXY=            -17.8569
 N-N= 9.153824107986D+02 E-N=-9.126861770005D+03  KE= 3.061983232754D+03
 Entering OneElI...
 OneElI was handed   235845158 working-precision words.
 Calculate electrostatic properties
    NBasis =   192  MinDer = 0  MaxDer = 0
    NGrid  =    17  NMatD  =   1
 Requested accuracy = 0.1000D-12
 ShPair: Thresh= 1.00D-13 NBox=     0 BxSize= 0.00D+00 RnKept= 1.35D+01
         NSMCal=                 2211 NSMKep=                1806
 PrsmSu:  NPrtUS=   1 ThrOK=F IAlg=1 NPAlg=1 LenDen=           0.
 Prism:   IPart=     0 DynPar=F LinDyn=F Incr=         307.
 PRISM was handed   235666634 working-precision words and  1806 shell-pairs
 IPart=  0 NShTot=       30702 NBatch=        1807 AvBLen=        17.0
 PrSmSu:  NxtVal=            308.
 --------------------------------------------------------
       Center         ----      EFG at Nuclei      ----
                      3XX-RR        3YY-RR        3ZZ-RR
 --------------------------------------------------------
     1   Atom        0.121652      0.133711     -0.255363
     2   Atom        0.239291      0.273746     -0.513037
     3   Atom        0.112246      0.042344     -0.154590
     4   Atom        0.236403      0.169474     -0.405877
     5   Atom       -0.262133      0.188566      0.073566
     6   Atom        0.002869      0.310462     -0.313330
     7   Atom       -0.438233     -0.374924      0.813158
     8   Atom        0.143729     -0.372691      0.228962
     9   Atom        0.210026      0.291439     -0.501466
    10   Atom       -0.611349      1.178709     -0.567360
    11   Atom       -6.552028      2.809320      3.742708
    12   Atom        0.940425     -0.291677     -0.648748
    13   Atom        0.234125      0.234482     -0.468607
    14   Atom       -0.096133     -0.073009      0.169141
    15   Atom       -0.251101      0.097718      0.153382
    16   Atom       -0.087172     -0.079037      0.166209
    17   Atom        0.118056     -0.273368      0.155311
 --------------------------------------------------------
                        XY            XZ            YZ
 --------------------------------------------------------
     1   Atom       -0.013702      0.000026      0.000077
     2   Atom       -0.017327      0.000092      0.000178
     3   Atom        0.028938      0.000032     -0.000174
     4   Atom       -0.006722     -0.000097      0.000106
     5   Atom        0.128911      0.000097     -0.000090
     6   Atom        0.084103     -0.000120     -0.000183
     7   Atom        0.019943      0.000911      0.000998
     8   Atom        0.088645     -0.000001      0.000270
     9   Atom       -0.160291      0.000334     -0.000339
    10   Atom        0.962629     -0.002275      0.000254
    11   Atom        3.125331      0.002203     -0.000570
    12   Atom       -0.419700      0.000014      0.000011
    13   Atom       -0.060468      0.000061      0.000125
    14   Atom       -0.225643     -0.000050     -0.000048
    15   Atom        0.140662      0.000011     -0.000012
    16   Atom       -0.220215      0.000129      0.000134
    17   Atom        0.098019      0.000013     -0.000061
 --------------------------------------------------------


 ---------------------------------------------------------------------------------
              Nuclear Quadrupole Coupling Constant in Principal Axis System
 ---------------------------------------------------------------------------------

       Atom             a.u.   MegaHertz   Gauss  10(-4) cm-1        Axes

              Baa    -0.4440     2.132     0.761     0.711  0.9608 -0.2774 -0.0005
     7 N(14)  Bbb    -0.3692     1.773     0.633     0.591  0.2774  0.9608 -0.0010
              Bcc     0.8132    -3.905    -1.394    -1.303  0.0007  0.0009  1.0000
 
              Baa    -7.4995   551.546   196.805   183.976  0.9570 -0.2901 -0.0002
    11 Br(79) Bbb     3.7427  -275.254   -98.217   -91.815 -0.0017 -0.0064  1.0000
              Bcc     3.7568  -276.292   -98.588   -92.161  0.2901  0.9570  0.0066
 
              Baa    -0.6487     3.116     1.112     1.039  0.0000 -0.0001  1.0000
    12 N(14)  Bbb    -0.4211     2.022     0.722     0.675  0.2946  0.9556  0.0001
              Bcc     1.0698    -5.138    -1.833    -1.714  0.9556 -0.2946  0.0000
 

 ---------------------------------------------------------------------------------

 No NMR shielding tensors so no spin-rotation constants.
 Leave Link  601 at Thu Jan 16 22:37:15 2014, MaxMem=   235929600 cpu:         0.3
 FitSet:  NAtFit=    17 NAtPot=    17 NAtFrz=     0 MDM=    21 TotChg=   0.00000
 Merz-Kollman atomic radii used.
 Atom Element Radius
    1     6    1.50
    2     6    1.50
    3     6    1.50
    4     6    1.50
    5     6    1.50
    6     6    1.50
    7     7    1.50
    8     1    1.20
    9     6    1.50
   10     8    1.40
   11    35    2.30
   12     7    1.50
   13     6    1.50
   14     1    1.20
   15     1    1.20
   16     1    1.20
   17     1    1.20
 Generate VDW surfaces: Layer= 5 Dens= 2 Start= 1.400 Inc= 0.179

 **********************************************************************

            Electrostatic Properties Using The SCF Density

 **********************************************************************

       Atomic Center    1 is at   2.409831  2.240603  0.000168
       Atomic Center    2 is at   2.695998  0.885873  0.000021
       Atomic Center    3 is at   1.636961 -0.031487 -0.000287
       Atomic Center    4 is at   0.307791  0.466670 -0.000336
       Atomic Center    5 is at  -0.776625 -0.491423 -0.000265
       Atomic Center    6 is at  -0.502868 -1.818666  0.000074
       Atomic Center    7 is at   0.794133 -2.278738  0.000006
       Atomic Center    8 is at   0.975193 -3.275373  0.000436
       Atomic Center    9 is at   1.934667 -1.474677 -0.000813
       Atomic Center   10 is at   3.055367 -1.969671  0.000561
       Atomic Center   11 is at  -2.578724  0.097449  0.000071
       Atomic Center   12 is at   0.035236  1.787572 -0.000096
       Atomic Center   13 is at   1.060890  2.632112  0.000126
       Atomic Center   14 is at   3.197474  2.987310  0.000323
       Atomic Center   15 is at   3.711792  0.503205 -0.000011
       Atomic Center   16 is at  -1.278721 -2.574170  0.000505
       Atomic Center   17 is at   0.801225  3.689829  0.000280
      ESP Fit Center   18 is at   2.409831  2.240603  2.100168
      ESP Fit Center   19 is at   3.128073  2.240603  1.973522
      ESP Fit Center   20 is at   2.768952  2.862619  1.973522
      ESP Fit Center   21 is at   2.050710  2.862619  1.973522
      ESP Fit Center   22 is at   1.691588  2.240603  1.973522
      ESP Fit Center   23 is at   2.050710  1.618587  1.973522
      ESP Fit Center   24 is at   2.768952  1.618587  1.973522
      ESP Fit Center   25 is at   3.759685  2.240603  1.608861
      ESP Fit Center   26 is at   2.970580  3.468473  1.608861
      ESP Fit Center   27 is at   2.217727  3.576717  1.608861
      ESP Fit Center   28 is at   2.219730  4.049294  1.050168
      ESP Fit Center   29 is at   2.219730  4.049294 -1.049832
      ESP Fit Center   30 is at   3.759685  2.240603 -1.608525
      ESP Fit Center   31 is at   2.970580  3.468473 -1.608525
      ESP Fit Center   32 is at   2.217727  3.576717 -1.608525
      ESP Fit Center   33 is at   3.128073  2.240603 -1.973187
      ESP Fit Center   34 is at   2.768952  2.862619 -1.973187
      ESP Fit Center   35 is at   2.050710  2.862619 -1.973187
      ESP Fit Center   36 is at   1.691588  2.240603 -1.973187
      ESP Fit Center   37 is at   2.050710  1.618587 -1.973187
      ESP Fit Center   38 is at   2.768952  1.618587 -1.973187
      ESP Fit Center   39 is at   2.409831  2.240603 -2.099832
      ESP Fit Center   40 is at   2.695998  0.885873  2.100021
      ESP Fit Center   41 is at   3.414240  0.885873  1.973375
      ESP Fit Center   42 is at   3.055119  1.507889  1.973375
      ESP Fit Center   43 is at   2.336877  1.507889  1.973375
      ESP Fit Center   44 is at   1.977756  0.885873  1.973375
      ESP Fit Center   45 is at   2.336877  0.263857  1.973375
      ESP Fit Center   46 is at   3.055119  0.263857  1.973375
      ESP Fit Center   47 is at   4.045852  0.885873  1.608714
      ESP Fit Center   48 is at   3.831567  1.615659  1.608714
      ESP Fit Center   49 is at   3.256747 -0.341997  1.608714
      ESP Fit Center   50 is at   4.045852  0.885873 -1.608672
      ESP Fit Center   51 is at   3.831567  1.615659 -1.608672
      ESP Fit Center   52 is at   3.256747 -0.341997 -1.608672
      ESP Fit Center   53 is at   3.414240  0.885873 -1.973334
      ESP Fit Center   54 is at   3.055119  1.507889 -1.973334
      ESP Fit Center   55 is at   2.336877  1.507889 -1.973334
      ESP Fit Center   56 is at   1.977756  0.885873 -1.973334
      ESP Fit Center   57 is at   2.336877  0.263857 -1.973334
      ESP Fit Center   58 is at   3.055119  0.263857 -1.973334
      ESP Fit Center   59 is at   2.695998  0.885873 -2.099979
      ESP Fit Center   60 is at   1.636961 -0.031487  2.099713
      ESP Fit Center   61 is at   2.355203 -0.031487  1.973067
      ESP Fit Center   62 is at   1.996082  0.590529  1.973067
      ESP Fit Center   63 is at   1.277840  0.590529  1.973067
      ESP Fit Center   64 is at   0.918719 -0.031487  1.973067
      ESP Fit Center   65 is at   1.277840 -0.653503  1.973067
      ESP Fit Center   66 is at   1.996082 -0.653503  1.973067
      ESP Fit Center   67 is at   2.355203 -0.031487 -1.973642
      ESP Fit Center   68 is at   1.996082  0.590529 -1.973642
      ESP Fit Center   69 is at   1.277840  0.590529 -1.973642
      ESP Fit Center   70 is at   0.918719 -0.031487 -1.973642
      ESP Fit Center   71 is at   1.277840 -0.653503 -1.973642
      ESP Fit Center   72 is at   1.996082 -0.653503 -1.973642
      ESP Fit Center   73 is at   1.636961 -0.031487 -2.100287
      ESP Fit Center   74 is at   0.307791  0.466670  2.099664
      ESP Fit Center   75 is at   1.026033  0.466670  1.973018
      ESP Fit Center   76 is at   0.666912  1.088686  1.973018
      ESP Fit Center   77 is at   0.666912 -0.155346  1.973018
      ESP Fit Center   78 is at   1.026033  0.466670 -1.973691
      ESP Fit Center   79 is at   0.666912  1.088686 -1.973691
      ESP Fit Center   80 is at   0.666912 -0.155346 -1.973691
      ESP Fit Center   81 is at   0.307791  0.466670 -2.100336
      ESP Fit Center   82 is at  -0.058383 -0.491423  1.973089
      ESP Fit Center   83 is at  -0.058383 -0.491423 -1.973620
      ESP Fit Center   84 is at  -0.502868 -1.818666  2.100074
      ESP Fit Center   85 is at   0.215374 -1.818666  1.973428
      ESP Fit Center   86 is at  -0.143747 -1.196650  1.973428
      ESP Fit Center   87 is at  -0.861989 -2.440682  1.973428
      ESP Fit Center   88 is at  -0.143747 -2.440682  1.973428
      ESP Fit Center   89 is at  -0.694972 -3.154781  1.608767
      ESP Fit Center   90 is at  -0.694972 -3.154781 -1.608619
      ESP Fit Center   91 is at   0.215374 -1.818666 -1.973281
      ESP Fit Center   92 is at  -0.143747 -1.196650 -1.973281
      ESP Fit Center   93 is at  -0.861989 -2.440682 -1.973281
      ESP Fit Center   94 is at  -0.143747 -2.440682 -1.973281
      ESP Fit Center   95 is at  -0.502868 -1.818666 -2.099926
      ESP Fit Center   96 is at   0.794133 -2.278738  2.100006
      ESP Fit Center   97 is at   1.512375 -2.278738  1.973360
      ESP Fit Center   98 is at   1.153254 -1.656722  1.973360
      ESP Fit Center   99 is at   0.435012 -1.656722  1.973360
      ESP Fit Center  100 is at   0.075891 -2.278738  1.973360
      ESP Fit Center  101 is at   0.435012 -2.900754  1.973360
      ESP Fit Center  102 is at   1.153254 -2.900754  1.973360
      ESP Fit Center  103 is at   0.602029 -0.942624  1.608699
      ESP Fit Center  104 is at  -0.089833 -3.298890  1.608699
      ESP Fit Center  105 is at   0.602029 -3.614853  1.608699
      ESP Fit Center  106 is at   1.929702 -3.008524  1.608699
      ESP Fit Center  107 is at   0.602029 -0.942624 -1.608687
      ESP Fit Center  108 is at  -0.089833 -3.298890 -1.608687
      ESP Fit Center  109 is at   0.602029 -3.614853 -1.608687
      ESP Fit Center  110 is at   1.929702 -3.008524 -1.608687
      ESP Fit Center  111 is at   1.512375 -2.278738 -1.973349
      ESP Fit Center  112 is at   1.153254 -1.656722 -1.973349
      ESP Fit Center  113 is at   0.435012 -1.656722 -1.973349
      ESP Fit Center  114 is at   0.075891 -2.278738 -1.973349
      ESP Fit Center  115 is at   0.435012 -2.900754 -1.973349
      ESP Fit Center  116 is at   1.153254 -2.900754 -1.973349
      ESP Fit Center  117 is at   0.794133 -2.278738 -2.099994
      ESP Fit Center  118 is at   0.610731 -3.906640  1.514064
      ESP Fit Center  119 is at   1.339655 -3.906640  1.514064
      ESP Fit Center  120 is at  -0.087432 -4.047415  1.047899
      ESP Fit Center  121 is at   0.569306 -4.524564  1.047899
      ESP Fit Center  122 is at   1.381080 -4.524564  1.047899
      ESP Fit Center  123 is at   2.037818 -4.047415  1.047899
      ESP Fit Center  124 is at  -0.250777 -4.361488  0.374271
      ESP Fit Center  125 is at   0.394393 -4.806816  0.374271
      ESP Fit Center  126 is at   1.172618 -4.901310  0.374271
      ESP Fit Center  127 is at   1.905614 -4.623321  0.374271
      ESP Fit Center  128 is at   2.425463 -4.036533  0.374271
      ESP Fit Center  129 is at  -0.250777 -4.361488 -0.373399
      ESP Fit Center  130 is at   0.394393 -4.806816 -0.373399
      ESP Fit Center  131 is at   1.172618 -4.901310 -0.373399
      ESP Fit Center  132 is at   1.905614 -4.623321 -0.373399
      ESP Fit Center  133 is at   2.425463 -4.036533 -0.373399
      ESP Fit Center  134 is at  -0.087432 -4.047415 -1.047027
      ESP Fit Center  135 is at   0.569306 -4.524564 -1.047027
      ESP Fit Center  136 is at   1.381080 -4.524564 -1.047027
      ESP Fit Center  137 is at   2.037818 -4.047415 -1.047027
      ESP Fit Center  138 is at   0.610731 -3.906640 -1.513192
      ESP Fit Center  139 is at   1.339655 -3.906640 -1.513192
      ESP Fit Center  140 is at   1.934667 -1.474677  2.099187
      ESP Fit Center  141 is at   2.652909 -1.474677  1.972541
      ESP Fit Center  142 is at   2.293788 -0.852661  1.972541
      ESP Fit Center  143 is at   1.575546 -0.852661  1.972541
      ESP Fit Center  144 is at   1.216425 -1.474677  1.972541
      ESP Fit Center  145 is at   1.575546 -2.096693  1.972541
      ESP Fit Center  146 is at   2.293788 -2.096693  1.972541
      ESP Fit Center  147 is at   3.070236 -0.744891  1.607880
      ESP Fit Center  148 is at   3.070236 -0.744891 -1.609506
      ESP Fit Center  149 is at   2.652909 -1.474677 -1.974168
      ESP Fit Center  150 is at   2.293788 -0.852661 -1.974168
      ESP Fit Center  151 is at   1.575546 -0.852661 -1.974168
      ESP Fit Center  152 is at   1.216425 -1.474677 -1.974168
      ESP Fit Center  153 is at   1.575546 -2.096693 -1.974168
      ESP Fit Center  154 is at   2.293788 -2.096693 -1.974168
      ESP Fit Center  155 is at   1.934667 -1.474677 -2.100813
      ESP Fit Center  156 is at   3.055367 -1.969671  1.960561
      ESP Fit Center  157 is at   3.805427 -1.969671  1.811365
      ESP Fit Center  158 is at   3.430397 -1.320100  1.811365
      ESP Fit Center  159 is at   2.680337 -2.619242  1.811365
      ESP Fit Center  160 is at   3.430397 -2.619242  1.811365
      ESP Fit Center  161 is at   4.441296 -1.969671  1.386490
      ESP Fit Center  162 is at   4.255617 -1.276706  1.386490
      ESP Fit Center  163 is at   3.748332 -0.769421  1.386490
      ESP Fit Center  164 is at   2.362402 -3.169921  1.386490
      ESP Fit Center  165 is at   3.055367 -3.355600  1.386490
      ESP Fit Center  166 is at   3.748332 -3.169921  1.386490
      ESP Fit Center  167 is at   4.255617 -2.662636  1.386490
      ESP Fit Center  168 is at   4.866171 -1.969671  0.750620
      ESP Fit Center  169 is at   4.709619 -1.233151  0.750620
      ESP Fit Center  170 is at   2.866086 -3.770555  0.750620
      ESP Fit Center  171 is at   3.614936 -3.691848  0.750620
      ESP Fit Center  172 is at   4.267031 -3.315361  0.750620
      ESP Fit Center  173 is at   4.709619 -2.706191  0.750620
      ESP Fit Center  174 is at   5.015367 -1.969671  0.000561
      ESP Fit Center  175 is at   4.883013 -1.261637  0.000561
      ESP Fit Center  176 is at   3.236213 -3.921310  0.000561
      ESP Fit Center  177 is at   3.929014 -3.724191  0.000561
      ESP Fit Center  178 is at   4.503824 -3.290114  0.000561
      ESP Fit Center  179 is at   4.883013 -2.677705  0.000561
      ESP Fit Center  180 is at   4.866171 -1.969671 -0.749499
      ESP Fit Center  181 is at   4.709619 -1.233151 -0.749499
      ESP Fit Center  182 is at   2.866086 -3.770555 -0.749499
      ESP Fit Center  183 is at   3.614936 -3.691848 -0.749499
      ESP Fit Center  184 is at   4.267031 -3.315361 -0.749499
      ESP Fit Center  185 is at   4.709619 -2.706191 -0.749499
      ESP Fit Center  186 is at   4.441296 -1.969671 -1.385368
      ESP Fit Center  187 is at   4.255617 -1.276706 -1.385368
      ESP Fit Center  188 is at   3.748332 -0.769421 -1.385368
      ESP Fit Center  189 is at   2.362402 -3.169921 -1.385368
      ESP Fit Center  190 is at   3.055367 -3.355600 -1.385368
      ESP Fit Center  191 is at   3.748332 -3.169921 -1.385368
      ESP Fit Center  192 is at   4.255617 -2.662636 -1.385368
      ESP Fit Center  193 is at   3.805427 -1.969671 -1.810243
      ESP Fit Center  194 is at   3.430397 -1.320100 -1.810243
      ESP Fit Center  195 is at   2.680337 -2.619242 -1.810243
      ESP Fit Center  196 is at   3.430397 -2.619242 -1.810243
      ESP Fit Center  197 is at   3.055367 -1.969671 -1.959439
      ESP Fit Center  198 is at  -2.578724  0.097449  3.220071
      ESP Fit Center  199 is at  -1.862207  0.097449  3.139339
      ESP Fit Center  200 is at  -2.220465  0.717971  3.139339
      ESP Fit Center  201 is at  -2.936983  0.717971  3.139339
      ESP Fit Center  202 is at  -3.295242  0.097449  3.139339
      ESP Fit Center  203 is at  -2.936983 -0.523074  3.139339
      ESP Fit Center  204 is at  -2.220465 -0.523074  3.139339
      ESP Fit Center  205 is at  -1.181618  0.097449  2.901191
      ESP Fit Center  206 is at  -1.368795  0.796002  2.901191
      ESP Fit Center  207 is at  -1.880171  1.307378  2.901191
      ESP Fit Center  208 is at  -2.578724  1.494554  2.901191
      ESP Fit Center  209 is at  -3.277277  1.307378  2.901191
      ESP Fit Center  210 is at  -3.788653  0.796002  2.901191
      ESP Fit Center  211 is at  -3.975830  0.097449  2.901191
      ESP Fit Center  212 is at  -3.788653 -0.601104  2.901191
      ESP Fit Center  213 is at  -3.277277 -1.112480  2.901191
      ESP Fit Center  214 is at  -2.578724 -1.299657  2.901191
      ESP Fit Center  215 is at  -1.880171 -1.112480  2.901191
      ESP Fit Center  216 is at  -1.368795 -0.601104  2.901191
      ESP Fit Center  217 is at  -0.571087  0.097449  2.517568
      ESP Fit Center  218 is at  -0.706658  0.822691  2.517568
      ESP Fit Center  219 is at  -1.095062  1.449985  2.517568
      ESP Fit Center  220 is at  -1.683843  1.894612  2.517568
      ESP Fit Center  221 is at  -2.393483  2.096522  2.517568
      ESP Fit Center  222 is at  -3.128140  2.028446  2.517568
      ESP Fit Center  223 is at  -3.788596  1.699578  2.517568
      ESP Fit Center  224 is at  -4.285652  1.154334  2.517568
      ESP Fit Center  225 is at  -4.552177  0.466351  2.517568
      ESP Fit Center  226 is at  -4.552177 -0.271454  2.517568
      ESP Fit Center  227 is at  -4.285652 -0.959436  2.517568
      ESP Fit Center  228 is at  -3.788596 -1.504680  2.517568
      ESP Fit Center  229 is at  -3.128140 -1.833548  2.517568
      ESP Fit Center  230 is at  -2.393483 -1.901624  2.517568
      ESP Fit Center  231 is at  -1.683843 -1.699714  2.517568
      ESP Fit Center  232 is at  -1.095062 -1.255088  2.517568
      ESP Fit Center  233 is at  -0.706658 -0.627793  2.517568
      ESP Fit Center  234 is at  -1.009090  2.065707  2.007708
      ESP Fit Center  235 is at  -1.658979  2.440921  2.007708
      ESP Fit Center  236 is at  -2.390591  2.607907  2.007708
      ESP Fit Center  237 is at  -3.138920  2.551827  2.007708
      ESP Fit Center  238 is at  -3.837473  2.277665  2.007708
      ESP Fit Center  239 is at  -4.424180  1.809782  2.007708
      ESP Fit Center  240 is at  -4.846911  1.189750  2.007708
      ESP Fit Center  241 is at  -5.068103  0.472662  2.007708
      ESP Fit Center  242 is at  -5.068103 -0.277765  2.007708
      ESP Fit Center  243 is at  -4.846911 -0.994852  2.007708
      ESP Fit Center  244 is at  -4.424180 -1.614884  2.007708
      ESP Fit Center  245 is at  -3.837473 -2.082768  2.007708
      ESP Fit Center  246 is at  -3.138920 -2.356930  2.007708
      ESP Fit Center  247 is at  -2.390591 -2.413009  2.007708
      ESP Fit Center  248 is at  -1.658979 -2.246023  2.007708
      ESP Fit Center  249 is at  -0.173072 -0.644597  2.007708
      ESP Fit Center  250 is at  -1.682229  2.856578  1.397177
      ESP Fit Center  251 is at  -2.396561  2.992844  1.397177
      ESP Fit Center  252 is at  -3.122340  2.947182  1.397177
      ESP Fit Center  253 is at  -3.813961  2.722460  1.397177
      ESP Fit Center  254 is at  -4.427967  2.332800  1.397177
      ESP Fit Center  255 is at  -4.925779  1.802684  1.397177
      ESP Fit Center  256 is at  -5.276117  1.165422  1.397177
      ESP Fit Center  257 is at  -5.456968  0.461055  1.397177
      ESP Fit Center  258 is at  -5.456968 -0.266158  1.397177
      ESP Fit Center  259 is at  -5.276117 -0.970525  1.397177
      ESP Fit Center  260 is at  -4.925779 -1.607787  1.397177
      ESP Fit Center  261 is at  -4.427967 -2.137902  1.397177
      ESP Fit Center  262 is at  -3.813961 -2.527563  1.397177
      ESP Fit Center  263 is at  -3.122340 -2.752284  1.397177
      ESP Fit Center  264 is at  -2.396561 -2.797946  1.397177
      ESP Fit Center  265 is at  -2.033596  3.189024  0.716588
      ESP Fit Center  266 is at  -2.761256  3.231405  0.716588
      ESP Fit Center  267 is at  -3.479076  3.104834  0.716588
      ESP Fit Center  268 is at  -4.148358  2.816134  0.716588
      ESP Fit Center  269 is at  -4.733020  2.380869  0.716588
      ESP Fit Center  270 is at  -5.201544  1.822505  0.716588
      ESP Fit Center  271 is at  -5.528671  1.171142  0.716588
      ESP Fit Center  272 is at  -5.696765  0.461895  0.716588
      ESP Fit Center  273 is at  -5.696765 -0.266998  0.716588
      ESP Fit Center  274 is at  -5.528671 -0.976244  0.716588
      ESP Fit Center  275 is at  -5.201544 -1.627607  0.716588
      ESP Fit Center  276 is at  -4.733020 -2.185972  0.716588
      ESP Fit Center  277 is at  -4.148358 -2.621237  0.716588
      ESP Fit Center  278 is at  -3.479076 -2.909937  0.716588
      ESP Fit Center  279 is at  -2.761256 -3.036508  0.716588
      ESP Fit Center  280 is at  -1.862207  3.236717  0.000071
      ESP Fit Center  281 is at  -2.578724  3.317449  0.000071
      ESP Fit Center  282 is at  -3.295242  3.236717  0.000071
      ESP Fit Center  283 is at  -3.975830  2.998568  0.000071
      ESP Fit Center  284 is at  -4.586361  2.614946  0.000071
      ESP Fit Center  285 is at  -5.096221  2.105086  0.000071
      ESP Fit Center  286 is at  -5.479844  1.494554  0.000071
      ESP Fit Center  287 is at  -5.717992  0.813966  0.000071
      ESP Fit Center  288 is at  -5.798724  0.097449  0.000071
      ESP Fit Center  289 is at  -5.717992 -0.619069  0.000071
      ESP Fit Center  290 is at  -5.479844 -1.299657  0.000071
      ESP Fit Center  291 is at  -5.096221 -1.910188  0.000071
      ESP Fit Center  292 is at  -4.586361 -2.420049  0.000071
      ESP Fit Center  293 is at  -3.975830 -2.803671  0.000071
      ESP Fit Center  294 is at  -3.295242 -3.041819  0.000071
      ESP Fit Center  295 is at  -2.033596  3.189024 -0.716446
      ESP Fit Center  296 is at  -2.761256  3.231405 -0.716446
      ESP Fit Center  297 is at  -3.479076  3.104834 -0.716446
      ESP Fit Center  298 is at  -4.148358  2.816134 -0.716446
      ESP Fit Center  299 is at  -4.733020  2.380869 -0.716446
      ESP Fit Center  300 is at  -5.201544  1.822505 -0.716446
      ESP Fit Center  301 is at  -5.528671  1.171142 -0.716446
      ESP Fit Center  302 is at  -5.696765  0.461895 -0.716446
      ESP Fit Center  303 is at  -5.696765 -0.266998 -0.716446
      ESP Fit Center  304 is at  -5.528671 -0.976244 -0.716446
      ESP Fit Center  305 is at  -5.201544 -1.627607 -0.716446
      ESP Fit Center  306 is at  -4.733020 -2.185972 -0.716446
      ESP Fit Center  307 is at  -4.148358 -2.621237 -0.716446
      ESP Fit Center  308 is at  -3.479076 -2.909937 -0.716446
      ESP Fit Center  309 is at  -2.761256 -3.036508 -0.716446
      ESP Fit Center  310 is at  -1.682229  2.856578 -1.397035
      ESP Fit Center  311 is at  -2.396561  2.992844 -1.397035
      ESP Fit Center  312 is at  -3.122340  2.947182 -1.397035
      ESP Fit Center  313 is at  -3.813961  2.722460 -1.397035
      ESP Fit Center  314 is at  -4.427967  2.332800 -1.397035
      ESP Fit Center  315 is at  -4.925779  1.802684 -1.397035
      ESP Fit Center  316 is at  -5.276117  1.165422 -1.397035
      ESP Fit Center  317 is at  -5.456968  0.461055 -1.397035
      ESP Fit Center  318 is at  -5.456968 -0.266158 -1.397035
      ESP Fit Center  319 is at  -5.276117 -0.970525 -1.397035
      ESP Fit Center  320 is at  -4.925779 -1.607787 -1.397035
      ESP Fit Center  321 is at  -4.427967 -2.137902 -1.397035
      ESP Fit Center  322 is at  -3.813961 -2.527563 -1.397035
      ESP Fit Center  323 is at  -3.122340 -2.752284 -1.397035
      ESP Fit Center  324 is at  -2.396561 -2.797946 -1.397035
      ESP Fit Center  325 is at  -1.009090  2.065707 -2.007566
      ESP Fit Center  326 is at  -1.658979  2.440921 -2.007566
      ESP Fit Center  327 is at  -2.390591  2.607907 -2.007566
      ESP Fit Center  328 is at  -3.138920  2.551827 -2.007566
      ESP Fit Center  329 is at  -3.837473  2.277665 -2.007566
      ESP Fit Center  330 is at  -4.424180  1.809782 -2.007566
      ESP Fit Center  331 is at  -4.846911  1.189750 -2.007566
      ESP Fit Center  332 is at  -5.068103  0.472662 -2.007566
      ESP Fit Center  333 is at  -5.068103 -0.277765 -2.007566
      ESP Fit Center  334 is at  -4.846911 -0.994852 -2.007566
      ESP Fit Center  335 is at  -4.424180 -1.614884 -2.007566
      ESP Fit Center  336 is at  -3.837473 -2.082768 -2.007566
      ESP Fit Center  337 is at  -3.138920 -2.356930 -2.007566
      ESP Fit Center  338 is at  -2.390591 -2.413009 -2.007566
      ESP Fit Center  339 is at  -1.658979 -2.246023 -2.007566
      ESP Fit Center  340 is at  -0.173072 -0.644597 -2.007566
      ESP Fit Center  341 is at  -0.571087  0.097449 -2.517426
      ESP Fit Center  342 is at  -0.706658  0.822691 -2.517426
      ESP Fit Center  343 is at  -1.095062  1.449985 -2.517426
      ESP Fit Center  344 is at  -1.683843  1.894612 -2.517426
      ESP Fit Center  345 is at  -2.393483  2.096522 -2.517426
      ESP Fit Center  346 is at  -3.128140  2.028446 -2.517426
      ESP Fit Center  347 is at  -3.788596  1.699578 -2.517426
      ESP Fit Center  348 is at  -4.285652  1.154334 -2.517426
      ESP Fit Center  349 is at  -4.552177  0.466351 -2.517426
      ESP Fit Center  350 is at  -4.552177 -0.271454 -2.517426
      ESP Fit Center  351 is at  -4.285652 -0.959436 -2.517426
      ESP Fit Center  352 is at  -3.788596 -1.504680 -2.517426
      ESP Fit Center  353 is at  -3.128140 -1.833548 -2.517426
      ESP Fit Center  354 is at  -2.393483 -1.901624 -2.517426
      ESP Fit Center  355 is at  -1.683843 -1.699714 -2.517426
      ESP Fit Center  356 is at  -1.095062 -1.255088 -2.517426
      ESP Fit Center  357 is at  -0.706658 -0.627793 -2.517426
      ESP Fit Center  358 is at  -1.181618  0.097449 -2.901049
      ESP Fit Center  359 is at  -1.368795  0.796002 -2.901049
      ESP Fit Center  360 is at  -1.880171  1.307378 -2.901049
      ESP Fit Center  361 is at  -2.578724  1.494554 -2.901049
      ESP Fit Center  362 is at  -3.277277  1.307378 -2.901049
      ESP Fit Center  363 is at  -3.788653  0.796002 -2.901049
      ESP Fit Center  364 is at  -3.975830  0.097449 -2.901049
      ESP Fit Center  365 is at  -3.788653 -0.601104 -2.901049
      ESP Fit Center  366 is at  -3.277277 -1.112480 -2.901049
      ESP Fit Center  367 is at  -2.578724 -1.299657 -2.901049
      ESP Fit Center  368 is at  -1.880171 -1.112480 -2.901049
      ESP Fit Center  369 is at  -1.368795 -0.601104 -2.901049
      ESP Fit Center  370 is at  -1.862207  0.097449 -3.139197
      ESP Fit Center  371 is at  -2.220465  0.717971 -3.139197
      ESP Fit Center  372 is at  -2.936983  0.717971 -3.139197
      ESP Fit Center  373 is at  -3.295242  0.097449 -3.139197
      ESP Fit Center  374 is at  -2.936983 -0.523074 -3.139197
      ESP Fit Center  375 is at  -2.220465 -0.523074 -3.139197
      ESP Fit Center  376 is at  -2.578724  0.097449 -3.219929
      ESP Fit Center  377 is at   0.035236  1.787572  2.099904
      ESP Fit Center  378 is at   0.753478  1.787572  1.973258
      ESP Fit Center  379 is at  -0.323885  2.409588  1.973258
      ESP Fit Center  380 is at  -0.848731  2.807723  1.608597
      ESP Fit Center  381 is at  -0.874091  3.362572  1.049904
      ESP Fit Center  382 is at  -1.211071  3.437948  0.364565
      ESP Fit Center  383 is at  -1.211071  3.437948 -0.364757
      ESP Fit Center  384 is at  -0.874091  3.362572 -1.050096
      ESP Fit Center  385 is at  -0.848731  2.807723 -1.608789
      ESP Fit Center  386 is at   0.753478  1.787572 -1.973451
      ESP Fit Center  387 is at  -0.323885  2.409588 -1.973451
      ESP Fit Center  388 is at   0.035236  1.787572 -2.100096
      ESP Fit Center  389 is at   1.060890  2.632112  2.100126
      ESP Fit Center  390 is at   1.779132  2.632112  1.973480
      ESP Fit Center  391 is at   1.420011  3.254128  1.973480
      ESP Fit Center  392 is at   0.701769  3.254128  1.973480
      ESP Fit Center  393 is at   0.342647  2.632112  1.973480
      ESP Fit Center  394 is at   1.420011  2.010096  1.973480
      ESP Fit Center  395 is at   1.621639  3.859982  1.608819
      ESP Fit Center  396 is at   0.176923  3.652263  1.608819
      ESP Fit Center  397 is at   1.621639  3.859982 -1.608567
      ESP Fit Center  398 is at   0.176923  3.652263 -1.608567
      ESP Fit Center  399 is at   1.779132  2.632112 -1.973229
      ESP Fit Center  400 is at   1.420011  3.254128 -1.973229
      ESP Fit Center  401 is at   0.701769  3.254128 -1.973229
      ESP Fit Center  402 is at   0.342647  2.632112 -1.973229
      ESP Fit Center  403 is at   1.420011  2.010096 -1.973229
      ESP Fit Center  404 is at   1.060890  2.632112 -2.099874
      ESP Fit Center  405 is at   3.926398  2.987310  1.513951
      ESP Fit Center  406 is at   3.561936  3.618577  1.513951
      ESP Fit Center  407 is at   4.510951  2.987310  1.047786
      ESP Fit Center  408 is at   4.260099  3.759352  1.047786
      ESP Fit Center  409 is at   3.603360  4.236501  1.047786
      ESP Fit Center  410 is at   2.791587  4.236501  1.047786
      ESP Fit Center  411 is at   4.260099  2.215268  1.047786
      ESP Fit Center  412 is at   4.835353  2.987310  0.374158
      ESP Fit Center  413 is at   4.647743  3.748470  0.374158
      ESP Fit Center  414 is at   4.127895  4.335258  0.374158
      ESP Fit Center  415 is at   3.394898  4.613247  0.374158
      ESP Fit Center  416 is at   2.616674  4.518753  0.374158
      ESP Fit Center  417 is at   4.647743  2.226150  0.374158
      ESP Fit Center  418 is at   4.835353  2.987310 -0.373512
      ESP Fit Center  419 is at   4.647743  3.748470 -0.373512
      ESP Fit Center  420 is at   4.127895  4.335258 -0.373512
      ESP Fit Center  421 is at   3.394898  4.613247 -0.373512
      ESP Fit Center  422 is at   2.616674  4.518753 -0.373512
      ESP Fit Center  423 is at   4.647743  2.226150 -0.373512
      ESP Fit Center  424 is at   4.510951  2.987310 -1.047140
      ESP Fit Center  425 is at   4.260099  3.759352 -1.047140
      ESP Fit Center  426 is at   3.603360  4.236501 -1.047140
      ESP Fit Center  427 is at   2.791587  4.236501 -1.047140
      ESP Fit Center  428 is at   4.260099  2.215268 -1.047140
      ESP Fit Center  429 is at   3.926398  2.987310 -1.513305
      ESP Fit Center  430 is at   3.561936  3.618577 -1.513305
      ESP Fit Center  431 is at   4.440717  0.503205  1.513617
      ESP Fit Center  432 is at   4.076254 -0.128062  1.513617
      ESP Fit Center  433 is at   5.025269  0.503205  1.047452
      ESP Fit Center  434 is at   4.774417  1.275247  1.047452
      ESP Fit Center  435 is at   4.774417 -0.268837  1.047452
      ESP Fit Center  436 is at   5.349671  0.503205  0.373824
      ESP Fit Center  437 is at   5.162062  1.264365  0.373824
      ESP Fit Center  438 is at   4.642213  1.851153  0.373824
      ESP Fit Center  439 is at   4.642213 -0.844743  0.373824
      ESP Fit Center  440 is at   5.162062 -0.257955  0.373824
      ESP Fit Center  441 is at   5.349671  0.503205 -0.373846
      ESP Fit Center  442 is at   5.162062  1.264365 -0.373846
      ESP Fit Center  443 is at   4.642213  1.851153 -0.373846
      ESP Fit Center  444 is at   4.642213 -0.844743 -0.373846
      ESP Fit Center  445 is at   5.162062 -0.257955 -0.373846
      ESP Fit Center  446 is at   5.025269  0.503205 -1.047474
      ESP Fit Center  447 is at   4.774417  1.275247 -1.047474
      ESP Fit Center  448 is at   4.774417 -0.268837 -1.047474
      ESP Fit Center  449 is at   4.440717  0.503205 -1.513639
      ESP Fit Center  450 is at   4.076254 -0.128062 -1.513639
      ESP Fit Center  451 is at  -1.643183 -3.205437  1.514133
      ESP Fit Center  452 is at  -2.341346 -3.346213  1.047968
      ESP Fit Center  453 is at  -1.684608 -3.823361  1.047968
      ESP Fit Center  454 is at  -0.872834 -3.823361  1.047968
      ESP Fit Center  455 is at  -2.504691 -3.660285  0.374340
      ESP Fit Center  456 is at  -1.859521 -4.105614  0.374340
      ESP Fit Center  457 is at  -1.081297 -4.200107  0.374340
      ESP Fit Center  458 is at  -2.504691 -3.660285 -0.373330
      ESP Fit Center  459 is at  -1.859521 -4.105614 -0.373330
      ESP Fit Center  460 is at  -1.081297 -4.200107 -0.373330
      ESP Fit Center  461 is at  -2.341346 -3.346213 -1.046958
      ESP Fit Center  462 is at  -1.684608 -3.823361 -1.046958
      ESP Fit Center  463 is at  -0.872834 -3.823361 -1.046958
      ESP Fit Center  464 is at  -1.643183 -3.205437 -1.513123
      ESP Fit Center  465 is at   1.165687  4.321096  1.513908
      ESP Fit Center  466 is at   0.436762  4.321096  1.513908
      ESP Fit Center  467 is at   1.863850  4.461871  1.047743
      ESP Fit Center  468 is at   1.207111  4.939020  1.047743
      ESP Fit Center  469 is at   0.395338  4.939020  1.047743
      ESP Fit Center  470 is at  -0.261400  4.461871  1.047743
      ESP Fit Center  471 is at  -0.512252  3.689829  1.047743
      ESP Fit Center  472 is at   2.251494  4.450989  0.374115
      ESP Fit Center  473 is at   1.731646  5.037777  0.374115
      ESP Fit Center  474 is at   0.998649  5.315766  0.374115
      ESP Fit Center  475 is at   0.220425  5.221272  0.374115
      ESP Fit Center  476 is at  -0.424745  4.775943  0.374115
      ESP Fit Center  477 is at  -0.789060  4.081799  0.374115
      ESP Fit Center  478 is at   2.251494  4.450989 -0.373555
      ESP Fit Center  479 is at   1.731646  5.037777 -0.373555
      ESP Fit Center  480 is at   0.998649  5.315766 -0.373555
      ESP Fit Center  481 is at   0.220425  5.221272 -0.373555
      ESP Fit Center  482 is at  -0.424745  4.775943 -0.373555
      ESP Fit Center  483 is at  -0.789060  4.081799 -0.373555
      ESP Fit Center  484 is at   1.863850  4.461871 -1.047183
      ESP Fit Center  485 is at   1.207111  4.939020 -1.047183
      ESP Fit Center  486 is at   0.395338  4.939020 -1.047183
      ESP Fit Center  487 is at  -0.261400  4.461871 -1.047183
      ESP Fit Center  488 is at  -0.512252  3.689829 -1.047183
      ESP Fit Center  489 is at   1.165687  4.321096 -1.513348
      ESP Fit Center  490 is at   0.436762  4.321096 -1.513348
      ESP Fit Center  491 is at   2.409831  2.240603  2.368496
      ESP Fit Center  492 is at   3.141684  2.240603  2.252582
      ESP Fit Center  493 is at   2.775758  2.874407  2.252582
      ESP Fit Center  494 is at   2.043904  2.874407  2.252582
      ESP Fit Center  495 is at   2.043904  1.606799  2.252582
      ESP Fit Center  496 is at   3.801899  2.240603  1.916186
      ESP Fit Center  497 is at   3.580913  2.993212  1.916186
      ESP Fit Center  498 is at   2.988117  3.506873  1.916186
      ESP Fit Center  499 is at   2.211719  3.618502  1.916186
      ESP Fit Center  500 is at   4.325849  2.240603  1.392236
      ESP Fit Center  501 is at   2.409831  4.156621  1.392236
      ESP Fit Center  502 is at   4.325849  2.240603 -1.391900
      ESP Fit Center  503 is at   2.409831  4.156621 -1.391900
      ESP Fit Center  504 is at   3.801899  2.240603 -1.915850
      ESP Fit Center  505 is at   3.580913  2.993212 -1.915850
      ESP Fit Center  506 is at   2.988117  3.506873 -1.915850
      ESP Fit Center  507 is at   2.211719  3.618502 -1.915850
      ESP Fit Center  508 is at   3.141684  2.240603 -2.252246
      ESP Fit Center  509 is at   2.775758  2.874407 -2.252246
      ESP Fit Center  510 is at   2.043904  2.874407 -2.252246
      ESP Fit Center  511 is at   2.043904  1.606799 -2.252246
      ESP Fit Center  512 is at   2.409831  2.240603 -2.368160
      ESP Fit Center  513 is at   2.695998  0.885873  2.368349
      ESP Fit Center  514 is at   3.427851  0.885873  2.252435
      ESP Fit Center  515 is at   3.061925  1.519677  2.252435
      ESP Fit Center  516 is at   1.964144  0.885873  2.252435
      ESP Fit Center  517 is at   2.330071  0.252069  2.252435
      ESP Fit Center  518 is at   3.061925  0.252069  2.252435
      ESP Fit Center  519 is at   4.088066  0.885873  1.916039
      ESP Fit Center  520 is at   3.867080  1.638482  1.916039
      ESP Fit Center  521 is at   3.274284 -0.380397  1.916039
      ESP Fit Center  522 is at   3.867080  0.133264  1.916039
      ESP Fit Center  523 is at   4.466167  1.619101  1.392089
      ESP Fit Center  524 is at   4.466167  1.619101 -1.392047
      ESP Fit Center  525 is at   4.088066  0.885873 -1.915997
      ESP Fit Center  526 is at   3.867080  1.638482 -1.915997
      ESP Fit Center  527 is at   3.274284 -0.380397 -1.915997
      ESP Fit Center  528 is at   3.867080  0.133264 -1.915997
      ESP Fit Center  529 is at   3.427851  0.885873 -2.252393
      ESP Fit Center  530 is at   3.061925  1.519677 -2.252393
      ESP Fit Center  531 is at   1.964144  0.885873 -2.252393
      ESP Fit Center  532 is at   2.330071  0.252069 -2.252393
      ESP Fit Center  533 is at   3.061925  0.252069 -2.252393
      ESP Fit Center  534 is at   2.695998  0.885873 -2.368307
      ESP Fit Center  535 is at   1.636961 -0.031487  2.368041
      ESP Fit Center  536 is at   2.368815 -0.031487  2.252127
      ESP Fit Center  537 is at   2.002888  0.602317  2.252127
      ESP Fit Center  538 is at   1.271034  0.602317  2.252127
      ESP Fit Center  539 is at   0.905107 -0.031487  2.252127
      ESP Fit Center  540 is at   1.271034 -0.665291  2.252127
      ESP Fit Center  541 is at   2.002888 -0.665291  2.252127
      ESP Fit Center  542 is at   2.368815 -0.031487 -2.252701
      ESP Fit Center  543 is at   2.002888  0.602317 -2.252701
      ESP Fit Center  544 is at   1.271034  0.602317 -2.252701
      ESP Fit Center  545 is at   0.905107 -0.031487 -2.252701
      ESP Fit Center  546 is at   1.271034 -0.665291 -2.252701
      ESP Fit Center  547 is at   2.002888 -0.665291 -2.252701
      ESP Fit Center  548 is at   1.636961 -0.031487 -2.368615
      ESP Fit Center  549 is at   0.307791  0.466670  2.367992
      ESP Fit Center  550 is at   1.039645  0.466670  2.252078
      ESP Fit Center  551 is at   0.673718  1.100474  2.252078
      ESP Fit Center  552 is at   0.673718 -0.167134  2.252078
      ESP Fit Center  553 is at   1.039645  0.466670 -2.252750
      ESP Fit Center  554 is at   0.673718  1.100474 -2.252750
      ESP Fit Center  555 is at   0.673718 -0.167134 -2.252750
      ESP Fit Center  556 is at   0.307791  0.466670 -2.368664
      ESP Fit Center  557 is at  -0.502868 -1.818666  2.368402
      ESP Fit Center  558 is at  -0.868795 -2.452470  2.252488
      ESP Fit Center  559 is at  -0.136941 -2.452470  2.252488
      ESP Fit Center  560 is at  -1.414479 -2.870721  1.916092
      ESP Fit Center  561 is at  -0.700980 -3.196565  1.916092
      ESP Fit Center  562 is at  -0.502868 -3.734684  1.392142
      ESP Fit Center  563 is at  -0.502868 -3.734684 -1.391994
      ESP Fit Center  564 is at  -1.414479 -2.870721 -1.915944
      ESP Fit Center  565 is at  -0.700980 -3.196565 -1.915944
      ESP Fit Center  566 is at  -0.868795 -2.452470 -2.252340
      ESP Fit Center  567 is at  -0.136941 -2.452470 -2.252340
      ESP Fit Center  568 is at  -0.502868 -1.818666 -2.368254
      ESP Fit Center  569 is at   0.794133 -2.278738  2.368334
      ESP Fit Center  570 is at   1.525987 -2.278738  2.252420
      ESP Fit Center  571 is at   1.160060 -1.644934  2.252420
      ESP Fit Center  572 is at   0.428206 -1.644934  2.252420
      ESP Fit Center  573 is at   0.428206 -2.912542  2.252420
      ESP Fit Center  574 is at   1.160060 -2.912542  2.252420
      ESP Fit Center  575 is at  -0.117478 -3.330793  1.916024
      ESP Fit Center  576 is at   0.596021 -3.656637  1.916024
      ESP Fit Center  577 is at   1.372419 -3.545008  1.916024
      ESP Fit Center  578 is at   1.965215 -3.031347  1.916024
      ESP Fit Center  579 is at  -0.117478 -3.330793 -1.916012
      ESP Fit Center  580 is at   0.596021 -3.656637 -1.916012
      ESP Fit Center  581 is at   1.372419 -3.545008 -1.916012
      ESP Fit Center  582 is at   1.965215 -3.031347 -1.916012
      ESP Fit Center  583 is at   1.525987 -2.278738 -2.252408
      ESP Fit Center  584 is at   1.160060 -1.644934 -2.252408
      ESP Fit Center  585 is at   0.428206 -1.644934 -2.252408
      ESP Fit Center  586 is at   0.428206 -2.912542 -2.252408
      ESP Fit Center  587 is at   1.160060 -2.912542 -2.252408
      ESP Fit Center  588 is at   0.794133 -2.278738 -2.368322
      ESP Fit Center  589 is at   0.612665 -3.903290  1.750876
      ESP Fit Center  590 is at   1.337721 -3.903290  1.750876
      ESP Fit Center  591 is at   0.097857 -4.287873  1.340165
      ESP Fit Center  592 is at   0.784530 -4.601465  1.340165
      ESP Fit Center  593 is at   1.531736 -4.494033  1.340165
      ESP Fit Center  594 is at   2.102245 -3.999685  1.340165
      ESP Fit Center  595 is at  -0.116188 -4.643922  0.725492
      ESP Fit Center  596 is at   0.585684 -4.981926  0.725492
      ESP Fit Center  597 is at   1.364703 -4.981926  0.725492
      ESP Fit Center  598 is at   2.066574 -4.643922  0.725492
      ESP Fit Center  599 is at   2.552285 -4.034861  0.725492
      ESP Fit Center  600 is at  -0.364536 -4.615102  0.000436
      ESP Fit Center  601 is at   0.250137 -5.025813  0.000436
      ESP Fit Center  602 is at   0.975193 -5.170036  0.000436
      ESP Fit Center  603 is at   1.700249 -5.025813  0.000436
      ESP Fit Center  604 is at   2.314922 -4.615102  0.000436
      ESP Fit Center  605 is at  -0.116188 -4.643922 -0.724620
      ESP Fit Center  606 is at   0.585684 -4.981926 -0.724620
      ESP Fit Center  607 is at   1.364703 -4.981926 -0.724620
      ESP Fit Center  608 is at   2.066574 -4.643922 -0.724620
      ESP Fit Center  609 is at   2.552285 -4.034861 -0.724620
      ESP Fit Center  610 is at   0.097857 -4.287873 -1.339293
      ESP Fit Center  611 is at   0.784530 -4.601465 -1.339293
      ESP Fit Center  612 is at   1.531736 -4.494033 -1.339293
      ESP Fit Center  613 is at   2.102245 -3.999685 -1.339293
      ESP Fit Center  614 is at   0.612665 -3.903290 -1.750004
      ESP Fit Center  615 is at   1.337721 -3.903290 -1.750004
      ESP Fit Center  616 is at   1.934667 -1.474677  2.367515
      ESP Fit Center  617 is at   2.666521 -1.474677  2.251601
      ESP Fit Center  618 is at   2.300594 -0.840873  2.251601
      ESP Fit Center  619 is at   1.568740 -0.840873  2.251601
      ESP Fit Center  620 is at   1.202813 -1.474677  2.251601
      ESP Fit Center  621 is at   1.568740 -2.108481  2.251601
      ESP Fit Center  622 is at   2.300594 -2.108481  2.251601
      ESP Fit Center  623 is at   3.105749 -0.722068  1.915205
      ESP Fit Center  624 is at   3.105749 -0.722068 -1.916831
      ESP Fit Center  625 is at   2.666521 -1.474677 -2.253227
      ESP Fit Center  626 is at   2.300594 -0.840873 -2.253227
      ESP Fit Center  627 is at   1.568740 -0.840873 -2.253227
      ESP Fit Center  628 is at   1.202813 -1.474677 -2.253227
      ESP Fit Center  629 is at   1.568740 -2.108481 -2.253227
      ESP Fit Center  630 is at   2.300594 -2.108481 -2.253227
      ESP Fit Center  631 is at   1.934667 -1.474677 -2.369141
      ESP Fit Center  632 is at   3.055367 -1.969671  2.211001
      ESP Fit Center  633 is at   3.811382 -1.969671  2.077695
      ESP Fit Center  634 is at   3.433374 -1.314943  2.077695
      ESP Fit Center  635 is at   2.677360 -2.624399  2.077695
      ESP Fit Center  636 is at   3.433374 -2.624399  2.077695
      ESP Fit Center  637 is at   4.476210 -1.969671  1.693856
      ESP Fit Center  638 is at   4.285853 -1.259249  1.693856
      ESP Fit Center  639 is at   3.765789 -0.739185  1.693856
      ESP Fit Center  640 is at   2.344945 -3.200157  1.693856
      ESP Fit Center  641 is at   3.055367 -3.390514  1.693856
      ESP Fit Center  642 is at   3.765789 -3.200157  1.693856
      ESP Fit Center  643 is at   4.285853 -2.680093  1.693856
      ESP Fit Center  644 is at   4.969664 -1.969671  1.105781
      ESP Fit Center  645 is at   4.823947 -1.237101  1.105781
      ESP Fit Center  646 is at   3.055367 -3.883968  1.105781
      ESP Fit Center  647 is at   3.787937 -3.738251  1.105781
      ESP Fit Center  648 is at   4.408979 -3.323283  1.105781
      ESP Fit Center  649 is at   4.823947 -2.702241  1.105781
      ESP Fit Center  650 is at   5.232225 -1.969671  0.384400
      ESP Fit Center  651 is at   5.100944 -1.225142  0.384400
      ESP Fit Center  652 is at   2.677360 -4.113458  0.384400
      ESP Fit Center  653 is at   3.433374 -4.113458  0.384400
      ESP Fit Center  654 is at   4.143796 -3.854885  0.384400
      ESP Fit Center  655 is at   4.722937 -3.368928  0.384400
      ESP Fit Center  656 is at   5.100944 -2.714200  0.384400
      ESP Fit Center  657 is at   5.232225 -1.969671 -0.383278
      ESP Fit Center  658 is at   5.100944 -1.225142 -0.383278
      ESP Fit Center  659 is at   2.677360 -4.113458 -0.383278
      ESP Fit Center  660 is at   3.433374 -4.113458 -0.383278
      ESP Fit Center  661 is at   4.143796 -3.854885 -0.383278
      ESP Fit Center  662 is at   4.722937 -3.368928 -0.383278
      ESP Fit Center  663 is at   5.100944 -2.714200 -0.383278
      ESP Fit Center  664 is at   4.969664 -1.969671 -1.104659
      ESP Fit Center  665 is at   4.823947 -1.237101 -1.104659
      ESP Fit Center  666 is at   3.055367 -3.883968 -1.104659
      ESP Fit Center  667 is at   3.787937 -3.738251 -1.104659
      ESP Fit Center  668 is at   4.408979 -3.323283 -1.104659
      ESP Fit Center  669 is at   4.823947 -2.702241 -1.104659
      ESP Fit Center  670 is at   4.476210 -1.969671 -1.692734
      ESP Fit Center  671 is at   4.285853 -1.259249 -1.692734
      ESP Fit Center  672 is at   3.765789 -0.739185 -1.692734
      ESP Fit Center  673 is at   2.344945 -3.200157 -1.692734
      ESP Fit Center  674 is at   3.055367 -3.390514 -1.692734
      ESP Fit Center  675 is at   3.765789 -3.200157 -1.692734
      ESP Fit Center  676 is at   4.285853 -2.680093 -1.692734
      ESP Fit Center  677 is at   3.811382 -1.969671 -2.076573
      ESP Fit Center  678 is at   3.433374 -1.314943 -2.076573
      ESP Fit Center  679 is at   2.677360 -2.624399 -2.076573
      ESP Fit Center  680 is at   3.433374 -2.624399 -2.076573
      ESP Fit Center  681 is at   3.055367 -1.969671 -2.209879
      ESP Fit Center  682 is at  -2.578724  0.097449  3.631507
      ESP Fit Center  683 is at  -1.870266  0.097449  3.561730
      ESP Fit Center  684 is at  -2.224495  0.710991  3.561730
      ESP Fit Center  685 is at  -2.932953  0.710991  3.561730
      ESP Fit Center  686 is at  -3.287182  0.097449  3.561730
      ESP Fit Center  687 is at  -2.932953 -0.516094  3.561730
      ESP Fit Center  688 is at  -2.224495 -0.516094  3.561730
      ESP Fit Center  689 is at  -1.189034  0.097449  3.355081
      ESP Fit Center  690 is at  -1.375217  0.792294  3.355081
      ESP Fit Center  691 is at  -1.883879  1.300956  3.355081
      ESP Fit Center  692 is at  -2.578724  1.487139  3.355081
      ESP Fit Center  693 is at  -3.273569  1.300956  3.355081
      ESP Fit Center  694 is at  -3.782231  0.792294  3.355081
      ESP Fit Center  695 is at  -3.968415  0.097449  3.355081
      ESP Fit Center  696 is at  -3.782231 -0.597397  3.355081
      ESP Fit Center  697 is at  -3.273569 -1.106059  3.355081
      ESP Fit Center  698 is at  -2.578724 -1.292242  3.355081
      ESP Fit Center  699 is at  -1.883879 -1.106059  3.355081
      ESP Fit Center  700 is at  -1.375217 -0.597397  3.355081
      ESP Fit Center  701 is at  -0.561206  0.097449  3.019500
      ESP Fit Center  702 is at  -0.697445  0.826260  3.019500
      ESP Fit Center  703 is at  -1.087760  1.456642  3.019500
      ESP Fit Center  704 is at  -1.679439  1.903457  3.019500
      ESP Fit Center  705 is at  -2.392571  2.106360  3.019500
      ESP Fit Center  706 is at  -3.130844  2.037949  3.019500
      ESP Fit Center  707 is at  -3.794550  1.707463  3.019500
      ESP Fit Center  708 is at  -4.294053  1.159535  3.019500
      ESP Fit Center  709 is at  -4.561890  0.468167  3.019500
      ESP Fit Center  710 is at  -4.561890 -0.273269  3.019500
      ESP Fit Center  711 is at  -4.294053 -0.964638  3.019500
      ESP Fit Center  712 is at  -3.794550 -1.512565  3.019500
      ESP Fit Center  713 is at  -3.130844 -1.843052  3.019500
      ESP Fit Center  714 is at  -2.392571 -1.911463  3.019500
      ESP Fit Center  715 is at  -1.679439 -1.708559  3.019500
      ESP Fit Center  716 is at  -1.087760 -1.261744  3.019500
      ESP Fit Center  717 is at  -0.697445 -0.631363  3.019500
      ESP Fit Center  718 is at  -0.010911  0.097449  2.567884
      ESP Fit Center  719 is at  -0.114925  0.820885  2.567884
      ESP Fit Center  720 is at  -0.418542  1.485713  2.567884
      ESP Fit Center  721 is at  -0.897164  2.038073  2.567884
      ESP Fit Center  722 is at  -1.512016  2.433214  2.567884
      ESP Fit Center  723 is at  -2.213286  2.639125  2.567884
      ESP Fit Center  724 is at  -2.944162  2.639125  2.567884
      ESP Fit Center  725 is at  -3.645432  2.433214  2.567884
      ESP Fit Center  726 is at  -4.260284  2.038073  2.567884
      ESP Fit Center  727 is at  -4.738906  1.485713  2.567884
      ESP Fit Center  728 is at  -5.042523  0.820885  2.567884
      ESP Fit Center  729 is at  -5.146537  0.097449  2.567884
      ESP Fit Center  730 is at  -5.042523 -0.625988  2.567884
      ESP Fit Center  731 is at  -4.738906 -1.290816  2.567884
      ESP Fit Center  732 is at  -4.260284 -1.843175  2.567884
      ESP Fit Center  733 is at  -3.645432 -2.238316  2.567884
      ESP Fit Center  734 is at  -2.944162 -2.444228  2.567884
      ESP Fit Center  735 is at  -2.213286 -2.444228  2.567884
      ESP Fit Center  736 is at  -1.512016 -2.238316  2.567884
      ESP Fit Center  737 is at  -0.897164 -1.843175  2.567884
      ESP Fit Center  738 is at  -0.418542 -1.290816  2.567884
      ESP Fit Center  739 is at  -0.114925 -0.625988  2.567884
      ESP Fit Center  740 is at  -1.508020  2.920664  2.017589
      ESP Fit Center  741 is at  -2.214772  3.094863  2.017589
      ESP Fit Center  742 is at  -2.942676  3.094863  2.017589
      ESP Fit Center  743 is at  -3.649428  2.920664  2.017589
      ESP Fit Center  744 is at  -4.293955  2.582390  2.017589
      ESP Fit Center  745 is at  -4.838799  2.099701  2.017589
      ESP Fit Center  746 is at  -5.252296  1.500647  2.017589
      ESP Fit Center  747 is at  -5.510414  0.820045  2.017589
      ESP Fit Center  748 is at  -5.598153  0.097449  2.017589
      ESP Fit Center  749 is at  -5.510414 -0.625148  2.017589
      ESP Fit Center  750 is at  -5.252296 -1.305750  2.017589
      ESP Fit Center  751 is at  -4.838799 -1.904803  2.017589
      ESP Fit Center  752 is at  -4.293955 -2.387493  2.017589
      ESP Fit Center  753 is at  -3.649428 -2.725767  2.017589
      ESP Fit Center  754 is at  -2.942676 -2.899965  2.017589
      ESP Fit Center  755 is at  -2.214772 -2.899965  2.017589
      ESP Fit Center  756 is at  -1.508020 -2.725767  2.017589
      ESP Fit Center  757 is at  -1.681164  3.330168  1.389762
      ESP Fit Center  758 is at  -2.397088  3.447538  1.389762
      ESP Fit Center  759 is at  -3.121504  3.408261  1.389762
      ESP Fit Center  760 is at  -3.820541  3.214175  1.389762
      ESP Fit Center  761 is at  -4.461512  2.874353  1.389762
[...]
 2447 Fit       0.002580
 2448 Fit       0.007074
 2449 Fit       0.004465
 2450 Fit       0.011462
 2451 Fit       0.009548
 2452 Fit       0.005020
 2453 Fit      -0.000348
 2454 Fit       0.017006
 2455 Fit       0.016155
 2456 Fit       0.013104
 2457 Fit       0.007284
 2458 Fit      -0.000866
 2459 Fit       0.022909
 2460 Fit       0.021646
 2461 Fit       0.002154
 2462 Fit       0.022896
 2463 Fit       0.021636
 2464 Fit       0.002177
 2465 Fit       0.016999
 2466 Fit       0.016151
 2467 Fit       0.013108
 2468 Fit       0.007302
 2469 Fit      -0.000826
 2470 Fit       0.011467
 2471 Fit       0.009561
 2472 Fit       0.005048
 2473 Fit      -0.000297
 2474 Fit       0.001822
 2475 Fit       0.002633
 2476 Fit       0.007093
 2477 Fit       0.004498
 2478 Fit       0.004133
 2479 Fit       0.017942
 2480 Fit       0.012278
 2481 Fit       0.023428
 2482 Fit       0.019572
 2483 Fit       0.013978
 2484 Fit       0.005503
 2485 Fit       0.028617
 2486 Fit       0.025215
 2487 Fit       0.021465
 2488 Fit       0.016434
 2489 Fit       0.009038
 2490 Fit       0.028986
 2491 Fit       0.025375
 2492 Fit       0.021302
 2493 Fit       0.015737
 2494 Fit       0.007349
 2495 Fit       0.028986
 2496 Fit       0.025375
 2497 Fit       0.021303
 2498 Fit       0.015739
 2499 Fit       0.007352
 2500 Fit       0.028616
 2501 Fit       0.025216
 2502 Fit       0.021467
 2503 Fit       0.016439
 2504 Fit       0.009046
 2505 Fit       0.023429
 2506 Fit       0.019577
 2507 Fit       0.013987
 2508 Fit       0.005520
 2509 Fit       0.017949
 2510 Fit       0.012293
 2511 Fit      -0.000591
 2512 Fit      -0.004692
 2513 Fit      -0.001878
 2514 Fit       0.000559
 2515 Fit       0.002194
 2516 Fit       0.001266
 2517 Fit      -0.003111
 2518 Fit      -0.005853
 2519 Fit      -0.006766
 2520 Fit      -0.005785
 2521 Fit      -0.006693
 2522 Fit      -0.004620
 2523 Fit      -0.001816
 2524 Fit       0.000612
 2525 Fit       0.002244
 2526 Fit       0.001321
 2527 Fit      -0.003043
 2528 Fit      -0.000530
 2529 Fit      -0.009335
 2530 Fit      -0.013648
 2531 Fit      -0.009965
 2532 Fit      -0.007462
 2533 Fit      -0.012654
 2534 Fit      -0.016779
 2535 Fit      -0.013579
 2536 Fit      -0.009114
 2537 Fit      -0.010209
 2538 Fit      -0.015225
 2539 Fit      -0.017454
 2540 Fit      -0.018895
 2541 Fit      -0.015463
 2542 Fit      -0.010300
 2543 Fit      -0.003052
 2544 Fit      -0.010878
 2545 Fit      -0.016448
 2546 Fit      -0.019463
 2547 Fit      -0.020222
 2548 Fit      -0.020211
 2549 Fit      -0.016395
 2550 Fit      -0.009395
 2551 Fit      -0.016167
 2552 Fit      -0.020112
 2553 Fit      -0.021906
 2554 Fit      -0.021936
 2555 Fit      -0.020940
 2556 Fit      -0.016798
 2557 Fit      -0.005082
 2558 Fit      -0.013980
 2559 Fit      -0.019282
 2560 Fit      -0.022158
 2561 Fit      -0.023279
 2562 Fit      -0.022913
 2563 Fit      -0.021254
 2564 Fit      -0.016778
 2565 Fit      -0.006688
 2566 Fit      -0.015347
 2567 Fit      -0.020326
 2568 Fit      -0.022944
 2569 Fit      -0.023882
 2570 Fit      -0.023380
 2571 Fit      -0.021252
 2572 Fit      -0.016775
 2573 Fit      -0.006684
 2574 Fit      -0.015344
 2575 Fit      -0.020324
 2576 Fit      -0.022942
 2577 Fit      -0.023881
 2578 Fit      -0.023379
 2579 Fit      -0.020933
 2580 Fit      -0.016788
 2581 Fit      -0.005071
 2582 Fit      -0.013971
 2583 Fit      -0.019275
 2584 Fit      -0.022152
 2585 Fit      -0.023273
 2586 Fit      -0.022907
 2587 Fit      -0.020198
 2588 Fit      -0.016378
 2589 Fit      -0.009376
 2590 Fit      -0.016152
 2591 Fit      -0.020100
 2592 Fit      -0.021895
 2593 Fit      -0.021925
 2594 Fit      -0.018874
 2595 Fit      -0.015437
 2596 Fit      -0.010264
 2597 Fit      -0.003017
 2598 Fit      -0.010851
 2599 Fit      -0.016427
 2600 Fit      -0.019444
 2601 Fit      -0.020204
 2602 Fit      -0.016749
 2603 Fit      -0.013542
 2604 Fit      -0.009063
 2605 Fit      -0.010170
 2606 Fit      -0.015195
 2607 Fit      -0.017426
 2608 Fit      -0.013606
 2609 Fit      -0.009910
 2610 Fit      -0.007404
 2611 Fit      -0.012611
 2612 Fit      -0.009276
 2613 Fit      -0.004258
 2614 Fit      -0.004011
 2615 Fit      -0.004999
 2616 Fit      -0.005095
 2617 Fit      -0.004370
 2618 Fit      -0.003441
 2619 Fit      -0.003165
 2620 Fit      -0.003638
 2621 Fit      -0.004823
 2622 Fit      -0.005680
 2623 Fit      -0.005969
 2624 Fit      -0.005712
 2625 Fit      -0.005109
 2626 Fit      -0.004342
 2627 Fit      -0.003468
 2628 Fit      -0.002537
 2629 Fit      -0.001820
 2630 Fit      -0.001762
 2631 Fit      -0.002483
 2632 Fit      -0.003147
 2633 Fit      -0.004414
 2634 Fit      -0.005531
 2635 Fit      -0.006312
 2636 Fit      -0.006648
 2637 Fit      -0.006554
 2638 Fit      -0.006137
 2639 Fit      -0.005538
 2640 Fit      -0.004872
 2641 Fit      -0.004182
 2642 Fit      -0.003433
 2643 Fit      -0.002559
 2644 Fit      -0.001549
 2645 Fit      -0.000554
 2646 Fit       0.000090
 2647 Fit       0.000043
 2648 Fit      -0.000715
 2649 Fit      -0.001871
 2650 Fit      -0.002536
 2651 Fit      -0.003854
 2652 Fit      -0.005099
 2653 Fit      -0.006149
 2654 Fit      -0.006879
 2655 Fit      -0.007235
 2656 Fit      -0.007227
 2657 Fit      -0.006917
 2658 Fit      -0.006400
 2659 Fit      -0.005776
 2660 Fit      -0.005131
 2661 Fit      -0.004509
 2662 Fit      -0.003909
 2663 Fit      -0.003281
 2664 Fit      -0.002544
 2665 Fit      -0.001622
 2666 Fit      -0.000491
 2667 Fit       0.000765
 2668 Fit       0.001903
 2669 Fit       0.002556
 2670 Fit       0.002411
 2671 Fit       0.001485
 2672 Fit       0.000170
 2673 Fit      -0.001194
 2674 Fit      -0.001818
 2675 Fit      -0.003220
 2676 Fit      -0.004548
 2677 Fit      -0.005747
 2678 Fit      -0.006702
 2679 Fit      -0.007369
 2680 Fit      -0.007717
 2681 Fit      -0.007731
 2682 Fit      -0.007447
 2683 Fit      -0.006944
 2684 Fit      -0.006310
 2685 Fit      -0.005631
 2686 Fit      -0.004971
 2687 Fit      -0.004366
 2688 Fit      -0.003818
 2689 Fit      -0.003291
 2690 Fit      -0.002718
 2691 Fit      -0.002010
 2692 Fit      -0.001079
 2693 Fit       0.000137
 2694 Fit       0.001632
 2695 Fit       0.003287
 2696 Fit       0.004816
 2697 Fit       0.005783
 2698 Fit       0.005745
 2699 Fit       0.004590
 2700 Fit       0.002840
 2701 Fit       0.001181
 2702 Fit      -0.000327
 2703 Fit      -0.003906
 2704 Fit      -0.006822
 2705 Fit      -0.007538
 2706 Fit      -0.007974
 2707 Fit      -0.008036
 2708 Fit      -0.007757
 2709 Fit      -0.007233
 2710 Fit      -0.006563
 2711 Fit      -0.005836
 2712 Fit      -0.005122
 2713 Fit      -0.004467
 2714 Fit      -0.003893
 2715 Fit      -0.003394
 2716 Fit      -0.002930
 2717 Fit      -0.002434
 2718 Fit      -0.001819
 2719 Fit      -0.000985
 2720 Fit       0.000163
 2721 Fit       0.001698
 2722 Fit       0.003632
 2723 Fit       0.005870
 2724 Fit       0.008135
 2725 Fit       0.009921
 2726 Fit       0.010537
 2727 Fit       0.009384
 2728 Fit       0.002653
 2729 Fit      -0.006991
 2730 Fit      -0.007860
 2731 Fit      -0.008140
 2732 Fit      -0.007949
 2733 Fit      -0.007451
 2734 Fit      -0.006778
 2735 Fit      -0.006029
 2736 Fit      -0.005275
 2737 Fit      -0.004571
 2738 Fit      -0.003950
 2739 Fit      -0.003423
 2740 Fit      -0.002976
 2741 Fit      -0.002573
 2742 Fit      -0.002151
 2743 Fit      -0.001631
 2744 Fit      -0.000917
 2745 Fit       0.000096
 2746 Fit       0.001509
 2747 Fit       0.003411
 2748 Fit       0.005855
 2749 Fit       0.008803
 2750 Fit       0.012046
 2751 Fit       0.015096
 2752 Fit       0.017127
 2753 Fit      -0.006026
 2754 Fit      -0.007597
 2755 Fit      -0.008093
 2756 Fit      -0.007941
 2757 Fit      -0.007428
 2758 Fit      -0.006729
 2759 Fit      -0.005952
 2760 Fit      -0.005173
 2761 Fit      -0.004445
 2762 Fit      -0.003801
 2763 Fit      -0.003258
 2764 Fit      -0.002811
 2765 Fit      -0.002433
 2766 Fit      -0.002078
 2767 Fit      -0.001678
 2768 Fit      -0.001149
 2769 Fit      -0.000393
 2770 Fit       0.000700
 2771 Fit       0.002247
 2772 Fit       0.004371
 2773 Fit       0.007188
 2774 Fit       0.010782
 2775 Fit       0.015122
 2776 Fit       0.019939
 2777 Fit      -0.006450
 2778 Fit      -0.007826
 2779 Fit      -0.008009
 2780 Fit      -0.007615
 2781 Fit      -0.006940
 2782 Fit      -0.006144
 2783 Fit      -0.005322
 2784 Fit      -0.004537
 2785 Fit      -0.003834
 2786 Fit      -0.003237
 2787 Fit      -0.002749
 2788 Fit      -0.002356
 2789 Fit      -0.002018
 2790 Fit      -0.001675
 2791 Fit      -0.001249
 2792 Fit      -0.000644
 2793 Fit       0.000253
 2794 Fit       0.001570
 2795 Fit       0.003452
 2796 Fit       0.006070
 2797 Fit       0.009619
 2798 Fit       0.014300
 2799 Fit       0.020249
 2800 Fit      -0.004885
 2801 Fit      -0.007378
 2802 Fit      -0.007983
 2803 Fit      -0.007762
 2804 Fit      -0.007158
 2805 Fit      -0.006382
 2806 Fit      -0.005550
 2807 Fit      -0.004738
 2808 Fit      -0.003994
 2809 Fit      -0.003351
 2810 Fit      -0.002820
 2811 Fit      -0.002396
 2812 Fit      -0.002050
 2813 Fit      -0.001735
 2814 Fit      -0.001382
 2815 Fit      -0.000905
 2816 Fit      -0.000201
 2817 Fit       0.000850
 2818 Fit       0.002387
 2819 Fit       0.004576
 2820 Fit       0.007625
 2821 Fit       0.011792
 2822 Fit       0.017388
 2823 Fit      -0.004886
 2824 Fit      -0.007378
 2825 Fit      -0.007984
 2826 Fit      -0.007762
 2827 Fit      -0.007158
 2828 Fit      -0.006382
 2829 Fit      -0.005551
 2830 Fit      -0.004738
 2831 Fit      -0.003994
 2832 Fit      -0.003351
 2833 Fit      -0.002821
 2834 Fit      -0.002396
 2835 Fit      -0.002051
 2836 Fit      -0.001735
 2837 Fit      -0.001382
 2838 Fit      -0.000905
 2839 Fit      -0.000201
 2840 Fit       0.000850
 2841 Fit       0.002386
 2842 Fit       0.004576
 2843 Fit       0.007625
 2844 Fit       0.011791
 2845 Fit       0.017386
 2846 Fit      -0.006452
 2847 Fit      -0.007827
 2848 Fit      -0.008010
 2849 Fit      -0.007615
 2850 Fit      -0.006941
 2851 Fit      -0.006144
 2852 Fit      -0.005322
 2853 Fit      -0.004538
 2854 Fit      -0.003834
 2855 Fit      -0.003237
 2856 Fit      -0.002750
 2857 Fit      -0.002356
 2858 Fit      -0.002018
 2859 Fit      -0.001676
 2860 Fit      -0.001250
 2861 Fit      -0.000644
 2862 Fit       0.000253
 2863 Fit       0.001569
 2864 Fit       0.003452
 2865 Fit       0.006069
 2866 Fit       0.009616
 2867 Fit       0.014296
 2868 Fit       0.020243
 2869 Fit      -0.006029
 2870 Fit      -0.007598
 2871 Fit      -0.008094
 2872 Fit      -0.007941
 2873 Fit      -0.007428
 2874 Fit      -0.006729
 2875 Fit      -0.005953
 2876 Fit      -0.005174
 2877 Fit      -0.004446
 2878 Fit      -0.003802
 2879 Fit      -0.003259
 2880 Fit      -0.002812
 2881 Fit      -0.002434
 2882 Fit      -0.002079
 2883 Fit      -0.001679
 2884 Fit      -0.001150
 2885 Fit      -0.000394
 2886 Fit       0.000699
 2887 Fit       0.002246
 2888 Fit       0.004369
 2889 Fit       0.007186
 2890 Fit       0.010778
 2891 Fit       0.015115
 2892 Fit       0.019929
 2893 Fit      -0.006994
 2894 Fit      -0.007861
 2895 Fit      -0.008140
 2896 Fit      -0.007950
 2897 Fit      -0.007452
 2898 Fit      -0.006779
 2899 Fit      -0.006029
 2900 Fit      -0.005276
 2901 Fit      -0.004572
 2902 Fit      -0.003951
 2903 Fit      -0.003424
 2904 Fit      -0.002977
 2905 Fit      -0.002574
 2906 Fit      -0.002152
 2907 Fit      -0.001632
 2908 Fit      -0.000918
 2909 Fit       0.000095
 2910 Fit       0.001507
 2911 Fit       0.003410
 2912 Fit       0.005852
 2913 Fit       0.008799
 2914 Fit       0.012040
 2915 Fit       0.015089
 2916 Fit       0.017118
 2917 Fit      -0.003891
 2918 Fit      -0.006822
 2919 Fit      -0.007538
 2920 Fit      -0.007974
 2921 Fit      -0.008036
 2922 Fit      -0.007758
 2923 Fit      -0.007233
 2924 Fit      -0.006564
 2925 Fit      -0.005837
 2926 Fit      -0.005122
 2927 Fit      -0.004468
 2928 Fit      -0.003894
 2929 Fit      -0.003395
 2930 Fit      -0.002931
 2931 Fit      -0.002435
 2932 Fit      -0.001820
 2933 Fit      -0.000986
 2934 Fit       0.000162
 2935 Fit       0.001697
 2936 Fit       0.003631
 2937 Fit       0.005868
 2938 Fit       0.008132
 2939 Fit       0.009918
 2940 Fit       0.010536
 2941 Fit       0.009390
 2942 Fit       0.002706
 2943 Fit      -0.001792
 2944 Fit      -0.003202
 2945 Fit      -0.004536
 2946 Fit      -0.005740
 2947 Fit      -0.006698
 2948 Fit      -0.007367
 2949 Fit      -0.007715
 2950 Fit      -0.007730
 2951 Fit      -0.007447
 2952 Fit      -0.006944
 2953 Fit      -0.006311
 2954 Fit      -0.005632
 2955 Fit      -0.004971
 2956 Fit      -0.004366
 2957 Fit      -0.003818
 2958 Fit      -0.003292
 2959 Fit      -0.002719
 2960 Fit      -0.002011
 2961 Fit      -0.001080
 2962 Fit       0.000136
 2963 Fit       0.001632
 2964 Fit       0.003286
 2965 Fit       0.004816
 2966 Fit       0.005784
 2967 Fit       0.005749
 2968 Fit       0.004602
 2969 Fit       0.002862
 2970 Fit       0.001211
 2971 Fit      -0.000296
 2972 Fit      -0.002518
 2973 Fit      -0.003840
 2974 Fit      -0.005090
 2975 Fit      -0.006143
 2976 Fit      -0.006875
 2977 Fit      -0.007233
 2978 Fit      -0.007226
 2979 Fit      -0.006916
 2980 Fit      -0.006399
 2981 Fit      -0.005776
 2982 Fit      -0.005131
 2983 Fit      -0.004509
 2984 Fit      -0.003909
 2985 Fit      -0.003281
 2986 Fit      -0.002545
 2987 Fit      -0.001623
 2988 Fit      -0.000491
 2989 Fit       0.000765
 2990 Fit       0.001904
 2991 Fit       0.002559
 2992 Fit       0.002417
 2993 Fit       0.001497
 2994 Fit       0.000187
 2995 Fit      -0.001175
 2996 Fit      -0.003134
 2997 Fit      -0.004404
 2998 Fit      -0.005524
 2999 Fit      -0.006308
 3000 Fit      -0.006645
 3001 Fit      -0.006552
 3002 Fit      -0.006136
 3003 Fit      -0.005538
 3004 Fit      -0.004872
 3005 Fit      -0.004181
 3006 Fit      -0.003433
 3007 Fit      -0.002558
 3008 Fit      -0.001548
 3009 Fit      -0.000552
 3010 Fit       0.000093
 3011 Fit       0.000050
 3012 Fit      -0.000705
 3013 Fit      -0.001858
 3014 Fit      -0.003629
 3015 Fit      -0.004816
 3016 Fit      -0.005675
 3017 Fit      -0.005966
 3018 Fit      -0.005710
 3019 Fit      -0.005108
 3020 Fit      -0.004341
 3021 Fit      -0.003467
 3022 Fit      -0.002535
 3023 Fit      -0.001817
 3024 Fit      -0.001756
 3025 Fit      -0.002475
 3026 Fit      -0.004005
 3027 Fit      -0.004995
 3028 Fit      -0.005092
 3029 Fit      -0.004367
 3030 Fit      -0.003438
 3031 Fit      -0.003160
 3032 Fit      -0.004254
 3033 Fit      -0.002432
 3034 Fit      -0.000853
 3035 Fit       0.000224
 3036 Fit      -0.001887
 3037 Fit      -0.005219
 3038 Fit      -0.004685
 3039 Fit      -0.002654
 3040 Fit       0.003271
 3041 Fit       0.002201
 3042 Fit      -0.000943
 3043 Fit      -0.005629
 3044 Fit       0.006666
 3045 Fit       0.005676
 3046 Fit       0.003160
 3047 Fit      -0.001198
 3048 Fit       0.010059
 3049 Fit      -0.003913
 3050 Fit       0.010057
 3051 Fit      -0.003916
 3052 Fit       0.006664
 3053 Fit       0.005675
 3054 Fit       0.003158
 3055 Fit      -0.001201
 3056 Fit       0.003272
 3057 Fit       0.002201
 3058 Fit      -0.000944
 3059 Fit      -0.005630
 3060 Fit      -0.000846
 3061 Fit       0.000227
 3062 Fit      -0.001885
 3063 Fit      -0.005215
 3064 Fit      -0.004677
 3065 Fit      -0.002644
 3066 Fit      -0.002427
 3067 Fit       0.009340
 3068 Fit       0.009748
 3069 Fit       0.010339
 3070 Fit       0.010932
 3071 Fit       0.011441
 3072 Fit       0.011818
 3073 Fit       0.012223
 3074 Fit       0.011763
 3075 Fit       0.012060
 3076 Fit       0.012484
 3077 Fit       0.012885
 3078 Fit       0.013328
 3079 Fit       0.014091
 3080 Fit       0.012515
 3081 Fit       0.012672
 3082 Fit       0.013056
 3083 Fit       0.013463
 3084 Fit       0.013933
 3085 Fit       0.014758
 3086 Fit       0.016673
 3087 Fit       0.013253
 3088 Fit       0.012516
 3089 Fit       0.012673
 3090 Fit       0.013057
 3091 Fit       0.013463
 3092 Fit       0.013933
 3093 Fit       0.014758
 3094 Fit       0.016673
 3095 Fit       0.013255
 3096 Fit       0.011766
 3097 Fit       0.012062
 3098 Fit       0.012485
 3099 Fit       0.012886
 3100 Fit       0.013329
 3101 Fit       0.014091
 3102 Fit       0.010343
 3103 Fit       0.010935
 3104 Fit       0.011443
 3105 Fit       0.011819
 3106 Fit       0.012223
 3107 Fit       0.009343
 3108 Fit       0.009749
 3109 Fit       0.001023
 3110 Fit      -0.005248
 3111 Fit       0.001896
 3112 Fit       0.006084
 3113 Fit      -0.004420
 3114 Fit       0.002579
 3115 Fit       0.006843
 3116 Fit       0.010409
 3117 Fit      -0.003503
 3118 Fit       0.002951
 3119 Fit       0.007429
 3120 Fit       0.011387
 3121 Fit      -0.003399
 3122 Fit       0.002954
 3123 Fit       0.007431
 3124 Fit       0.011388
 3125 Fit      -0.003395
 3126 Fit       0.002586
 3127 Fit       0.006848
 3128 Fit       0.010412
 3129 Fit      -0.003493
 3130 Fit       0.001908
 3131 Fit       0.006093
 3132 Fit      -0.004401
 3133 Fit       0.001042
 3134 Fit      -0.005218
 3135 Fit       0.023956
 3136 Fit       0.022867
 3137 Fit       0.026955
 3138 Fit       0.025001
 3139 Fit       0.030130
 3140 Fit       0.025000
 3141 Fit       0.030130
 3142 Fit       0.022866
 3143 Fit       0.026954
 3144 Fit       0.023955
 3145 Fit       0.005939
 3146 Fit       0.002012
 3147 Fit       0.010510
 3148 Fit       0.008471
 3149 Fit       0.005691
 3150 Fit       0.001620
 3151 Fit      -0.004503
 3152 Fit       0.013693
 3153 Fit       0.011669
 3154 Fit       0.009700
 3155 Fit       0.007299
 3156 Fit       0.004016
 3157 Fit      -0.000732
 3158 Fit       0.015288
 3159 Fit       0.012857
 3160 Fit       0.010840
 3161 Fit       0.008590
 3162 Fit       0.005628
 3163 Fit       0.001409
 3164 Fit       0.015288
 3165 Fit       0.012856
 3166 Fit       0.010839
 3167 Fit       0.008590
 3168 Fit       0.005627
 3169 Fit       0.001409
 3170 Fit       0.013693
 3171 Fit       0.011669
 3172 Fit       0.009699
 3173 Fit       0.007298
 3174 Fit       0.004015
 3175 Fit      -0.000734
 3176 Fit       0.010509
 3177 Fit       0.008470
 3178 Fit       0.005690
 3179 Fit       0.001618
 3180 Fit      -0.004507
 3181 Fit       0.005938
 3182 Fit       0.002011
 -----------------------------------------------------------------
 Leave Link  602 at Thu Jan 16 22:37:16 2014, MaxMem=   235929600 cpu:         1.1

 Test job not archived.
 1\1\GINC-G59\SP\RHF\Gen\C8H5Br1N2O1\KOLAR\16-Jan-2014\0\\# hf/gen pop=
 mk iop(6/33=2,6/41=5,6/42=2)\\na resp\\0,1\C,0,-2.409831,2.240603,-0.0
 00168\C,0,-2.695998,0.885873,-0.000021\C,0,-1.636961,-0.031487,0.00028
 7\C,0,-0.307791,0.46667,0.000336\C,0,0.776625,-0.491423,0.000265\C,0,0
 .502868,-1.818666,-0.000074\N,0,-0.794133,-2.278738,-0.000006\H,0,-0.9
 75193,-3.275373,-0.000436\C,0,-1.934667,-1.474677,0.000813\O,0,-3.0553
 67,-1.969671,-0.000561\Br,0,2.578724,0.097449,-0.000071\N,0,-0.035236,
 1.787572,0.000096\C,0,-1.06089,2.632112,-0.000126\H,0,-3.197474,2.9873
 1,-0.000323\H,0,-3.711792,0.503205,0.000011\H,0,1.278721,-2.57417,-0.0
 00505\H,0,-0.801225,3.689829,-0.00028\\Version=AM64L-G09RevD.01\State=
 1-A\HF=-3059.2238062\RMSD=6.044e-09\Dipole=-0.0168005,-0.1460548,0.000
 6971\Quadrupole=-6.6676316,9.3372468,-2.6696152,-11.225294,-0.0056446,
 -0.0025179\PG=C01 [X(C8H5Br1N2O1)]\\@


 There ain't no surer way to find out whether you
 like people or hate them than to travel with them.
                                     -- Mark Twain
 Job cpu time:       0 days  0 hours  0 minutes 29.3 seconds.
 File lengths (MBytes):  RWF=     15 Int=      0 D2E=      0 Chk=      2 Scr=      1
 Normal termination of Gaussian 09 at Thu Jan 16 22:37:16 2014.
28.55user 0.74system 0:29.37elapsed 99%CPU (0avgtext+0avgdata 5692928maxresident)k
8inputs+33640outputs (0major+510077minor)pagefaults 0swaps
