Linux g60 2.6.38.6-client #1 SMP Tue Jun 12 11:27:21 CEST 2012 x86_64 GNU/Linux
Thu Jan 16 21:46:46 CET 2014

 Entering Gaussian System, Link 0=/usr/local/programs/common/gaussian/gaussian09_d01/arch/amd64-pgi_10.4.0-acml/g09/g09
 Initial command:
 /usr/local/programs/common/gaussian/gaussian09_d01/arch/amd64-pgi_10.4.0-acml/g09/l1.exe "/scratch/kolar/g09_17875/Gau-1509.inp" -scrdir="/scratch/kolar/g09_17875/"
 Entering Link 1 = /usr/local/programs/common/gaussian/gaussian09_d01/arch/amd64-pgi_10.4.0-acml/g09/l1.exe PID=      1519.
  
 Copyright (c) 1988,1990,1992,1993,1995,1998,2003,2009,2013,
            Gaussian, Inc.  All Rights Reserved.
  
 This is part of the Gaussian(R) 09 program.  It is based on
 the Gaussian(R) 03 system (copyright 2003, Gaussian, Inc.),
 the Gaussian(R) 98 system (copyright 1998, Gaussian, Inc.),
 the Gaussian(R) 94 system (copyright 1995, Gaussian, Inc.),
 the Gaussian 92(TM) system (copyright 1992, Gaussian, Inc.),
 the Gaussian 90(TM) system (copyright 1990, Gaussian, Inc.),
 the Gaussian 88(TM) system (copyright 1988, Gaussian, Inc.),
 the Gaussian 86(TM) system (copyright 1986, Carnegie Mellon
 University), and the Gaussian 82(TM) system (copyright 1983,
 Carnegie Mellon University). Gaussian is a federally registered
 trademark of Gaussian, Inc.
  
 This software contains proprietary and confidential information,
 including trade secrets, belonging to Gaussian, Inc.
  
 This software is provided under written license and may be
 used, copied, transmitted, or stored only in accord with that
 written license.
  
 The following legend is applicable only to US Government
 contracts under FAR:
  
                    RESTRICTED RIGHTS LEGEND
  
 Use, reproduction and disclosure by the US Government is
 subject to restrictions as set forth in subparagraphs (a)
 and (c) of the Commercial Computer Software - Restricted
 Rights clause in FAR 52.227-19.
  
 Gaussian, Inc.
 340 Quinnipiac St., Bldg. 40, Wallingford CT 06492
  
  
 ---------------------------------------------------------------
 Warning -- This program may not be used in any manner that
 competes with the business of Gaussian, Inc. or will provide
 assistance to any competitor of Gaussian, Inc.  The licensee
 of this program is prohibited from giving any competitor of
 Gaussian, Inc. access to this program.  By using this program,
 the user acknowledges that Gaussian, Inc. is engaged in the
 business of creating and licensing software in the field of
 computational chemistry and represents and warrants to the
 licensee that it is not a competitor of Gaussian, Inc. and that
 it will not use this program in any manner prohibited above.
 ---------------------------------------------------------------
  

 Cite this work as:
 Gaussian 09, Revision D.01,
 M. J. Frisch, G. W. Trucks, H. B. Schlegel, G. E. Scuseria, 
 M. A. Robb, J. R. Cheeseman, G. Scalmani, V. Barone, B. Mennucci, 
 G. A. Petersson, H. Nakatsuji, M. Caricato, X. Li, H. P. Hratchian, 
 A. F. Izmaylov, J. Bloino, G. Zheng, J. L. Sonnenberg, M. Hada, 
 M. Ehara, K. Toyota, R. Fukuda, J. Hasegawa, M. Ishida, T. Nakajima, 
 Y. Honda, O. Kitao, H. Nakai, T. Vreven, J. A. Montgomery, Jr., 
 J. E. Peralta, F. Ogliaro, M. Bearpark, J. J. Heyd, E. Brothers, 
 K. N. Kudin, V. N. Staroverov, T. Keith, R. Kobayashi, J. Normand, 
 K. Raghavachari, A. Rendell, J. C. Burant, S. S. Iyengar, J. Tomasi, 
 M. Cossi, N. Rega, J. M. Millam, M. Klene, J. E. Knox, J. B. Cross, 
 V. Bakken, C. Adamo, J. Jaramillo, R. Gomperts, R. E. Stratmann, 
 O. Yazyev, A. J. Austin, R. Cammi, C. Pomelli, J. W. Ochterski, 
 R. L. Martin, K. Morokuma, V. G. Zakrzewski, G. A. Voth, 
 P. Salvador, J. J. Dannenberg, S. Dapprich, A. D. Daniels, 
 O. Farkas, J. B. Foresman, J. V. Ortiz, J. Cioslowski, 
 and D. J. Fox, Gaussian, Inc., Wallingford CT, 2013.
 
 ******************************************
 Gaussian 09:  AM64L-G09RevD.01 24-Apr-2013
                16-Jan-2014 
 ******************************************
 %mem=1800mb
 -----------------------------------------
 # hf/gen pop=mk iop(6/33=2,6/41=5,6/42=2)
 -----------------------------------------
 1/38=1/1;
 2/12=2,17=6,18=5,40=1/2;
 3/5=7,11=9,16=1,25=1,30=1/1,2,3;
 4//1;
 5/5=2,38=5/2;
 6/7=2,8=2,9=2,10=2,15=8,20=1,28=1,33=2,41=5,42=2/1,2;
 99/5=1,9=1/99;
 -------
 na resp
 -------
 Symbolic Z-matrix:
 Charge =  0 Multiplicity = 1
 6                     5.17115  -0.64396   0.11423 
 6                     3.94469  -1.05494  -0.70523 
 7                     2.97183   0.01807  -0.89894 
 6                     2.07593   0.31991   0.10854 
 8                     1.93877  -0.37291   1.11399 
 7                     1.34283   1.47836  -0.11977 
 6                     0.22618   1.80943   0.76476 
 6                    -1.11045   1.22953   0.33291 
 6                    -2.12839   2.0588   -0.1487 
 6                    -3.35086   1.52082  -0.55724 
 6                    -3.57331   0.14668  -0.49214 
 6                    -2.55236  -0.67409  -0.00926 
 6                    -1.32956  -0.15485   0.40405 
 17                   -2.82556  -2.41207   0.08403 
 1                     5.71082   0.18408  -0.36194 
 1                     4.86771  -0.32985   1.11749 
 1                     5.86691  -1.48557   0.2124 
 1                     4.24364  -1.41196  -1.69753 
 1                     3.41564  -1.86911  -0.20535 
 1                     3.27206   0.78979  -1.4818 
 1                     1.22062   1.743    -1.09002 
 1                     0.50382   1.4333    1.75196 
 1                     0.15139   2.90084   0.82752 
 1                    -1.96676   3.13316  -0.20032 
 1                    -4.1363    2.17355  -0.9284 
 1                    -4.51787  -0.28493  -0.8054 
 1                    -0.54815  -0.80693   0.78052 
 
                          Input orientation:                          
 ---------------------------------------------------------------------
 Center     Atomic      Atomic             Coordinates (Angstroms)
 Number     Number       Type             X           Y           Z
 ---------------------------------------------------------------------
      1          6           0        5.171154   -0.643962    0.114230
      2          6           0        3.944689   -1.054940   -0.705230
      3          7           0        2.971834    0.018072   -0.898942
      4          6           0        2.075927    0.319914    0.108537
      5          8           0        1.938770   -0.372906    1.113994
      6          7           0        1.342831    1.478355   -0.119769
      7          6           0        0.226180    1.809434    0.764757
      8          6           0       -1.110454    1.229527    0.332905
      9          6           0       -2.128389    2.058804   -0.148702
     10          6           0       -3.350858    1.520816   -0.557241
     11          6           0       -3.573313    0.146681   -0.492140
     12          6           0       -2.552356   -0.674085   -0.009261
     13          6           0       -1.329557   -0.154848    0.404045
     14         17           0       -2.825557   -2.412068    0.084028
     15          1           0        5.710818    0.184083   -0.361944
     16          1           0        4.867711   -0.329852    1.117494
     17          1           0        5.866913   -1.485572    0.212395
     18          1           0        4.243635   -1.411955   -1.697529
     19          1           0        3.415643   -1.869109   -0.205352
     20          1           0        3.272063    0.789788   -1.481795
     21          1           0        1.220615    1.743004   -1.090017
     22          1           0        0.503823    1.433303    1.751958
     23          1           0        0.151386    2.900838    0.827519
     24          1           0       -1.966764    3.133156   -0.200315
     25          1           0       -4.136299    2.173551   -0.928396
     26          1           0       -4.517872   -0.284932   -0.805399
     27          1           0       -0.548147   -0.806929    0.780523
 ---------------------------------------------------------------------
                    Distance matrix (angstroms):
                    1          2          3          4          5
     1  C    0.000000
     2  C    1.531220   0.000000
     3  N    2.510342   1.461275   0.000000
     4  C    3.241839   2.458600   1.381583   0.000000
     5  O    3.394305   2.792572   2.296083   1.228721   0.000000
     6  N    4.383497   3.678317   2.322324   1.389798   2.303146
     7  C    5.558337   4.918619   3.676342   2.463911   2.795986
     8  C    6.558687   5.643668   4.432848   3.321259   3.532090
     9  C    7.788286   6.847438   5.544341   4.556993   4.904018
    10  C    8.818267   7.738309   6.507798   5.597805   5.861687
    11  C    8.801051   7.616407   6.559038   5.683725   5.764781
    12  C    7.724556   6.545305   5.638022   4.735284   4.639248
    13  C    6.525524   5.464277   4.497737   3.451093   3.351647
    14  Cl   8.189902   6.949889   6.362512   5.611495   5.283732
    15  H    1.097104   2.184545   2.796061   3.667729   4.088640
    16  H    1.094204   2.167959   2.789519   3.038791   2.929260
    17  H    1.096369   2.173114   3.446375   4.200255   4.181054
    18  H    2.175448   1.096123   2.073691   3.310620   3.781096
    19  H    2.164471   1.092080   2.059001   2.585573   2.482026
    20  H    2.865219   2.111516   1.012621   2.044671   3.141281
    21  H    4.770176   3.923918   2.465495   2.047749   3.138548
    22  H    5.364808   4.905985   3.888602   2.532189   2.393421
    23  H    6.186474   5.690927   4.387019   3.298782   3.740883
    24  H    8.081796   7.262256   5.880610   4.934883   5.410460
    25  H    9.780293   8.704902   7.427820   6.565284   6.896540
    26  H    9.739191   8.498111   7.496416   6.684258   6.736471
    27  H    5.760287   4.738623   3.986414   2.933787   2.546436
                    6          7          8          9         10
     6  N    0.000000
     7  C    1.462501   0.000000
     8  C    2.507077   1.519664   0.000000
     9  C    3.519535   2.537831   1.398513   0.000000
    10  C    4.714223   3.824419   2.428296   1.396698   0.000000
    11  C    5.106906   4.333669   2.814059   2.421150   1.393546
    12  C    4.451707   3.806210   2.412446   2.769093   2.399058
    13  C    3.175436   2.531568   1.403411   2.417419   2.795993
    14  Cl   5.705470   5.253339   4.032956   4.530883   4.019296
    15  H    4.562138   5.830307   6.935814   8.063077   9.161821
    16  H    4.150327   5.122966   6.227817   7.500290   8.589213
    17  H    5.418719   6.555916   7.487986   8.753162   9.726151
    18  H    4.388380   5.707902   6.306057   7.419415   8.220567
    19  H    3.938196   4.964420   5.511517   6.794704   7.576342
    20  H    2.459914   3.919704   4.763713   5.705473   6.726982
    21  H    1.013093   2.105588   2.778893   3.493083   4.607774
    22  H    2.051664   1.092303   2.158964   3.306403   4.494288
    23  H    2.083352   1.095763   2.151782   2.619046   4.010952
    24  H    3.701118   2.737263   2.154389   1.087667   2.154705
    25  H    5.581939   4.693674   3.411422   2.157033   1.086617
    26  H    6.158499   5.418283   3.898695   3.410862   2.164308
    27  H    3.099814   2.728587   2.159561   3.401919   3.881134
                   11         12         13         14         15
    11  C    0.000000
    12  C    1.396131   0.000000
    13  C    2.434853   1.391282   0.000000
    14  Cl   2.727326   1.761796   2.726806   0.000000
    15  H    9.285119   8.315100   7.090028   8.933565   0.000000
    16  H    8.606329   7.513020   6.240654   8.036793   1.778678
    17  H    9.606169   8.461190   7.320979   8.742649   1.772563
    18  H    8.061451   7.041321   6.087479   7.358508   2.546321
    19  H    7.279503   6.089626   5.082025   6.271453   3.083496
    20  H    6.946379   6.183457   5.061979   7.062907   2.751085
    21  H    5.087971   4.609302   3.512469   5.917306   4.808560
    22  H    4.828500   4.108918   2.774955   5.352909   5.756903
    23  H    4.816665   4.559660   3.421950   6.135303   6.301021
    24  H    3.403703   3.856748   3.403271   5.618531   8.226082
    25  H    2.148366   3.385663   3.882608   4.875546  10.062036
    26  H    1.084718   2.156045   3.412481   2.860021  10.249035
    27  H    3.417700   2.158300   1.085148   2.871963   6.439098
                   16         17         18         19         20
    16  H    0.000000
    17  H    1.775753   0.000000
    18  H    3.079736   2.507640   0.000000
    19  H    2.495543   2.516016   1.766678   0.000000
    20  H    3.248998   3.844579   2.416230   2.952906   0.000000
    21  H    4.740374   5.805865   4.411518   4.318349   2.295768
    22  H    4.749187   6.297049   5.829292   4.818266   4.305162
    23  H    5.724086   7.230921   6.459300   5.871507   4.419060
    24  H    7.774258   9.103267   7.840200   7.347992   5.880380
    25  H    9.566864  10.712368   9.147170   8.596378   7.556777
    26  H    9.580642  10.503390   8.878631   8.112357   7.892758
    27  H    5.447263   6.475826   5.428441   4.220404   4.718219
                   21         22         23         24         25
    21  H    0.000000
    22  H    2.947292   0.000000
    23  H    2.482091   1.769875   0.000000
    24  H    3.589356   3.578361   2.365792   0.000000
    25  H    5.376618   5.409528   4.690035   2.481497   0.000000
    26  H    6.092927   5.891505   5.883666   4.307854   2.490957
    27  H    3.623479   2.658753   3.773472   4.301022   4.967746
                   26         27
    26  H    0.000000
    27  H    4.306547   0.000000
 Stoichiometry    C10H13ClN2O
 Framework group  C1[X(C10H13ClN2O)]
 Deg. of freedom    75
 Full point group                 C1      NOp   1
 Largest Abelian subgroup         C1      NOp   1
 Largest concise Abelian subgroup C1      NOp   1
                         Standard orientation:                         
 ---------------------------------------------------------------------
 Center     Atomic      Atomic             Coordinates (Angstroms)
 Number     Number       Type             X           Y           Z
 ---------------------------------------------------------------------
      1          6           0       -5.171154    0.643962    0.114230
      2          6           0       -3.944689    1.054940   -0.705230
      3          7           0       -2.971834   -0.018072   -0.898942
      4          6           0       -2.075927   -0.319914    0.108537
      5          8           0       -1.938770    0.372906    1.113994
      6          7           0       -1.342831   -1.478355   -0.119769
      7          6           0       -0.226180   -1.809434    0.764757
      8          6           0        1.110454   -1.229527    0.332905
      9          6           0        2.128389   -2.058804   -0.148702
     10          6           0        3.350858   -1.520816   -0.557241
     11          6           0        3.573313   -0.146681   -0.492140
     12          6           0        2.552356    0.674085   -0.009261
     13          6           0        1.329557    0.154848    0.404045
     14         17           0        2.825557    2.412068    0.084028
     15          1           0       -5.710818   -0.184083   -0.361944
     16          1           0       -4.867711    0.329852    1.117494
     17          1           0       -5.866913    1.485572    0.212395
     18          1           0       -4.243635    1.411955   -1.697529
     19          1           0       -3.415643    1.869109   -0.205352
     20          1           0       -3.272063   -0.789788   -1.481795
     21          1           0       -1.220615   -1.743004   -1.090017
     22          1           0       -0.503823   -1.433303    1.751958
     23          1           0       -0.151386   -2.900838    0.827519
     24          1           0        1.966764   -3.133156   -0.200315
     25          1           0        4.136299   -2.173551   -0.928396
     26          1           0        4.517872    0.284932   -0.805399
     27          1           0        0.548147    0.806929    0.780523
 ---------------------------------------------------------------------
 Rotational constants (GHZ):      1.0048657      0.2890556      0.2390987
 General basis read from cards:  (5D, 7F)
 There are   240 symmetry adapted cartesian basis functions of A   symmetry.
 There are   226 symmetry adapted basis functions of A   symmetry.
   226 basis functions,   468 primitive gaussians,   240 cartesian basis functions
    56 alpha electrons       56 beta electrons
       nuclear repulsion energy       942.3459356416 Hartrees.
 NAtoms=   27 NActive=   27 NUniq=   27 SFac= 1.00D+00 NAtFMM=   60 NAOKFM=F Big=F
 Integral buffers will be    131072 words long.
 Raffenetti 1 integral format.
 Two-electron integral symmetry is turned on.
 One-electron integrals computed using PRISM.
 NBasis=   226 RedAO= T EigKep=  4.65D-04  NBF=   226
 NBsUse=   226 1.00D-06 EigRej= -1.00D+00 NBFU=   226
 ExpMin= 1.43D-01 ExpMax= 2.52D+04 ExpMxC= 3.78D+03 IAcc=1 IRadAn=         1 AccDes= 0.00D+00
 Harris functional with IExCor=  205 and IRadAn=       1 diagonalized for initial guess.
 HarFok:  IExCor=  205 AccDes= 0.00D+00 IRadAn=         1 IDoV= 1 UseB2=F ITyADJ=14
 ICtDFT=  3500011 ScaDFX=  1.000000  1.000000  1.000000  1.000000
 FoFCou: FMM=F IPFlag=           0 FMFlag=      100000 FMFlg1=           0
         NFxFlg=           0 DoJE=T BraDBF=F KetDBF=T FulRan=T
         wScrn=  0.000000 ICntrl=     500 IOpCl=  0 I1Cent=   200000004 NGrid=           0
         NMat0=    1 NMatS0=      1 NMatT0=    0 NMatD0=    1 NMtDS0=    0 NMtDT0=    0
 Petite list used in FoFCou.
 Requested convergence on RMS density matrix=1.00D-08 within 128 cycles.
 Requested convergence on MAX density matrix=1.00D-06.
 Requested convergence on             energy=1.00D-06.
 No special actions if energy rises.
 Integral accuracy reduced to 1.0D-05 until final iterations.
 Initial convergence to 1.0D-05 achieved.  Increase integral accuracy.
 SCF Done:  E(RHF) =  -1029.52062566     A.U. after   15 cycles
            NFock= 15  Conv=0.80D-08     -V/T= 2.0006

 **********************************************************************

            Population analysis using the SCF density.

 **********************************************************************

 Orbital symmetries:
 BldTbl:  Degeneracy threshold= 1.00D-02
       Occupied  (A) (A) (A) (A) (A) (A) (A) (A) (A) (A) (A) (A)
                 (A) (A) (A) (A) (A) (A) (A) (A) (A) (A) (A) (A)
                 (A) (A) (A) (A) (A) (A) (A) (A) (A) (A) (A) (A)
                 (A) (A) (A) (A) (A) (A) (A) (A) (A) (A) (A) (A)
                 (A) (A) (A) (A) (A) (A) (A) (A)
       Virtual   (A) (A) (A) (A) (A) (A) (A) (A) (A) (A) (A) (A)
                 (A) (A) (A) (A) (A) (A) (A) (A) (A) (A) (A) (A)
                 (A) (A) (A) (A) (A) (A) (A) (A) (A) (A) (A) (A)
                 (A) (A) (A) (A) (A) (A) (A) (A) (A) (A) (A) (A)
                 (A) (A) (A) (A) (A) (A) (A) (A) (A) (A) (A) (A)
                 (A) (A) (A) (A) (A) (A) (A) (A) (A) (A) (A) (A)
                 (A) (A) (A) (A) (A) (A) (A) (A) (A) (A) (A) (A)
                 (A) (A) (A) (A) (A) (A) (A) (A) (A) (A) (A) (A)
                 (A) (A) (A) (A) (A) (A) (A) (A) (A) (A) (A) (A)
                 (A) (A) (A) (A) (A) (A) (A) (A) (A) (A) (A) (A)
                 (A) (A) (A) (A) (A) (A) (A) (A) (A) (A) (A) (A)
                 (A) (A) (A) (A) (A) (A) (A) (A) (A) (A) (A) (A)
                 (A) (A) (A) (A) (A) (A) (A) (A) (A) (A) (A) (A)
                 (A) (A) (A) (A) (A) (A) (A) (A) (A) (A) (A) (A)
                 (A) (A)
 The electronic state is 1-A.
 Alpha  occ. eigenvalues -- -104.81348 -20.51996 -15.58589 -15.58273 -11.38142
 Alpha  occ. eigenvalues --  -11.30139 -11.27133 -11.26109 -11.25158 -11.24845
 Alpha  occ. eigenvalues --  -11.24730 -11.24394 -11.24174 -11.21521 -10.55192
 Alpha  occ. eigenvalues --   -8.02048  -8.01719  -8.01716  -1.38824  -1.24357
 Alpha  occ. eigenvalues --   -1.21118  -1.17987  -1.11279  -1.04435  -1.01163
 Alpha  occ. eigenvalues --   -0.99427  -0.93674  -0.85914  -0.82962  -0.80454
 Alpha  occ. eigenvalues --   -0.78620  -0.75411  -0.70142  -0.66626  -0.65280
 Alpha  occ. eigenvalues --   -0.63795  -0.62246  -0.61257  -0.60142  -0.58882
 Alpha  occ. eigenvalues --   -0.58073  -0.57605  -0.55207  -0.54156  -0.52991
 Alpha  occ. eigenvalues --   -0.51882  -0.51148  -0.49761  -0.49553  -0.45964
 Alpha  occ. eigenvalues --   -0.44692  -0.43967  -0.40183  -0.39147  -0.33867
 Alpha  occ. eigenvalues --   -0.33138
 Alpha virt. eigenvalues --    0.12499   0.13113   0.19927   0.20936   0.22194
 Alpha virt. eigenvalues --    0.24944   0.25559   0.27790   0.28852   0.29972
 Alpha virt. eigenvalues --    0.30138   0.30993   0.31998   0.32078   0.32990
 Alpha virt. eigenvalues --    0.33738   0.34443   0.34879   0.38464   0.41120
 Alpha virt. eigenvalues --    0.41476   0.43667   0.44204   0.46868   0.48144
 Alpha virt. eigenvalues --    0.50199   0.52404   0.56052   0.60186   0.60768
 Alpha virt. eigenvalues --    0.61094   0.62614   0.64451   0.68800   0.71357
 Alpha virt. eigenvalues --    0.72419   0.72995   0.74456   0.75047   0.76170
 Alpha virt. eigenvalues --    0.76721   0.78772   0.79448   0.79967   0.82465
 Alpha virt. eigenvalues --    0.83474   0.83562   0.83981   0.84864   0.87052
 Alpha virt. eigenvalues --    0.87484   0.89201   0.91063   0.92738   0.93347
 Alpha virt. eigenvalues --    0.95817   0.97071   0.99549   1.01517   1.03605
 Alpha virt. eigenvalues --    1.04376   1.07385   1.07938   1.08706   1.10037
 Alpha virt. eigenvalues --    1.11004   1.13074   1.13455   1.14119   1.14756
 Alpha virt. eigenvalues --    1.16136   1.16374   1.16963   1.17545   1.17730
 Alpha virt. eigenvalues --    1.19371   1.20401   1.20798   1.21394   1.21677
 Alpha virt. eigenvalues --    1.22596   1.24181   1.25844   1.27663   1.29566
 Alpha virt. eigenvalues --    1.30822   1.35434   1.36320   1.38129   1.39118
 Alpha virt. eigenvalues --    1.40415   1.44629   1.45553   1.49027   1.49856
 Alpha virt. eigenvalues --    1.55439   1.55609   1.60820   1.64208   1.66082
 Alpha virt. eigenvalues --    1.66609   1.68873   1.70411   1.71930   1.73865
 Alpha virt. eigenvalues --    1.74947   1.75813   1.76750   1.82869   1.84178
 Alpha virt. eigenvalues --    1.88563   1.92676   1.99164   2.01384   2.04959
 Alpha virt. eigenvalues --    2.08060   2.10296   2.10957   2.12081   2.14052
 Alpha virt. eigenvalues --    2.17674   2.18058   2.21796   2.24312   2.24457
 Alpha virt. eigenvalues --    2.26040   2.28721   2.31627   2.32351   2.33446
 Alpha virt. eigenvalues --    2.36379   2.37240   2.38875   2.39743   2.43110
 Alpha virt. eigenvalues --    2.44908   2.45811   2.50156   2.50896   2.55049
 Alpha virt. eigenvalues --    2.57956   2.60681   2.61805   2.62601   2.65603
 Alpha virt. eigenvalues --    2.66336   2.70195   2.70615   2.72058   2.75448
 Alpha virt. eigenvalues --    2.86386   2.88605   2.89708   2.92417   2.92766
 Alpha virt. eigenvalues --    2.95716   2.97847   3.01771   3.04358   3.05642
 Alpha virt. eigenvalues --    3.09392   3.10266   3.11657   3.15026   3.22730
 Alpha virt. eigenvalues --    3.32726   3.42352   3.50062   3.52094   3.75647
          Condensed to atoms (all electrons):
               1          2          3          4          5          6
     1  C    5.163136   0.341113  -0.067683  -0.002028  -0.002229  -0.000159
     2  C    0.341113   4.906536   0.217267  -0.034300   0.003156   0.003080
     3  N   -0.067683   0.217267   7.319626   0.323364  -0.086647  -0.115857
     4  C   -0.002028  -0.034300   0.323364   3.834492   0.584533   0.316032
     5  O   -0.002229   0.003156  -0.086647   0.584533   8.234611  -0.088435
     6  N   -0.000159   0.003080  -0.115857   0.316032  -0.088435   7.335947
     7  C    0.000004  -0.000077   0.002807  -0.031847   0.002493   0.222132
     8  C    0.000000   0.000005  -0.000130  -0.001934  -0.003409  -0.075749
     9  C    0.000000   0.000000  -0.000001  -0.000042  -0.000035  -0.001228
    10  C    0.000000   0.000000   0.000000  -0.000001   0.000000  -0.000022
    11  C    0.000000   0.000000   0.000000  -0.000002   0.000000   0.000001
    12  C    0.000000   0.000000  -0.000001   0.000085   0.000202  -0.000006
    13  C    0.000000   0.000001  -0.000088   0.002002  -0.002681   0.000190
    14  Cl   0.000000   0.000000   0.000000  -0.000004  -0.000010   0.000007
    15  H    0.384214  -0.038415  -0.000722   0.000028   0.000024  -0.000022
    16  H    0.389281  -0.033023  -0.002596   0.002442   0.002946  -0.000021
    17  H    0.383382  -0.035390   0.004193   0.000041  -0.000016   0.000001
    18  H   -0.049821   0.408736  -0.043900   0.003416   0.000253  -0.000038
    19  H   -0.040160   0.405746  -0.036776  -0.004067   0.006242   0.000199
    20  H    0.000610  -0.026695   0.321743  -0.023397   0.002168   0.001452
    21  H    0.000010  -0.000018   0.001110  -0.019966   0.002017   0.317324
    22  H    0.000000  -0.000001   0.000288  -0.002308   0.007344  -0.039344
    23  H    0.000000   0.000001  -0.000027   0.002459   0.000303  -0.042775
    24  H    0.000000   0.000000   0.000000  -0.000001   0.000000   0.000097
    25  H    0.000000   0.000000   0.000000   0.000000   0.000000   0.000001
    26  H    0.000000   0.000000   0.000000   0.000000   0.000000   0.000000
    27  H    0.000000  -0.000007   0.000012   0.000573   0.011388  -0.001414
               7          8          9         10         11         12
     1  C    0.000004   0.000000   0.000000   0.000000   0.000000   0.000000
     2  C   -0.000077   0.000005   0.000000   0.000000   0.000000   0.000000
     3  N    0.002807  -0.000130  -0.000001   0.000000   0.000000  -0.000001
     4  C   -0.031847  -0.001934  -0.000042  -0.000001  -0.000002   0.000085
     5  O    0.002493  -0.003409  -0.000035   0.000000   0.000000   0.000202
     6  N    0.222132  -0.075749  -0.001228  -0.000022   0.000001  -0.000006
     7  C    4.933194   0.320233  -0.035774   0.002800   0.000219   0.001903
     8  C    0.320233   4.897359   0.565224  -0.040758  -0.030032  -0.037946
     9  C   -0.035774   0.565224   4.933083   0.536632  -0.045021  -0.035543
    10  C    0.002800  -0.040758   0.536632   4.893465   0.544512  -0.038962
    11  C    0.000219  -0.030032  -0.045021   0.544512   4.948618   0.522094
    12  C    0.001903  -0.037946  -0.035543  -0.038962   0.522094   5.046824
    13  C   -0.042270   0.537439  -0.043538  -0.034812  -0.044854   0.508558
    14  Cl  -0.000096   0.002350   0.000238   0.002591  -0.065169   0.218375
    15  H    0.000000   0.000000   0.000000   0.000000   0.000000   0.000000
    16  H    0.000001   0.000000   0.000000   0.000000   0.000000   0.000000
    17  H    0.000000   0.000000   0.000000   0.000000   0.000000   0.000000
    18  H    0.000001   0.000000   0.000000   0.000000   0.000000   0.000000
    19  H   -0.000001   0.000000   0.000000   0.000000   0.000000   0.000000
    20  H   -0.000010   0.000009   0.000000   0.000000   0.000000   0.000000
    21  H   -0.027017   0.002133   0.001019  -0.000006  -0.000012  -0.000020
    22  H    0.404710  -0.038322   0.001420  -0.000063   0.000002   0.000017
    23  H    0.417938  -0.063021  -0.000652   0.000265  -0.000018  -0.000020
    24  H   -0.002576  -0.032675   0.379979  -0.028853   0.002482   0.000083
    25  H   -0.000101   0.001962  -0.028574   0.382549  -0.029916   0.002478
    26  H    0.000004   0.000152   0.002246  -0.026076   0.382679  -0.029885
    27  H   -0.000376  -0.022794   0.002211   0.000037   0.001802  -0.025035
              13         14         15         16         17         18
     1  C    0.000000   0.000000   0.384214   0.389281   0.383382  -0.049821
     2  C    0.000001   0.000000  -0.038415  -0.033023  -0.035390   0.408736
     3  N   -0.000088   0.000000  -0.000722  -0.002596   0.004193  -0.043900
     4  C    0.002002  -0.000004   0.000028   0.002442   0.000041   0.003416
     5  O   -0.002681  -0.000010   0.000024   0.002946  -0.000016   0.000253
     6  N    0.000190   0.000007  -0.000022  -0.000021   0.000001  -0.000038
     7  C   -0.042270  -0.000096   0.000000   0.000001   0.000000   0.000001
     8  C    0.537439   0.002350   0.000000   0.000000   0.000000   0.000000
     9  C   -0.043538   0.000238   0.000000   0.000000   0.000000   0.000000
    10  C   -0.034812   0.002591   0.000000   0.000000   0.000000   0.000000
    11  C   -0.044854  -0.065169   0.000000   0.000000   0.000000   0.000000
    12  C    0.508558   0.218375   0.000000   0.000000   0.000000   0.000000
    13  C    5.024597  -0.064348   0.000000   0.000000   0.000000   0.000000
    14  Cl  -0.064348  16.912328   0.000000   0.000000   0.000000   0.000000
    15  H    0.000000   0.000000   0.556059  -0.027653  -0.027407  -0.002455
    16  H    0.000000   0.000000  -0.027653   0.496357  -0.023730   0.003564
    17  H    0.000000   0.000000  -0.027407  -0.023730   0.533574  -0.000487
    18  H    0.000000   0.000000  -0.002455   0.003564  -0.000487   0.535829
    19  H   -0.000005   0.000000   0.003595  -0.003003  -0.000998  -0.025450
    20  H   -0.000003   0.000000   0.001847  -0.000123  -0.000087  -0.002824
    21  H    0.000648   0.000001  -0.000002  -0.000003   0.000000  -0.000016
    22  H   -0.003001  -0.000001   0.000000   0.000001   0.000000   0.000000
    23  H    0.003321   0.000002   0.000000   0.000000   0.000000   0.000000
    24  H    0.002984   0.000007   0.000000   0.000000   0.000000   0.000000
    25  H    0.000180  -0.000089   0.000000   0.000000   0.000000   0.000000
    26  H    0.001973   0.000385   0.000000   0.000000   0.000000   0.000000
    27  H    0.365561   0.000343   0.000000   0.000000   0.000000   0.000000
              19         20         21         22         23         24
     1  C   -0.040160   0.000610   0.000010   0.000000   0.000000   0.000000
     2  C    0.405746  -0.026695  -0.000018  -0.000001   0.000001   0.000000
     3  N   -0.036776   0.321743   0.001110   0.000288  -0.000027   0.000000
     4  C   -0.004067  -0.023397  -0.019966  -0.002308   0.002459  -0.000001
     5  O    0.006242   0.002168   0.002017   0.007344   0.000303   0.000000
     6  N    0.000199   0.001452   0.317324  -0.039344  -0.042775   0.000097
     7  C   -0.000001  -0.000010  -0.027017   0.404710   0.417938  -0.002576
     8  C    0.000000   0.000009   0.002133  -0.038322  -0.063021  -0.032675
     9  C    0.000000   0.000000   0.001019   0.001420  -0.000652   0.379979
    10  C    0.000000   0.000000  -0.000006  -0.000063   0.000265  -0.028853
    11  C    0.000000   0.000000  -0.000012   0.000002  -0.000018   0.002482
    12  C    0.000000   0.000000  -0.000020   0.000017  -0.000020   0.000083
    13  C   -0.000005  -0.000003   0.000648  -0.003001   0.003321   0.002984
    14  Cl   0.000000   0.000000   0.000001  -0.000001   0.000002   0.000007
    15  H    0.003595   0.001847  -0.000002   0.000000   0.000000   0.000000
    16  H   -0.003003  -0.000123  -0.000003   0.000001   0.000000   0.000000
    17  H   -0.000998  -0.000087   0.000000   0.000000   0.000000   0.000000
    18  H   -0.025450  -0.002824  -0.000016   0.000000   0.000000   0.000000
    19  H    0.473853   0.003440  -0.000019  -0.000003   0.000000   0.000000
    20  H    0.003440   0.344870   0.001035  -0.000021  -0.000017   0.000000
    21  H   -0.000019   0.001035   0.341420   0.003399  -0.001306   0.000057
    22  H   -0.000003  -0.000021   0.003399   0.445717  -0.021147   0.000031
    23  H    0.000000  -0.000017  -0.001306  -0.021147   0.511099   0.002773
    24  H    0.000000   0.000000   0.000057   0.000031   0.002773   0.471913
    25  H    0.000000   0.000000   0.000000   0.000002  -0.000003  -0.001313
    26  H    0.000000   0.000000   0.000000   0.000000   0.000000  -0.000091
    27  H    0.000022  -0.000003  -0.000092   0.000430  -0.000032  -0.000087
              25         26         27
     1  C    0.000000   0.000000   0.000000
     2  C    0.000000   0.000000  -0.000007
     3  N    0.000000   0.000000   0.000012
     4  C    0.000000   0.000000   0.000573
     5  O    0.000000   0.000000   0.011388
     6  N    0.000001   0.000000  -0.001414
     7  C   -0.000101   0.000004  -0.000376
     8  C    0.001962   0.000152  -0.022794
     9  C   -0.028574   0.002246   0.002211
    10  C    0.382549  -0.026076   0.000037
    11  C   -0.029916   0.382679   0.001802
    12  C    0.002478  -0.029885  -0.025035
    13  C    0.000180   0.001973   0.365561
    14  Cl  -0.000089   0.000385   0.000343
    15  H    0.000000   0.000000   0.000000
    16  H    0.000000   0.000000   0.000000
    17  H    0.000000   0.000000   0.000000
    18  H    0.000000   0.000000   0.000000
    19  H    0.000000   0.000000   0.000022
    20  H    0.000000   0.000000  -0.000003
    21  H    0.000000   0.000000  -0.000092
    22  H    0.000002   0.000000   0.000430
    23  H   -0.000003   0.000000  -0.000032
    24  H   -0.001313  -0.000091  -0.000087
    25  H    0.461240  -0.001599   0.000007
    26  H   -0.001599   0.439088  -0.000077
    27  H    0.000007  -0.000077   0.385858
 Mulliken charges:
               1
     1  C   -0.499670
     2  C   -0.117716
     3  N   -0.835982
     4  C    1.050427
     5  O   -0.674217
     6  N   -0.831392
     7  C   -0.168294
     8  C    0.019903
     9  C   -0.231645
    10  C   -0.193297
    11  C   -0.187387
    12  C   -0.133200
    13  C   -0.211853
    14  Cl  -0.006908
    15  H    0.150909
    16  H    0.195561
    17  H    0.166924
    18  H    0.173190
    19  H    0.217387
    20  H    0.376007
    21  H    0.378301
    22  H    0.240853
    23  H    0.190859
    24  H    0.205191
    25  H    0.213176
    26  H    0.231201
    27  H    0.281672
 Sum of Mulliken charges =   0.00000
 Mulliken charges with hydrogens summed into heavy atoms:
               1
     1  C    0.013723
     2  C    0.272861
     3  N   -0.459975
     4  C    1.050427
     5  O   -0.674217
     6  N   -0.453091
     7  C    0.263418
     8  C    0.019903
     9  C   -0.026454
    10  C    0.019879
    11  C    0.043814
    12  C   -0.133200
    13  C    0.069819
    14  Cl  -0.006908
 DipInt: DoE/N= T F RetVal/Mat= T F Init=T NMatP=  1 IDeriv=0 Min/MaxMlt=  0  4
 Entering OneElI...
 OneElI was handed   235779545 working-precision words.
 Multipole integrals L=0 to 4 MinM= 0 MaxM= 0.
 Requested accuracy = 0.1000D-12
 PrtBox:  NBox=     1 Levels=  1 BoxLen=   38.94 SMaxX=       19.62
          Shift=           11.086859            5.920807            3.207865
 Box      1 Number                   0 centers from      1 to     83:
 ShPair: Thresh= 1.00D-13 NBox=     1 BxSize= 3.89D+01 RnKept= 2.02D+01
         NSMCal=                 3486 NSMKep=                2876
 PrsmSu:  NPrtUS=   1 ThrOK=F IAlg=1 NPAlg=1 LenDen=           0.
 Prism:   IPart=     0 DynPar=F LinDyn=F Incr=          28.
 PRISM was handed   235520943 working-precision words and  2876 shell-pairs
 IPart=  0 NShTot=        2876 NBatch=          94 AvBLen=        30.6
 PrSmSu:  NxtVal=             29.
 Electronic moments (au):
       -112.00000000         -0.48772099         -1.52160330         -1.23321474
      -3355.85857404       -897.96312504       -215.63534424         -3.36142181
          3.64768129          1.07360135       6264.61477971       -318.83998063
        -20.25444270      -2223.18338264      -2758.04556510       1231.74051474
        376.60702196         63.83049014        -52.14201828       -342.76977635
    -188232.94853459     -16517.92326197      -1357.95892009      12895.62073511
        279.13283813      -4425.41420639         54.09119267       -123.92504667
        144.44344091     -22713.43940622      -6247.55460186      -1291.88298286
       -877.62860529        -21.73015228        635.38478604
 Electronic spatial extent (au):  <R**2>=           4469.4570
 DipInt: DoE/N= F T RetVal/Mat= T F Init=T NMatP=  1 IDeriv=0 Min/MaxMlt=  0  4
 Nuclear    moments (au):
        112.00000000          0.00000000          0.00000000          0.00000000
       3296.20266760        833.36089898        147.08413569          0.00000000
          0.00007236         -0.00005590      -6301.56394771        307.26108136
         16.26362040       2210.75166669       2743.10820060      -1285.05906888
       -391.74733038        -69.70499819         45.54129291        343.65789727
     176901.58994781      13537.58862009        626.68787441     -13051.65634743
       -283.51098258       4376.69601062        -13.87432429        181.82799562
       -130.91072874      20229.09962955       4109.56935339        652.62348958
        941.73592875         25.59712403       -568.29414361
 Total      moments (au):
          0.00000000         -0.48772099         -1.52160330         -1.23321474
        -59.65590645        -64.60222606        -68.55120855         -3.36142181
          3.64775366          1.07354545        -36.94916800        -11.57889928
         -3.99082231        -12.43171595        -14.93736449        -53.31855415
        -15.14030842         -5.87450805         -6.60072537          0.88812092
     -11331.35858678      -2980.33464189       -731.27104568       -156.03561232
         -4.37814445        -48.71819577         40.21686837         57.90294895
         13.53271218      -2484.33977668      -2137.98524846       -639.25949328
         64.10732346          3.86697176         67.09064243
 Traceless Quadrup. (au):
          4.61387390         -0.33244571         -4.28142820         -3.36142181
          3.64775366          1.07354545
 Charge=              0.0000 electrons
 Dipole moment (field-independent basis, Debye):
    X=             -1.2397    Y=             -3.8675    Z=             -3.1345  Tot=              5.1303
 Quadrupole moment (field-independent basis, Debye-Ang):
   XX=            -80.2392   YY=            -86.8922   ZZ=            -92.2037
   XY=             -4.5212   XZ=              4.9064   YZ=              1.4440
 Traceless Quadrupole moment (field-independent basis, Debye-Ang):
   XX=              6.2058   YY=             -0.4472   ZZ=             -5.7587
   XY=             -4.5212   XZ=              4.9064   YZ=              1.4440
 Octapole moment (field-independent basis, Debye-Ang**2):
  XXX=            -26.2990  YYY=             -8.2414  ZZZ=             -2.8405  XYY=             -8.8484
  XXY=            -10.6318  XXZ=            -37.9501  XZZ=            -10.7763  YZZ=             -4.1812
  YYZ=             -4.6981  XYZ=              0.6321
 Hexadecapole moment (field-independent basis, Debye-Ang**3):
 XXXX=          -4267.9327 YYYY=          -1122.5369 ZZZZ=           -275.4317 XXXY=            -58.7705
 XXXZ=             -1.6490 YYYX=            -18.3496 YYYZ=             15.1476 ZZZX=             21.8090
 ZZZY=              5.0971 XXYY=           -935.7214 XXZZ=           -805.2677 YYZZ=           -240.7758
 XXYZ=             24.1459 YYXZ=              1.4565 ZZXY=             25.2696
 N-N= 9.423459356416D+02 E-N=-4.311415396912D+03  KE= 1.028933330639D+03
 Entering OneElI...
 OneElI was handed   235814088 working-precision words.
 Calculate electrostatic properties
    NBasis =   226  MinDer = 0  MaxDer = 0
    NGrid  =    27  NMatD  =   1
 Requested accuracy = 0.1000D-12
 PrtBox:  NBox=     1 Levels=  1 BoxLen=   32.45 SMaxX=       19.62
          Shift=           11.086859            5.920807            3.207865
 Box      1 Number                   0 centers from      1 to     83:
 ShPair: Thresh= 1.00D-13 NBox=     1 BxSize= 3.24D+01 RnKept= 1.75D+01
         NSMCal=                 3486 NSMKep=                2565
 PrsmSu:  NPrtUS=   1 ThrOK=F IAlg=1 NPAlg=1 LenDen=           0.
 Prism:   IPart=     0 DynPar=F LinDyn=F Incr=         512.
 PRISM was handed   235581280 working-precision words and  2565 shell-pairs
 IPart=  0 NShTot=       69255 NBatch=        2638 AvBLen=        26.3
 PrSmSu:  NxtVal=            513.
 --------------------------------------------------------
       Center         ----      EFG at Nuclei      ----
                      3XX-RR        3YY-RR        3ZZ-RR
 --------------------------------------------------------
     1   Atom       -0.013439     -0.007509      0.020948
     2   Atom       -0.040317     -0.095859      0.136176
     3   Atom        0.072580     -0.181163      0.108583
     4   Atom       -0.111508     -0.016168      0.127675
     5   Atom        0.697164      0.010793     -0.707957
     6   Atom        0.156455      0.224801     -0.381256
     7   Atom       -0.126108      0.104664      0.021443
     8   Atom        0.099345      0.177046     -0.276391
     9   Atom        0.129703      0.112230     -0.241932
    10   Atom        0.105475      0.163336     -0.268812
    11   Atom        0.067798      0.171933     -0.239731
    12   Atom        0.322157     -0.279267     -0.042889
    13   Atom        0.079331      0.172995     -0.252327
    14   Atom        1.735354     -3.484973      1.749619
    15   Atom        0.040634     -0.102754      0.062119
    16   Atom        0.112794      0.112948     -0.225743
    17   Atom       -0.031882     -0.115448      0.147329
    18   Atom        0.111539      0.098951     -0.210490
    19   Atom        0.040779     -0.106032      0.065253
    20   Atom        0.135963     -0.153021      0.017057
    21   Atom        0.181148      0.165207     -0.346356
    22   Atom        0.110806      0.104941     -0.215747
    23   Atom        0.135915     -0.284519      0.148604
    24   Atom        0.133559     -0.295920      0.162361
    25   Atom       -0.089830     -0.019978      0.109808
    26   Atom       -0.198490      0.072769      0.125721
    27   Atom       -0.079727     -0.024671      0.104398
 --------------------------------------------------------
                        XY            XZ            YZ
 --------------------------------------------------------
     1   Atom       -0.017834      0.023767     -0.005355
     2   Atom        0.227097      0.058259     -0.001051
     3   Atom        0.443165     -0.674343     -0.460095
     4   Atom       -0.243160      0.236737      0.278363
     5   Atom       -0.888118      0.351349     -0.660406
     6   Atom        0.773165     -0.317857     -0.336644
     7   Atom        0.027256     -0.189415      0.112259
     8   Atom       -0.009212     -0.156303      0.063052
     9   Atom        0.008994     -0.163379      0.039652
    10   Atom        0.043744     -0.165272      0.037903
    11   Atom        0.035637     -0.135491      0.038122
    12   Atom       -0.080918     -0.174513      0.011174
    13   Atom       -0.009037     -0.155976      0.056787
    14   Atom       -0.849223     -0.092620     -0.269060
    15   Atom       -0.165105     -0.090606     -0.149372
    16   Atom        0.035139     -0.109153      0.118896
    17   Atom        0.215269      0.028273     -0.027511
    18   Atom        0.047789     -0.106425      0.125477
    19   Atom       -0.149633     -0.089237     -0.153083
    20   Atom       -0.104856     -0.128149     -0.266220
    21   Atom        0.057110      0.051647     -0.148347
    22   Atom        0.033266      0.089486     -0.129590
    23   Atom        0.031523     -0.006291      0.024254
    24   Atom       -0.067641      0.005306     -0.023604
    25   Atom        0.195239      0.118974     -0.094946
    26   Atom       -0.155994      0.122611      0.049198
    27   Atom        0.187887      0.113930     -0.094328
 --------------------------------------------------------


 ---------------------------------------------------------------------------------
              Nuclear Quadrupole Coupling Constant in Principal Axis System
 ---------------------------------------------------------------------------------

       Atom             a.u.   MegaHertz   Gauss  10(-4) cm-1        Axes

              Baa    -0.5841     2.805     1.001     0.936  0.7046  0.0343  0.7087
     3 N(14)  Bbb    -0.5028     2.415     0.862     0.806 -0.3408  0.8924  0.2957
              Bcc     1.0870    -5.220    -1.863    -1.741 -0.6224 -0.4499  0.6405
 
              Baa    -0.5834     2.802     1.000     0.935  0.7117 -0.7008 -0.0480
     6 N(14)  Bbb    -0.5250     2.521     0.900     0.841  0.2411  0.1796  0.9537
              Bcc     1.1084    -5.323    -1.900    -1.776  0.6598  0.6904 -0.2968
 
              Baa    -3.6342   -69.722   -24.879   -23.257  0.1569  0.9862  0.0520
    14 Cl(35) Bbb     1.7448    33.474    11.944    11.166  0.3540 -0.1053  0.9293
              Bcc     1.8894    36.248    12.934    12.091  0.9220 -0.1274 -0.3657
 

 ---------------------------------------------------------------------------------

 No NMR shielding tensors so no spin-rotation constants.
 Leave Link  601 at Thu Jan 16 21:49:15 2014, MaxMem=   235929600 cpu:         0.3
 FitSet:  NAtFit=    27 NAtPot=    27 NAtFrz=     0 MDM=    31 TotChg=   0.00000
 Merz-Kollman atomic radii used.
 Atom Element Radius
    1     6    1.50
    2     6    1.50
    3     7    1.50
    4     6    1.50
    5     8    1.40
    6     7    1.50
    7     6    1.50
    8     6    1.50
    9     6    1.50
   10     6    1.50
   11     6    1.50
   12     6    1.50
   13     6    1.50
   14    17    1.70
   15     1    1.20
   16     1    1.20
   17     1    1.20
   18     1    1.20
   19     1    1.20
   20     1    1.20
   21     1    1.20
   22     1    1.20
   23     1    1.20
   24     1    1.20
   25     1    1.20
   26     1    1.20
   27     1    1.20
 Generate VDW surfaces: Layer= 5 Dens= 2 Start= 1.400 Inc= 0.179

 **********************************************************************

            Electrostatic Properties Using The SCF Density

 **********************************************************************

       Atomic Center    1 is at  -5.171154  0.643962  0.114230
       Atomic Center    2 is at  -3.944689  1.054940 -0.705230
       Atomic Center    3 is at  -2.971834 -0.018072 -0.898942
       Atomic Center    4 is at  -2.075927 -0.319914  0.108537
       Atomic Center    5 is at  -1.938770  0.372906  1.113994
       Atomic Center    6 is at  -1.342831 -1.478355 -0.119769
       Atomic Center    7 is at  -0.226180 -1.809434  0.764757
       Atomic Center    8 is at   1.110454 -1.229527  0.332905
       Atomic Center    9 is at   2.128389 -2.058804 -0.148702
       Atomic Center   10 is at   3.350858 -1.520816 -0.557241
       Atomic Center   11 is at   3.573313 -0.146681 -0.492140
       Atomic Center   12 is at   2.552356  0.674085 -0.009261
       Atomic Center   13 is at   1.329557  0.154848  0.404045
       Atomic Center   14 is at   2.825557  2.412068  0.084028
       Atomic Center   15 is at  -5.710818 -0.184083 -0.361944
       Atomic Center   16 is at  -4.867711  0.329852  1.117494
       Atomic Center   17 is at  -5.866913  1.485572  0.212395
       Atomic Center   18 is at  -4.243635  1.411955 -1.697529
       Atomic Center   19 is at  -3.415643  1.869109 -0.205352
       Atomic Center   20 is at  -3.272063 -0.789788 -1.481795
       Atomic Center   21 is at  -1.220615 -1.743004 -1.090017
       Atomic Center   22 is at  -0.503823 -1.433303  1.751958
       Atomic Center   23 is at  -0.151386 -2.900838  0.827519
       Atomic Center   24 is at   1.966764 -3.133156 -0.200315
       Atomic Center   25 is at   4.136299 -2.173551 -0.928396
       Atomic Center   26 is at   4.517872  0.284932 -0.805399
       Atomic Center   27 is at   0.548147  0.806929  0.780523
      ESP Fit Center   28 is at  -6.466329  1.024260  1.722923
      ESP Fit Center   29 is at  -6.466329  0.263664  1.722923
      ESP Fit Center   30 is at  -4.609159  2.373604  1.164230
      ESP Fit Center   31 is at  -6.950065  0.265842  1.164230
      ESP Fit Center   32 is at  -6.642475 -0.425016  1.164230
      ESP Fit Center   33 is at  -6.080481 -0.931038  1.164230
      ESP Fit Center   34 is at  -7.204037  0.263950  0.478891
      ESP Fit Center   35 is at  -4.249324 -1.207322  0.478891
      ESP Fit Center   36 is at  -6.055120  1.664113 -1.494463
      ESP Fit Center   37 is at  -6.466329  1.024260 -1.494463
      ESP Fit Center   38 is at  -5.889396  0.643962 -1.859124
      ESP Fit Center   39 is at  -4.510650  3.044088 -1.069891
      ESP Fit Center   40 is at  -5.190995  2.705316 -1.069891
      ESP Fit Center   41 is at  -2.283266  1.794653 -1.755230
      ESP Fit Center   42 is at  -2.727772  2.406463 -1.755230
      ESP Fit Center   43 is at  -3.881161 -1.593072  0.151058
      ESP Fit Center   44 is at  -1.443492  1.375195 -1.263603
      ESP Fit Center   45 is at  -2.050004  1.833212 -1.263603
      ESP Fit Center   46 is at  -1.153181 -0.018072 -1.948942
      ESP Fit Center   47 is at  -1.310411  0.721641 -1.948942
      ESP Fit Center   48 is at  -1.754917  1.333451 -1.948942
      ESP Fit Center   49 is at  -1.621980 -0.018072 -2.507635
      ESP Fit Center   50 is at  -1.836264  0.711714 -2.507635
      ESP Fit Center   51 is at  -2.411084  1.209798 -2.507635
      ESP Fit Center   52 is at  -1.836264 -0.747858 -2.507635
      ESP Fit Center   53 is at  -2.253592 -0.018072 -2.872296
      ESP Fit Center   54 is at  -2.612713  0.603944 -2.872296
      ESP Fit Center   55 is at  -3.330955  0.603944 -2.872296
      ESP Fit Center   56 is at  -2.971834 -0.018072 -2.998942
      ESP Fit Center   57 is at  -2.959893 -1.340066  1.717230
      ESP Fit Center   58 is at  -3.547248 -1.388892  1.158537
      ESP Fit Center   59 is at  -2.985254 -1.894914  1.158537
      ESP Fit Center   60 is at  -3.834258 -1.408626  0.473198
      ESP Fit Center   61 is at  -3.322233 -1.970291  0.473198
      ESP Fit Center   62 is at  -0.414504  0.419799 -0.941463
      ESP Fit Center   63 is at  -0.859010  1.031609 -0.941463
      ESP Fit Center   64 is at  -0.940357  0.409872 -1.500156
      ESP Fit Center   65 is at  -1.938770  0.372906  3.073994
      ESP Fit Center   66 is at  -1.188710  0.372906  2.924798
      ESP Fit Center   67 is at  -1.563740  1.022477  2.924798
      ESP Fit Center   68 is at  -2.313800  1.022477  2.924798
      ESP Fit Center   69 is at  -2.688829  0.372906  2.924798
      ESP Fit Center   70 is at  -2.313800 -0.276665  2.924798
      ESP Fit Center   71 is at  -1.563740 -0.276665  2.924798
      ESP Fit Center   72 is at  -0.552841  0.372906  2.499923
      ESP Fit Center   73 is at  -0.738520  1.065871  2.499923
      ESP Fit Center   74 is at  -1.245805  1.573156  2.499923
      ESP Fit Center   75 is at  -1.938770  1.758835  2.499923
      ESP Fit Center   76 is at  -2.631735  1.573156  2.499923
      ESP Fit Center   77 is at  -3.139020  1.065871  2.499923
      ESP Fit Center   78 is at  -3.324699  0.372906  2.499923
      ESP Fit Center   79 is at  -3.139020 -0.320059  2.499923
      ESP Fit Center   80 is at  -2.631735 -0.827344  2.499923
      ESP Fit Center   81 is at  -0.727106  1.718595  1.864054
      ESP Fit Center   82 is at  -1.379201  2.095083  1.864054
      ESP Fit Center   83 is at  -2.128050  2.173790  1.864054
      ESP Fit Center   84 is at  -2.844172  1.941108  1.864054
      ESP Fit Center   85 is at  -3.403741  1.437270  1.864054
      ESP Fit Center   86 is at  -3.403741 -0.691458  1.864054
      ESP Fit Center   87 is at  -2.844172 -1.195296  1.864054
      ESP Fit Center   88 is at  -1.065123  2.127426  1.113994
      ESP Fit Center   89 is at  -1.757924  2.324545  1.113994
      ESP Fit Center   90 is at  -1.379201  2.095083  0.363935
      ESP Fit Center   91 is at  -1.245805  1.573156 -0.271935
      ESP Fit Center   92 is at  -2.638006 -1.858653  1.488924
      ESP Fit Center   93 is at  -2.226797 -2.498507  1.488924
      ESP Fit Center   94 is at  -2.814152 -2.547333  0.930231
      ESP Fit Center   95 is at  -2.252158 -3.053355  0.930231
      ESP Fit Center   96 is at  -3.101162 -2.567067  0.244892
      ESP Fit Center   97 is at  -2.589137 -3.128731  0.244892
      ESP Fit Center   98 is at  -1.908792 -3.467503  0.244892
      ESP Fit Center   99 is at  -3.101162 -2.567067 -0.484430
      ESP Fit Center  100 is at  -2.589137 -3.128731 -0.484430
      ESP Fit Center  101 is at  -1.908792 -3.467503 -0.484430
      ESP Fit Center  102 is at  -1.152011 -3.537629 -0.484430
      ESP Fit Center  103 is at  -0.125914 -0.126832 -1.169769
      ESP Fit Center  104 is at  -2.814152 -2.547333 -1.169769
      ESP Fit Center  105 is at  -0.782081 -0.250485 -1.728462
      ESP Fit Center  106 is at   1.123674 -1.809434  2.373450
      ESP Fit Center  107 is at   0.909390 -2.539220  2.373450
      ESP Fit Center  108 is at  -2.005091 -2.187553  1.814757
      ESP Fit Center  109 is at  -1.697501 -2.878412  1.814757
      ESP Fit Center  110 is at   0.334570 -3.037304 -0.843936
      ESP Fit Center  111 is at   1.110454 -1.229527  2.432905
      ESP Fit Center  112 is at   1.828696 -1.229527  2.306260
      ESP Fit Center  113 is at   1.469575 -1.851543  2.306260
      ESP Fit Center  114 is at   2.460308 -1.229527  1.941598
      ESP Fit Center  115 is at   1.671204 -2.457397  1.941598
      ESP Fit Center  116 is at   1.469575 -0.607511 -1.640449
      ESP Fit Center  117 is at   0.751333 -0.607511 -1.640449
      ESP Fit Center  118 is at   0.392212 -1.229527 -1.640449
      ESP Fit Center  119 is at   2.846631 -2.058804  1.824653
      ESP Fit Center  120 is at   1.769268 -2.680820  1.824653
      ESP Fit Center  121 is at   2.487510 -2.680820  1.824653
      ESP Fit Center  122 is at   1.936285 -3.394918  1.459991
      ESP Fit Center  123 is at   2.689139 -3.286674  1.459991
      ESP Fit Center  124 is at   3.263959 -2.788590  1.459991
      ESP Fit Center  125 is at   3.345306 -3.410327  0.901298
      ESP Fit Center  126 is at   3.656731 -3.452071  0.215959
      ESP Fit Center  127 is at   1.244423 -1.038652 -1.757395
      ESP Fit Center  128 is at   0.833214 -1.678506 -1.757395
      ESP Fit Center  129 is at   0.833214 -2.439102 -1.757395
      ESP Fit Center  130 is at   1.244423 -3.078955 -1.757395
      ESP Fit Center  131 is at   2.689139 -3.286674 -1.757395
      ESP Fit Center  132 is at   1.769268 -1.436788 -2.122056
      ESP Fit Center  133 is at   1.410147 -2.058804 -2.122056
      ESP Fit Center  134 is at   1.769268 -2.680820 -2.122056
      ESP Fit Center  135 is at   2.487510 -2.680820 -2.122056
      ESP Fit Center  136 is at   2.128389 -2.058804 -2.248702
      ESP Fit Center  137 is at   3.350858 -1.520816  1.542759
      ESP Fit Center  138 is at   4.069100 -1.520816  1.416114
      ESP Fit Center  139 is at   2.991737 -0.898800  1.416114
      ESP Fit Center  140 is at   3.709979 -2.142832  1.416114
      ESP Fit Center  141 is at   4.700712 -1.520816  1.051452
      ESP Fit Center  142 is at   3.911608 -2.748686  1.051452
      ESP Fit Center  143 is at   4.486428 -2.250602  1.051452
      ESP Fit Center  144 is at   5.169512 -1.520816  0.492759
      ESP Fit Center  145 is at   3.912853 -3.250458  0.492759
      ESP Fit Center  146 is at   2.055683 -1.140518 -2.165934
      ESP Fit Center  147 is at   2.466892 -2.540967 -2.165934
      ESP Fit Center  148 is at   3.158754 -2.856930 -2.165934
      ESP Fit Center  149 is at   4.069100 -1.520816 -2.530595
      ESP Fit Center  150 is at   3.709979 -0.898800 -2.530595
      ESP Fit Center  151 is at   2.991737 -0.898800 -2.530595
      ESP Fit Center  152 is at   2.632616 -1.520816 -2.530595
      ESP Fit Center  153 is at   2.991737 -2.142832 -2.530595
      ESP Fit Center  154 is at   3.350858 -1.520816 -2.657241
      ESP Fit Center  155 is at   4.291555 -0.146681  1.481215
      ESP Fit Center  156 is at   3.214192 -0.768697  1.481215
      ESP Fit Center  157 is at   3.932434 -0.768697  1.481215
      ESP Fit Center  158 is at   4.923167 -0.146681  1.116553
      ESP Fit Center  159 is at   4.708883  0.583105  1.116553
      ESP Fit Center  160 is at   4.708883 -0.876467  1.116553
      ESP Fit Center  161 is at   5.234736 -0.886394  0.557860
      ESP Fit Center  162 is at   3.381209  1.189434 -2.100833
      ESP Fit Center  163 is at   2.689347  0.873471 -2.100833
      ESP Fit Center  164 is at   2.278138  0.233617 -2.100833
      ESP Fit Center  165 is at   2.278138 -0.526979 -2.100833
      ESP Fit Center  166 is at   4.708883 -0.876467 -2.100833
      ESP Fit Center  167 is at   4.291555 -0.146681 -2.465494
      ESP Fit Center  168 is at   3.932434  0.475335 -2.465494
      ESP Fit Center  169 is at   3.214192  0.475335 -2.465494
      ESP Fit Center  170 is at   2.855071 -0.146681 -2.465494
      ESP Fit Center  171 is at   3.932434 -0.768697 -2.465494
      ESP Fit Center  172 is at   3.573313 -0.146681 -2.592140
      ESP Fit Center  173 is at   2.552356  0.674085  2.090739
      ESP Fit Center  174 is at   3.270598  0.674085  1.964094
      ESP Fit Center  175 is at   2.911477  0.052069  1.964094
      ESP Fit Center  176 is at   3.902210  0.674085  1.599432
      ESP Fit Center  177 is at   3.113106 -0.553785  1.599432
      ESP Fit Center  178 is at   1.257181  1.054383 -1.617954
      ESP Fit Center  179 is at   1.668390 -0.346066 -1.617954
      ESP Fit Center  180 is at   2.193235  1.296101 -1.982615
      ESP Fit Center  181 is at   1.834114  0.674085 -1.982615
      ESP Fit Center  182 is at   1.329557  0.154848  2.504045
      ESP Fit Center  183 is at   2.047799  0.154848  2.377400
      ESP Fit Center  184 is at   1.688678  0.776864  2.377400
      ESP Fit Center  185 is at   0.611315  0.154848  2.377400
      ESP Fit Center  186 is at   0.970436 -0.467168  2.377400
      ESP Fit Center  187 is at   1.688678 -0.467168  2.377400
      ESP Fit Center  188 is at   2.465127 -0.574938  2.012738
      ESP Fit Center  189 is at   0.420230  1.729848 -0.645955
      ESP Fit Center  190 is at   0.445591  1.175000 -1.204648
      ESP Fit Center  191 is at   0.034382  0.535146 -1.204648
      ESP Fit Center  192 is at   0.034382 -0.225450 -1.204648
      ESP Fit Center  193 is at   0.970436  0.776864 -1.569309
      ESP Fit Center  194 is at   0.611315  0.154848 -1.569309
      ESP Fit Center  195 is at   1.688678 -0.467168 -1.569309
      ESP Fit Center  196 is at   1.329557  0.154848 -1.695955
      ESP Fit Center  197 is at   2.825557  2.412068  2.464028
      ESP Fit Center  198 is at   3.561017  2.412068  2.347543
      ESP Fit Center  199 is at   3.193287  3.048996  2.347543
      ESP Fit Center  200 is at   2.457827  3.048996  2.347543
      ESP Fit Center  201 is at   2.090097  2.412068  2.347543
      ESP Fit Center  202 is at   2.457827  1.775141  2.347543
      ESP Fit Center  203 is at   3.193287  1.775141  2.347543
      ESP Fit Center  204 is at   4.224486  2.412068  2.009489
      ESP Fit Center  205 is at   4.037065  3.111533  2.009489
      ESP Fit Center  206 is at   3.525021  3.623576  2.009489
      ESP Fit Center  207 is at   2.825557  3.810997  2.009489
      ESP Fit Center  208 is at   2.126093  3.623576  2.009489
      ESP Fit Center  209 is at   1.614049  3.111533  2.009489
      ESP Fit Center  210 is at   1.426628  2.412068  2.009489
      ESP Fit Center  211 is at   1.614049  1.712604  2.009489
      ESP Fit Center  212 is at   3.525021  1.200560  2.009489
      ESP Fit Center  213 is at   4.037065  1.712604  2.009489
      ESP Fit Center  214 is at   4.751017  2.412068  1.482957
      ESP Fit Center  215 is at   4.604450  3.148910  1.482957
      ESP Fit Center  216 is at   4.187063  3.773574  1.482957
      ESP Fit Center  217 is at   3.562399  4.190962  1.482957
      ESP Fit Center  218 is at   2.825557  4.337529  1.482957
      ESP Fit Center  219 is at   2.088715  4.190962  1.482957
      ESP Fit Center  220 is at   1.464051  3.773574  1.482957
      ESP Fit Center  221 is at   1.046663  3.148910  1.482957
      ESP Fit Center  222 is at   0.900097  2.412068  1.482957
      ESP Fit Center  223 is at   4.187063  1.050562  1.482957
      ESP Fit Center  224 is at   4.604450  1.675226  1.482957
      ESP Fit Center  225 is at   5.089071  2.412068  0.819489
      ESP Fit Center  226 is at   4.966428  3.147030  0.819489
      ESP Fit Center  227 is at   4.611788  3.802348  0.819489
      ESP Fit Center  228 is at   4.063582  4.307007  0.819489
      ESP Fit Center  229 is at   3.381217  4.606320  0.819489
      ESP Fit Center  230 is at   2.638637  4.667852  0.819489
      ESP Fit Center  231 is at   1.916314  4.484934  0.819489
      ESP Fit Center  232 is at   1.292520  4.077390  0.819489
      ESP Fit Center  233 is at   0.834855  3.489382  0.819489
      ESP Fit Center  234 is at   0.592914  2.784630  0.819489
      ESP Fit Center  235 is at   4.966428  1.677106  0.819489
      ESP Fit Center  236 is at   5.205557  2.412068  0.084028
      ESP Fit Center  237 is at   5.099820  3.113586  0.084028
      ESP Fit Center  238 is at   4.792005  3.752770  0.084028
      ESP Fit Center  239 is at   4.309463  4.272827  0.084028
      ESP Fit Center  240 is at   3.695069  4.627548  0.084028
      ESP Fit Center  241 is at   3.003415  4.785413  0.084028
      ESP Fit Center  242 is at   2.295957  4.732397  0.084028
      ESP Fit Center  243 is at   1.635557  4.473209  0.084028
      ESP Fit Center  244 is at   1.080894  4.030879  0.084028
      ESP Fit Center  245 is at   0.681251  3.444711  0.084028
      ESP Fit Center  246 is at   0.472140  2.766789  0.084028
      ESP Fit Center  247 is at   5.099820  1.710551  0.084028
      ESP Fit Center  248 is at   5.089071  2.412068 -0.651432
      ESP Fit Center  249 is at   4.966428  3.147030 -0.651432
      ESP Fit Center  250 is at   4.611788  3.802348 -0.651432
      ESP Fit Center  251 is at   4.063582  4.307007 -0.651432
      ESP Fit Center  252 is at   3.381217  4.606320 -0.651432
      ESP Fit Center  253 is at   2.638637  4.667852 -0.651432
      ESP Fit Center  254 is at   1.916314  4.484934 -0.651432
      ESP Fit Center  255 is at   1.292520  4.077390 -0.651432
      ESP Fit Center  256 is at   0.834855  3.489382 -0.651432
      ESP Fit Center  257 is at   0.592914  2.784630 -0.651432
      ESP Fit Center  258 is at   0.592914  2.039506 -0.651432
      ESP Fit Center  259 is at   4.751017  2.412068 -1.314901
      ESP Fit Center  260 is at   4.604450  3.148910 -1.314901
      ESP Fit Center  261 is at   4.187063  3.773574 -1.314901
      ESP Fit Center  262 is at   3.562399  4.190962 -1.314901
      ESP Fit Center  263 is at   2.825557  4.337529 -1.314901
      ESP Fit Center  264 is at   2.088715  4.190962 -1.314901
      ESP Fit Center  265 is at   1.464051  3.773574 -1.314901
      ESP Fit Center  266 is at   1.046663  3.148910 -1.314901
      ESP Fit Center  267 is at   0.900097  2.412068 -1.314901
      ESP Fit Center  268 is at   1.046663  1.675226 -1.314901
      ESP Fit Center  269 is at   4.224486  2.412068 -1.841432
      ESP Fit Center  270 is at   4.037065  3.111533 -1.841432
      ESP Fit Center  271 is at   3.525021  3.623576 -1.841432
      ESP Fit Center  272 is at   2.825557  3.810997 -1.841432
      ESP Fit Center  273 is at   2.126093  3.623576 -1.841432
      ESP Fit Center  274 is at   1.614049  3.111533 -1.841432
      ESP Fit Center  275 is at   1.426628  2.412068 -1.841432
      ESP Fit Center  276 is at   1.614049  1.712604 -1.841432
      ESP Fit Center  277 is at   4.037065  1.712604 -1.841432
      ESP Fit Center  278 is at   3.561017  2.412068 -2.179486
      ESP Fit Center  279 is at   3.193287  3.048996 -2.179486
      ESP Fit Center  280 is at   2.457827  3.048996 -2.179486
      ESP Fit Center  281 is at   2.090097  2.412068 -2.179486
      ESP Fit Center  282 is at   2.457827  1.775141 -2.179486
      ESP Fit Center  283 is at   3.193287  1.775141 -2.179486
      ESP Fit Center  284 is at   2.825557  2.412068 -2.295972
      ESP Fit Center  285 is at  -7.024295 -0.184083  0.685519
      ESP Fit Center  286 is at  -6.773443 -0.956126  0.685519
      ESP Fit Center  287 is at  -6.116705 -1.433274  0.685519
      ESP Fit Center  288 is at  -5.304931 -1.433274  0.685519
      ESP Fit Center  289 is at  -7.301103  0.207887  0.011891
      ESP Fit Center  290 is at  -7.301103 -0.576053  0.011891
      ESP Fit Center  291 is at  -6.936788 -1.270198  0.011891
      ESP Fit Center  292 is at  -6.291618 -1.715527  0.011891
      ESP Fit Center  293 is at  -5.513393 -1.810020  0.011891
      ESP Fit Center  294 is at  -4.780397 -1.532031  0.011891
      ESP Fit Center  295 is at  -7.301103  0.207887 -0.735779
      ESP Fit Center  296 is at  -7.301103 -0.576053 -0.735779
      ESP Fit Center  297 is at  -6.936788 -1.270198 -0.735779
      ESP Fit Center  298 is at  -6.291618 -1.715527 -0.735779
      ESP Fit Center  299 is at  -5.513393 -1.810020 -0.735779
      ESP Fit Center  300 is at  -4.780397 -1.532031 -0.735779
      ESP Fit Center  301 is at  -6.773443  0.587959 -1.409407
      ESP Fit Center  302 is at  -7.024295 -0.184083 -1.409407
      ESP Fit Center  303 is at  -6.773443 -0.956126 -1.409407
      ESP Fit Center  304 is at  -6.116705 -1.433274 -1.409407
      ESP Fit Center  305 is at  -5.304931 -1.433274 -1.409407
      ESP Fit Center  306 is at  -6.075280  0.447184 -1.875572
      ESP Fit Center  307 is at  -6.439743 -0.184083 -1.875572
      ESP Fit Center  308 is at  -6.075280 -0.815351 -1.875572
      ESP Fit Center  309 is at  -5.346356 -0.815351 -1.875572
      ESP Fit Center  310 is at  -5.710818 -0.184083 -2.041944
      ESP Fit Center  311 is at  -4.867711  0.329852  2.797494
      ESP Fit Center  312 is at  -4.138786  0.329852  2.631122
      ESP Fit Center  313 is at  -4.503249  0.961119  2.631122
      ESP Fit Center  314 is at  -5.232173  0.961119  2.631122
      ESP Fit Center  315 is at  -5.596636  0.329852  2.631122
      ESP Fit Center  316 is at  -5.232173 -0.301415  2.631122
      ESP Fit Center  317 is at  -4.503249 -0.301415  2.631122
      ESP Fit Center  318 is at  -3.805086  1.101894  2.164957
      ESP Fit Center  319 is at  -4.461824  1.579043  2.164957
      ESP Fit Center  320 is at  -5.273598  1.579043  2.164957
      ESP Fit Center  321 is at  -5.930336  1.101894  2.164957
      ESP Fit Center  322 is at  -6.181188  0.329852  2.164957
      ESP Fit Center  323 is at  -5.930336 -0.442191  2.164957
      ESP Fit Center  324 is at  -5.273598 -0.919339  2.164957
      ESP Fit Center  325 is at  -4.461824 -0.919339  2.164957
      ESP Fit Center  326 is at  -3.805086 -0.442191  2.164957
      ESP Fit Center  327 is at  -3.937290  1.677800  1.491329
      ESP Fit Center  328 is at  -6.093681 -0.756263  1.491329
      ESP Fit Center  329 is at  -5.448511 -1.201592  1.491329
      ESP Fit Center  330 is at  -4.670286 -1.296085  1.491329
      ESP Fit Center  331 is at  -3.937290 -1.018096  1.491329
      ESP Fit Center  332 is at  -4.670286 -1.296085  0.743659
      ESP Fit Center  333 is at  -5.502451  2.116839  1.726023
      ESP Fit Center  334 is at  -6.231375  2.116839  1.726023
      ESP Fit Center  335 is at  -6.595838  1.485572  1.726023
      ESP Fit Center  336 is at  -5.461026  2.734763  1.259858
      ESP Fit Center  337 is at  -6.272800  2.734763  1.259858
      ESP Fit Center  338 is at  -6.929538  2.257614  1.259858
      ESP Fit Center  339 is at  -7.180390  1.485572  1.259858
      ESP Fit Center  340 is at  -4.936492  2.833520  0.586230
      ESP Fit Center  341 is at  -5.669489  3.111509  0.586230
      ESP Fit Center  342 is at  -6.447713  3.017015  0.586230
      ESP Fit Center  343 is at  -7.092883  2.571686  0.586230
      ESP Fit Center  344 is at  -7.457198  1.877542  0.586230
      ESP Fit Center  345 is at  -7.457198  1.093602  0.586230
      ESP Fit Center  346 is at  -4.936492  2.833520 -0.161440
      ESP Fit Center  347 is at  -5.669489  3.111509 -0.161440
      ESP Fit Center  348 is at  -6.447713  3.017015 -0.161440
      ESP Fit Center  349 is at  -7.092883  2.571686 -0.161440
      ESP Fit Center  350 is at  -7.457198  1.877542 -0.161440
      ESP Fit Center  351 is at  -7.457198  1.093602 -0.161440
      ESP Fit Center  352 is at  -5.461026  2.734763 -0.835068
      ESP Fit Center  353 is at  -6.272800  2.734763 -0.835068
      ESP Fit Center  354 is at  -6.929538  2.257614 -0.835068
      ESP Fit Center  355 is at  -7.180390  1.485572 -0.835068
      ESP Fit Center  356 is at  -6.231375  2.116839 -1.301233
      ESP Fit Center  357 is at  -6.595838  1.485572 -1.301233
      ESP Fit Center  358 is at  -4.824435  2.943398 -1.323694
      ESP Fit Center  359 is at  -5.469605  2.498069 -1.323694
      ESP Fit Center  360 is at  -2.793365  2.173115 -2.071364
      ESP Fit Center  361 is at  -3.313214  2.759903 -2.071364
      ESP Fit Center  362 is at  -4.046211  3.037892 -2.071364
      ESP Fit Center  363 is at  -4.824435  2.943398 -2.071364
      ESP Fit Center  364 is at  -5.469605  2.498069 -2.071364
      ESP Fit Center  365 is at  -5.833920  1.803925 -2.071364
      ESP Fit Center  366 is at  -5.833920  1.019985 -2.071364
      ESP Fit Center  367 is at  -5.469605  0.325840 -2.071364
      ESP Fit Center  368 is at  -2.930158  1.411955 -2.744992
      ESP Fit Center  369 is at  -3.181010  2.183997 -2.744992
      ESP Fit Center  370 is at  -3.837748  2.661146 -2.744992
      ESP Fit Center  371 is at  -4.649522  2.661146 -2.744992
      ESP Fit Center  372 is at  -5.306260  2.183997 -2.744992
      ESP Fit Center  373 is at  -5.557112  1.411955 -2.744992
      ESP Fit Center  374 is at  -5.306260  0.639912 -2.744992
      ESP Fit Center  375 is at  -4.649522  0.162764 -2.744992
      ESP Fit Center  376 is at  -3.514710  1.411955 -3.211157
      ESP Fit Center  377 is at  -3.879173  2.043222 -3.211157
      ESP Fit Center  378 is at  -4.608097  2.043222 -3.211157
      ESP Fit Center  379 is at  -4.972560  1.411955 -3.211157
      ESP Fit Center  380 is at  -4.608097  0.780688 -3.211157
      ESP Fit Center  381 is at  -3.879173  0.780688 -3.211157
      ESP Fit Center  382 is at  -4.243635  1.411955 -3.377529
      ESP Fit Center  383 is at  -3.415643  1.869109  1.474648
      ESP Fit Center  384 is at  -3.051181  2.500376  1.308276
      ESP Fit Center  385 is at  -3.780105  2.500376  1.308276
      ESP Fit Center  386 is at  -2.353018  2.641151  0.842111
      ESP Fit Center  387 is at  -3.009756  3.118300  0.842111
      ESP Fit Center  388 is at  -3.821530  3.118300  0.842111
      ESP Fit Center  389 is at  -4.478268  2.641151  0.842111
      ESP Fit Center  390 is at  -1.965373  2.630269  0.168483
      ESP Fit Center  391 is at  -2.485222  3.217057  0.168483
      ESP Fit Center  392 is at  -3.218219  3.495046  0.168483
      ESP Fit Center  393 is at  -3.996443  3.400552  0.168483
      ESP Fit Center  394 is at  -4.641613  2.955223  0.168483
      ESP Fit Center  395 is at  -1.777764  1.869109 -0.579187
      ESP Fit Center  396 is at  -1.965373  2.630269 -0.579187
      ESP Fit Center  397 is at  -2.485222  3.217057 -0.579187
      ESP Fit Center  398 is at  -3.218219  3.495046 -0.579187
      ESP Fit Center  399 is at  -3.996443  3.400552 -0.579187
      ESP Fit Center  400 is at  -2.353018  2.641151 -1.252815
      ESP Fit Center  401 is at  -3.009756  3.118300 -1.252815
      ESP Fit Center  402 is at  -3.821530  3.118300 -1.252815
      ESP Fit Center  403 is at  -4.334688 -1.561830 -0.434332
      ESP Fit Center  404 is at  -3.677950 -2.038979 -0.434332
      ESP Fit Center  405 is at  -4.498033 -1.875903 -1.107960
      ESP Fit Center  406 is at  -3.852863 -2.321231 -1.107960
      ESP Fit Center  407 is at  -3.074638 -2.415725 -1.107960
      ESP Fit Center  408 is at  -4.862348 -1.181758 -1.855630
      ESP Fit Center  409 is at  -4.498033 -1.875903 -1.855630
      ESP Fit Center  410 is at  -3.852863 -2.321231 -1.855630
      ESP Fit Center  411 is at  -3.074638 -2.415725 -1.855630
      ESP Fit Center  412 is at  -4.585540 -0.789788 -2.529258
      ESP Fit Center  413 is at  -4.334688 -1.561830 -2.529258
      ESP Fit Center  414 is at  -3.677950 -2.038979 -2.529258
      ESP Fit Center  415 is at  -2.866176 -2.038979 -2.529258
      ESP Fit Center  416 is at  -2.209438 -1.561830 -2.529258
      ESP Fit Center  417 is at  -2.543138 -0.789788 -2.995423
      ESP Fit Center  418 is at  -2.907601 -0.158521 -2.995423
      ESP Fit Center  419 is at  -3.636525 -0.158521 -2.995423
      ESP Fit Center  420 is at  -4.000988 -0.789788 -2.995423
      ESP Fit Center  421 is at  -3.636525 -1.421055 -2.995423
      ESP Fit Center  422 is at  -2.907601 -1.421055 -2.995423
      ESP Fit Center  423 is at  -3.272063 -0.789788 -3.161795
      ESP Fit Center  424 is at  -2.446585 -2.829119 -1.463852
      ESP Fit Center  425 is at  -1.801415 -3.274447 -1.463852
      ESP Fit Center  426 is at  -1.023190 -3.368941 -1.463852
      ESP Fit Center  427 is at  -0.290194 -3.090952 -1.463852
      ESP Fit Center  428 is at   0.229655 -2.504164 -1.463852
      ESP Fit Center  429 is at   0.092862 -1.743004 -2.137480
      ESP Fit Center  430 is at  -0.157990 -0.970962 -2.137480
      ESP Fit Center  431 is at  -0.814728 -0.493813 -2.137480
      ESP Fit Center  432 is at  -2.283240 -2.515046 -2.137480
      ESP Fit Center  433 is at  -1.626502 -2.992195 -2.137480
      ESP Fit Center  434 is at  -0.814728 -2.992195 -2.137480
      ESP Fit Center  435 is at  -0.157990 -2.515046 -2.137480
      ESP Fit Center  436 is at  -0.491690 -1.743004 -2.603645
      ESP Fit Center  437 is at  -0.856152 -1.111737 -2.603645
      ESP Fit Center  438 is at  -1.585077 -1.111737 -2.603645
      ESP Fit Center  439 is at  -1.949540 -1.743004 -2.603645
      ESP Fit Center  440 is at  -1.585077 -2.374271 -2.603645
      ESP Fit Center  441 is at  -0.856152 -2.374271 -2.603645
      ESP Fit Center  442 is at  -1.220615 -1.743004 -2.770017
      ESP Fit Center  443 is at  -0.503823 -1.433303  3.431958
      ESP Fit Center  444 is at   0.225102 -1.433303  3.265586
      ESP Fit Center  445 is at  -0.139361 -0.802036  3.265586
      ESP Fit Center  446 is at  -0.868285 -0.802036  3.265586
      ESP Fit Center  447 is at  -1.232748 -1.433303  3.265586
      ESP Fit Center  448 is at  -0.868285 -2.064570  3.265586
      ESP Fit Center  449 is at  -0.139361 -2.064570  3.265586
      ESP Fit Center  450 is at   0.809654 -1.433303  2.799421
      ESP Fit Center  451 is at   0.558802 -0.661261  2.799421
      ESP Fit Center  452 is at  -0.097936 -0.184112  2.799421
      ESP Fit Center  453 is at  -0.909710 -0.184112  2.799421
      ESP Fit Center  454 is at  -1.566448 -0.661261  2.799421
      ESP Fit Center  455 is at  -1.817300 -1.433303  2.799421
      ESP Fit Center  456 is at  -1.566448 -2.205345  2.799421
      ESP Fit Center  457 is at  -0.909710 -2.682494  2.799421
      ESP Fit Center  458 is at  -0.097936 -2.682494  2.799421
      ESP Fit Center  459 is at   0.558802 -2.205345  2.799421
      ESP Fit Center  460 is at  -2.094108 -1.825273  2.125793
      ESP Fit Center  461 is at  -1.729793 -2.519418  2.125793
      ESP Fit Center  462 is at  -0.515848 -3.532105  2.341147
      ESP Fit Center  463 is at   0.213077 -3.532105  2.341147
      ESP Fit Center  464 is at  -1.214011 -3.672880  1.874982
      ESP Fit Center  465 is at  -0.557272 -4.150029  1.874982
      ESP Fit Center  466 is at   0.254501 -4.150029  1.874982
      ESP Fit Center  467 is at   0.911239 -3.672880  1.874982
      ESP Fit Center  468 is at  -1.741671 -3.292808  1.201354
      ESP Fit Center  469 is at  -1.377356 -3.986953  1.201354
      ESP Fit Center  470 is at  -0.732186 -4.432281  1.201354
      ESP Fit Center  471 is at   0.046039 -4.526775  1.201354
      ESP Fit Center  472 is at   0.779035 -4.248786  1.201354
      ESP Fit Center  473 is at  -1.377356 -3.986953  0.453684
      ESP Fit Center  474 is at  -0.732186 -4.432281  0.453684
      ESP Fit Center  475 is at   0.046039 -4.526775  0.453684
      ESP Fit Center  476 is at   0.779035 -4.248786  0.453684
      ESP Fit Center  477 is at  -1.214011 -3.672880 -0.219944
      ESP Fit Center  478 is at  -0.557272 -4.150029 -0.219944
      ESP Fit Center  479 is at   0.254501 -4.150029 -0.219944
      ESP Fit Center  480 is at  -0.515848 -3.532105 -0.686109
      ESP Fit Center  481 is at   0.213077 -3.532105 -0.686109
      ESP Fit Center  482 is at   1.602302 -3.764423  1.313313
      ESP Fit Center  483 is at   2.331227 -3.764423  1.313313
      ESP Fit Center  484 is at   1.560878 -4.382347  0.847148
      ESP Fit Center  485 is at   2.372651 -4.382347  0.847148
      ESP Fit Center  486 is at   3.029389 -3.905198  0.847148
      ESP Fit Center  487 is at   0.740794 -4.219270  0.173520
      ESP Fit Center  488 is at   1.385964 -4.664599  0.173520
      ESP Fit Center  489 is at   2.164189 -4.759093  0.173520
      ESP Fit Center  490 is at   2.897185 -4.481104  0.173520
      ESP Fit Center  491 is at   3.417034 -3.894316  0.173520
      ESP Fit Center  492 is at   0.740794 -4.219270 -0.574150
      ESP Fit Center  493 is at   1.385964 -4.664599 -0.574150
      ESP Fit Center  494 is at   2.164189 -4.759093 -0.574150
      ESP Fit Center  495 is at   2.897185 -4.481104 -0.574150
      ESP Fit Center  496 is at   3.417034 -3.894316 -0.574150
      ESP Fit Center  497 is at   0.653287 -3.133156 -1.247778
      ESP Fit Center  498 is at   0.904139 -3.905198 -1.247778
      ESP Fit Center  499 is at   1.560878 -4.382347 -1.247778
      ESP Fit Center  500 is at   2.372651 -4.382347 -1.247778
      ESP Fit Center  501 is at   3.029389 -3.905198 -1.247778
      ESP Fit Center  502 is at   1.602302 -3.764423 -1.713943
      ESP Fit Center  503 is at   2.331227 -3.764423 -1.713943
      ESP Fit Center  504 is at   5.449776 -2.173551  0.119067
      ESP Fit Center  505 is at   4.542186 -3.422742  0.119067
      ESP Fit Center  506 is at   5.198924 -2.945593  0.119067
      ESP Fit Center  507 is at   5.774178 -2.173551 -0.554561
      ESP Fit Center  508 is at   5.586569 -1.412390 -0.554561
      ESP Fit Center  509 is at   3.555499 -3.704994 -0.554561
      ESP Fit Center  510 is at   4.333724 -3.799488 -0.554561
      ESP Fit Center  511 is at   5.066720 -3.521499 -0.554561
      ESP Fit Center  512 is at   5.586569 -2.934711 -0.554561
      ESP Fit Center  513 is at   5.774178 -2.173551 -1.302231
      ESP Fit Center  514 is at   5.586569 -1.412390 -1.302231
      ESP Fit Center  515 is at   3.555499 -3.704994 -1.302231
      ESP Fit Center  516 is at   4.333724 -3.799488 -1.302231
      ESP Fit Center  517 is at   5.066720 -3.521499 -1.302231
      ESP Fit Center  518 is at   5.586569 -2.934711 -1.302231
      ESP Fit Center  519 is at   5.449776 -2.173551 -1.975859
      ESP Fit Center  520 is at   5.198924 -1.401508 -1.975859
      ESP Fit Center  521 is at   3.730413 -3.422742 -1.975859
      ESP Fit Center  522 is at   4.542186 -3.422742 -1.975859
      ESP Fit Center  523 is at   5.198924 -2.945593 -1.975859
      ESP Fit Center  524 is at   4.865224 -2.173551 -2.442024
      ESP Fit Center  525 is at   4.500762 -1.542283 -2.442024
      ESP Fit Center  526 is at   3.771837 -2.804818 -2.442024
      ESP Fit Center  527 is at   4.500762 -2.804818 -2.442024
      ESP Fit Center  528 is at   4.136299 -2.173551 -2.608396
      ESP Fit Center  529 is at   5.246797  0.284932  0.708229
      ESP Fit Center  530 is at   5.831349  0.284932  0.242064
      ESP Fit Center  531 is at   5.580497  1.056975  0.242064
      ESP Fit Center  532 is at   5.580497 -0.487110  0.242064
      ESP Fit Center  533 is at   6.155751  0.284932 -0.431564
      ESP Fit Center  534 is at   5.968142  1.046093 -0.431564
      ESP Fit Center  535 is at   5.448293  1.632880 -0.431564
      ESP Fit Center  536 is at   5.968142 -0.476228 -0.431564
      ESP Fit Center  537 is at   6.155751  0.284932 -1.179234
      ESP Fit Center  538 is at   5.968142  1.046093 -1.179234
      ESP Fit Center  539 is at   5.448293  1.632880 -1.179234
      ESP Fit Center  540 is at   5.448293 -1.063016 -1.179234
      ESP Fit Center  541 is at   5.968142 -0.476228 -1.179234
      ESP Fit Center  542 is at   5.831349  0.284932 -1.852862
[...]
 2705 Fit      -0.027646
 2706 Fit      -0.029115
 2707 Fit      -0.029087
 2708 Fit      -0.028001
 2709 Fit      -0.026217
 2710 Fit      -0.023910
 2711 Fit      -0.013724
 2712 Fit      -0.012839
 2713 Fit      -0.027303
 2714 Fit      -0.028032
 2715 Fit      -0.027128
 2716 Fit      -0.025148
 2717 Fit      -0.026106
 2718 Fit      -0.024704
 2719 Fit      -0.023382
 2720 Fit      -0.006590
 2721 Fit      -0.004789
 2722 Fit      -0.003300
 2723 Fit      -0.001498
 2724 Fit      -0.000736
 2725 Fit       0.001482
 2726 Fit       0.002225
 2727 Fit       0.001760
 2728 Fit       0.002782
 2729 Fit       0.005518
 2730 Fit       0.009234
 2731 Fit       0.006816
 2732 Fit       0.005838
 2733 Fit       0.006639
 2734 Fit       0.009133
 2735 Fit       0.015078
 2736 Fit       0.011777
 2737 Fit       0.010903
 2738 Fit       0.012054
 2739 Fit       0.014699
 2740 Fit       0.017948
 2741 Fit       0.016668
 2742 Fit       0.017543
 2743 Fit       0.019594
 2744 Fit       0.021851
 2745 Fit       0.001955
 2746 Fit       0.001872
 2747 Fit       0.001609
 2748 Fit      -0.000382
 2749 Fit       0.000865
 2750 Fit       0.003139
 2751 Fit       0.004292
 2752 Fit       0.003933
 2753 Fit       0.001873
 2754 Fit      -0.001619
 2755 Fit      -0.003709
 2756 Fit       0.000015
 2757 Fit       0.003164
 2758 Fit       0.005218
 2759 Fit      -0.001273
 2760 Fit       0.002357
 2761 Fit       0.001930
 2762 Fit      -0.008375
 2763 Fit      -0.010715
 2764 Fit      -0.002789
 2765 Fit      -0.007110
 2766 Fit      -0.012852
 2767 Fit       0.000351
 2768 Fit      -0.008298
 2769 Fit      -0.004193
 2770 Fit      -0.009115
 2771 Fit      -0.012596
 2772 Fit       0.001165
 2773 Fit      -0.001865
 2774 Fit      -0.005358
 2775 Fit       0.004157
 2776 Fit       0.001297
 2777 Fit      -0.001785
 2778 Fit      -0.005228
 2779 Fit       0.005200
 2780 Fit       0.002450
 2781 Fit      -0.000460
 2782 Fit       0.006732
 2783 Fit       0.004493
 2784 Fit       0.009513
 2785 Fit       0.020328
 2786 Fit       0.018080
 2787 Fit       0.014383
 2788 Fit       0.012367
 2789 Fit       0.011250
 2790 Fit      -0.002998
 2791 Fit       0.004305
 2792 Fit       0.010429
 2793 Fit       0.011303
 2794 Fit       0.009828
 2795 Fit       0.008490
 2796 Fit       0.004396
 2797 Fit       0.005707
 2798 Fit      -0.010875
 2799 Fit      -0.008712
 2800 Fit      -0.005497
 2801 Fit      -0.006616
 2802 Fit      -0.005920
 2803 Fit      -0.001516
 2804 Fit      -0.002520
 2805 Fit      -0.003943
 2806 Fit      -0.002516
 2807 Fit       0.002852
 2808 Fit       0.001739
 2809 Fit       0.000577
 2810 Fit      -0.000820
 2811 Fit       0.001340
 2812 Fit       0.007239
 2813 Fit       0.005992
 2814 Fit       0.003890
 2815 Fit       0.002629
 2816 Fit       0.005293
 2817 Fit      -0.005741
 2818 Fit       0.008067
 2819 Fit       0.009107
 2820 Fit       0.005276
 2821 Fit      -0.003752
 2822 Fit      -0.000414
 2823 Fit       0.002499
 2824 Fit       0.004595
 2825 Fit       0.006089
 2826 Fit       0.006927
 2827 Fit       0.002714
 2828 Fit      -0.000452
 2829 Fit      -0.002353
 2830 Fit      -0.000377
 2831 Fit       0.002449
 2832 Fit       0.003803
 2833 Fit       0.000747
 2834 Fit      -0.013264
 2835 Fit      -0.013472
 2836 Fit      -0.010642
 2837 Fit      -0.010359
 2838 Fit      -0.007598
 2839 Fit      -0.009406
 2840 Fit      -0.007139
 2841 Fit      -0.004136
 2842 Fit      -0.005775
 2843 Fit      -0.003549
 2844 Fit      -0.000336
 2845 Fit       0.000308
 2846 Fit       0.004205
 2847 Fit       0.007132
 2848 Fit       0.003024
 2849 Fit       0.000817
 2850 Fit      -0.002682
 2851 Fit      -0.006094
 2852 Fit      -0.007808
 2853 Fit      -0.007588
 2854 Fit      -0.006197
 2855 Fit       0.003802
 2856 Fit      -0.000003
 2857 Fit      -0.002635
 2858 Fit      -0.005074
 2859 Fit      -0.004785
 2860 Fit      -0.000139
 2861 Fit      -0.002675
 2862 Fit      -0.014677
 2863 Fit      -0.014433
 2864 Fit      -0.008298
 2865 Fit      -0.006900
 2866 Fit      -0.008823
 2867 Fit      -0.013471
 2868 Fit      -0.013848
 2869 Fit      -0.015346
 2870 Fit      -0.016195
 2871 Fit      -0.014572
 2872 Fit      -0.011453
 2873 Fit      -0.014749
 2874 Fit      -0.017662
 2875 Fit      -0.019179
 2876 Fit      -0.013018
 2877 Fit      -0.014492
 2878 Fit      -0.006748
 2879 Fit      -0.004162
 2880 Fit      -0.016318
 2881 Fit      -0.015536
 2882 Fit      -0.015920
 2883 Fit      -0.016733
 2884 Fit      -0.017173
 2885 Fit      -0.016410
 2886 Fit      -0.015653
 2887 Fit      -0.014688
 2888 Fit      -0.014898
 2889 Fit      -0.015133
 2890 Fit      -0.015713
 2891 Fit      -0.016768
 2892 Fit      -0.017909
 2893 Fit      -0.018323
 2894 Fit      -0.017480
 2895 Fit      -0.016418
 2896 Fit      -0.015694
 2897 Fit      -0.014958
 2898 Fit      -0.014581
 2899 Fit      -0.013680
 2900 Fit      -0.013925
 2901 Fit      -0.013971
 2902 Fit      -0.014002
 2903 Fit      -0.014323
 2904 Fit      -0.015129
 2905 Fit      -0.016395
 2906 Fit      -0.017923
 2907 Fit      -0.019393
 2908 Fit      -0.020120
 2909 Fit      -0.014500
 2910 Fit      -0.013586
 2911 Fit      -0.013408
 2912 Fit      -0.012441
 2913 Fit      -0.012853
 2914 Fit      -0.012932
 2915 Fit      -0.012782
 2916 Fit      -0.012669
 2917 Fit      -0.012864
 2918 Fit      -0.013533
 2919 Fit      -0.014690
 2920 Fit      -0.016241
 2921 Fit      -0.018085
 2922 Fit      -0.020184
 2923 Fit      -0.022308
 2924 Fit      -0.012849
 2925 Fit      -0.011822
 2926 Fit      -0.011906
 2927 Fit      -0.010920
 2928 Fit      -0.011662
 2929 Fit      -0.011892
 2930 Fit      -0.011721
 2931 Fit      -0.011423
 2932 Fit      -0.011303
 2933 Fit      -0.011595
 2934 Fit      -0.012406
 2935 Fit      -0.013706
 2936 Fit      -0.015387
 2937 Fit      -0.017379
 2938 Fit      -0.019817
 2939 Fit      -0.023107
 2940 Fit      -0.009328
 2941 Fit      -0.009895
 2942 Fit      -0.009106
 2943 Fit      -0.010337
 2944 Fit      -0.010862
 2945 Fit      -0.010827
 2946 Fit      -0.010505
 2947 Fit      -0.010200
 2948 Fit      -0.010171
 2949 Fit      -0.010585
 2950 Fit      -0.011488
 2951 Fit      -0.012818
 2952 Fit      -0.014453
 2953 Fit      -0.016306
 2954 Fit      -0.018483
 2955 Fit      -0.021532
 2956 Fit      -0.007306
 2957 Fit      -0.007076
 2958 Fit      -0.009008
 2959 Fit      -0.009912
 2960 Fit      -0.010069
 2961 Fit      -0.009817
 2962 Fit      -0.009493
 2963 Fit      -0.009383
 2964 Fit      -0.009677
 2965 Fit      -0.010444
 2966 Fit      -0.011637
 2967 Fit      -0.013121
 2968 Fit      -0.014742
 2969 Fit      -0.016437
 2970 Fit      -0.018411
 2971 Fit      -0.021430
 2972 Fit      -0.003995
 2973 Fit      -0.005092
 2974 Fit      -0.007818
 2975 Fit      -0.009139
 2976 Fit      -0.009536
 2977 Fit      -0.009428
 2978 Fit      -0.009189
 2979 Fit      -0.009120
 2980 Fit      -0.009418
 2981 Fit      -0.010151
 2982 Fit      -0.011265
 2983 Fit      -0.012608
 2984 Fit      -0.013989
 2985 Fit      -0.015259
 2986 Fit      -0.016425
 2987 Fit      -0.017759
 2988 Fit      -0.003649
 2989 Fit      -0.006996
 2990 Fit      -0.008658
 2991 Fit      -0.009283
 2992 Fit      -0.009358
 2993 Fit      -0.009280
 2994 Fit      -0.009354
 2995 Fit      -0.009756
 2996 Fit      -0.010530
 2997 Fit      -0.011586
 2998 Fit      -0.012742
 2999 Fit      -0.013782
 3000 Fit      -0.014542
 3001 Fit      -0.014991
 3002 Fit      -0.015193
 3003 Fit      -0.003271
 3004 Fit      -0.006843
 3005 Fit      -0.008645
 3006 Fit      -0.009391
 3007 Fit      -0.009626
 3008 Fit      -0.009775
 3009 Fit      -0.010119
 3010 Fit      -0.010769
 3011 Fit      -0.011661
 3012 Fit      -0.012600
 3013 Fit      -0.013341
 3014 Fit      -0.013698
 3015 Fit      -0.013643
 3016 Fit      -0.013207
 3017 Fit      -0.004069
 3018 Fit      -0.007213
 3019 Fit      -0.008939
 3020 Fit      -0.009769
 3021 Fit      -0.010189
 3022 Fit      -0.010575
 3023 Fit      -0.011119
 3024 Fit      -0.011814
 3025 Fit      -0.012487
 3026 Fit      -0.012900
 3027 Fit      -0.012879
 3028 Fit      -0.012402
 3029 Fit      -0.011490
 3030 Fit      -0.005602
 3031 Fit      -0.008131
 3032 Fit      -0.009640
 3033 Fit      -0.010468
 3034 Fit      -0.011049
 3035 Fit      -0.011622
 3036 Fit      -0.012138
 3037 Fit      -0.012361
 3038 Fit      -0.012076
 3039 Fit      -0.011270
 3040 Fit      -0.010214
 3041 Fit      -0.007276
 3042 Fit      -0.009251
 3043 Fit      -0.010523
 3044 Fit      -0.011288
 3045 Fit      -0.011719
 3046 Fit      -0.011608
 3047 Fit      -0.010832
 3048 Fit      -0.009855
 3049 Fit      -0.009367
 3050 Fit      -0.005624
 3051 Fit      -0.008702
 3052 Fit      -0.010242
 3053 Fit      -0.010925
 3054 Fit      -0.010400
 3055 Fit      -0.009295
 3056 Fit      -0.008209
 3057 Fit      -0.009736
 3058 Fit       0.002528
 3059 Fit       0.003278
 3060 Fit       0.003918
 3061 Fit       0.004360
 3062 Fit       0.004491
 3063 Fit       0.003641
 3064 Fit       0.004560
 3065 Fit       0.005513
 3066 Fit       0.006451
 3067 Fit       0.007396
 3068 Fit       0.008391
 3069 Fit       0.009359
 3070 Fit       0.005127
 3071 Fit       0.006200
 3072 Fit       0.007393
 3073 Fit       0.008734
 3074 Fit       0.010402
 3075 Fit       0.012801
 3076 Fit       0.006180
 3077 Fit       0.007273
 3078 Fit       0.008617
 3079 Fit       0.010255
 3080 Fit       0.012455
 3081 Fit       0.015897
 3082 Fit       0.007924
 3083 Fit       0.009289
 3084 Fit       0.011211
 3085 Fit       0.014018
 3086 Fit       0.018791
 3087 Fit       0.009653
 3088 Fit       0.010908
 3089 Fit       0.013530
 3090 Fit       0.018270
 3091 Fit       0.013090
 3092 Fit       0.016362
 3093 Fit      -0.010034
 3094 Fit      -0.016440
 3095 Fit      -0.013883
 3096 Fit      -0.008794
 3097 Fit      -0.006339
 3098 Fit      -0.006863
 3099 Fit      -0.011212
 3100 Fit      -0.016701
 3101 Fit      -0.010230
 3102 Fit      -0.006563
 3103 Fit      -0.004660
 3104 Fit      -0.003829
 3105 Fit      -0.004018
 3106 Fit      -0.005869
 3107 Fit      -0.010756
 3108 Fit      -0.018232
 3109 Fit      -0.002267
 3110 Fit      -0.002190
 3111 Fit      -0.002820
 3112 Fit      -0.004780
 3113 Fit      -0.009268
 3114 Fit      -0.000838
 3115 Fit      -0.001271
 3116 Fit      -0.002680
 3117 Fit      -0.005826
 3118 Fit      -0.003596
 3119 Fit      -0.001903
 3120 Fit      -0.001437
 3121 Fit      -0.002475
 3122 Fit      -0.000784
 3123 Fit       0.000110
 3124 Fit       0.000340
 3125 Fit       0.000063
 3126 Fit      -0.002361
 3127 Fit      -0.000606
 3128 Fit       0.000662
 3129 Fit       0.001451
 3130 Fit       0.001788
 3131 Fit       0.001730
 3132 Fit       0.001379
 3133 Fit      -0.000143
 3134 Fit       0.000904
 3135 Fit       0.001888
 3136 Fit       0.002584
 3137 Fit       0.002928
 3138 Fit       0.002928
 3139 Fit       0.002652
 3140 Fit       0.002229
 3141 Fit       0.002653
 3142 Fit       0.003226
 3143 Fit       0.003674
 3144 Fit       0.003872
 3145 Fit       0.003803
 3146 Fit       0.003528
 3147 Fit       0.003195
 3148 Fit       0.004351
 3149 Fit       0.004526
 3150 Fit       0.004661
 3151 Fit       0.004639
 3152 Fit       0.004457
 3153 Fit       0.004221
 3154 Fit       0.005735
 3155 Fit       0.005549
 3156 Fit       0.005351
 3157 Fit       0.006920
 3158 Fit       0.003866
 3159 Fit       0.005482
 3160 Fit       0.006781
 3161 Fit      -0.000482
 3162 Fit       0.001580
 3163 Fit       0.003420
 3164 Fit       0.005033
 3165 Fit       0.006403
 3166 Fit       0.007516
 3167 Fit       0.008435
 3168 Fit       0.009456
 3169 Fit      -0.000395
 3170 Fit       0.001109
 3171 Fit       0.002862
 3172 Fit       0.004595
 3173 Fit       0.006172
 3174 Fit       0.007546
 3175 Fit       0.008790
 3176 Fit       0.010193
 3177 Fit       0.012304
 3178 Fit       0.015721
 3179 Fit       0.020767
 3180 Fit       0.004433
 3181 Fit       0.003712
 3182 Fit       0.004758
 3183 Fit       0.006338
 3184 Fit       0.007955
 3185 Fit       0.009579
 3186 Fit       0.011596
 3187 Fit       0.014412
 3188 Fit       0.017061
 3189 Fit       0.007667
 3190 Fit       0.006916
 3191 Fit       0.008309
 3192 Fit       0.010319
 3193 Fit       0.012283
 3194 Fit       0.011288
 3195 Fit       0.009471
 3196 Fit      -0.022439
 3197 Fit      -0.014662
 3198 Fit      -0.016099
 3199 Fit      -0.010664
 3200 Fit      -0.007136
 3201 Fit      -0.015832
 3202 Fit      -0.010629
 3203 Fit      -0.006879
 3204 Fit      -0.004047
 3205 Fit      -0.001638
 3206 Fit      -0.018101
 3207 Fit      -0.012722
 3208 Fit      -0.008371
 3209 Fit      -0.005014
 3210 Fit      -0.002328
 3211 Fit       0.000123
 3212 Fit      -0.013652
 3213 Fit      -0.009655
 3214 Fit      -0.006101
 3215 Fit      -0.003181
 3216 Fit      -0.000681
 3217 Fit      -0.009927
 3218 Fit      -0.006762
 3219 Fit      -0.003827
 3220 Fit      -0.001237
 3221 Fit       0.018253
 3222 Fit       0.017728
 3223 Fit       0.021631
 3224 Fit       0.022048
 3225 Fit       0.022797
 3226 Fit       0.022613
 3227 Fit       0.023286
 3228 Fit       0.024057
 3229 Fit       0.025167
 3230 Fit       0.027215
 3231 Fit       0.022076
 3232 Fit       0.023339
 3233 Fit       0.024472
 3234 Fit       0.025736
 3235 Fit       0.027587
 3236 Fit       0.030572
 3237 Fit       0.020700
 3238 Fit       0.022739
 3239 Fit       0.024325
 3240 Fit       0.025724
 3241 Fit       0.026771
 3242 Fit       0.025111
 3243 Fit       0.020852
 3244 Fit       0.022918
 3245 Fit       0.022745
 3246 Fit       0.019516
 3247 Fit       0.023562
 3248 Fit       0.022115
 3249 Fit       0.022326
 3250 Fit       0.022811
 3251 Fit       0.022107
 3252 Fit       0.004740
 3253 Fit       0.028503
 3254 Fit       0.025190
 3255 Fit       0.023966
 3256 Fit       0.022994
 3257 Fit       0.020548
 3258 Fit       0.015339
 3259 Fit       0.012278
 3260 Fit       0.011146
 3261 Fit       0.028090
 3262 Fit       0.025253
 3263 Fit       0.023093
 3264 Fit       0.019734
 3265 Fit       0.019206
 3266 Fit       0.017561
 3267 Fit       0.026732
 3268 Fit       0.025771
 3269 Fit       0.022826
 3270 Fit       0.022553
 3271 Fit      -0.006534
 3272 Fit      -0.005185
 3273 Fit      -0.009456
 3274 Fit      -0.012205
 3275 Fit      -0.008809
 3276 Fit      -0.004082
 3277 Fit      -0.002789
 3278 Fit      -0.004858
 3279 Fit      -0.008776
 3280 Fit      -0.013650
 3281 Fit      -0.019411
 3282 Fit      -0.015745
 3283 Fit      -0.008395
 3284 Fit      -0.003237
 3285 Fit      -0.000435
 3286 Fit       0.000143
 3287 Fit      -0.001557
 3288 Fit      -0.017987
 3289 Fit      -0.015508
 3290 Fit      -0.007588
 3291 Fit      -0.002672
 3292 Fit      -0.009212
 3293 Fit       0.005554
 3294 Fit       0.006018
 3295 Fit       0.004228
 3296 Fit       0.006467
 3297 Fit       0.007855
 3298 Fit       0.008333
 3299 Fit       0.007583
 3300 Fit       0.003590
 3301 Fit       0.006482
 3302 Fit       0.008525
 3303 Fit       0.009925
 3304 Fit       0.010785
 3305 Fit       0.010963
 3306 Fit       0.005866
 3307 Fit       0.008777
 3308 Fit       0.010788
 3309 Fit       0.012325
 3310 Fit       0.013681
 3311 Fit       0.007491
 3312 Fit       0.010581
 3313 Fit       0.012663
 3314 Fit       0.014456
 3315 Fit       0.012252
 3316 Fit       0.014301
 3317 Fit       0.016101
 3318 Fit       0.017065
 3319 Fit       0.018441
 3320 Fit       0.021566
 3321 Fit       0.009227
 3322 Fit       0.010958
 3323 Fit       0.008894
 3324 Fit       0.014432
 3325 Fit       0.012737
 3326 Fit       0.011285
 3327 Fit       0.009854
 3328 Fit       0.016748
 3329 Fit       0.014970
 3330 Fit       0.013655
 3331 Fit       0.012582
 3332 Fit       0.011761
 3333 Fit       0.017052
 3334 Fit       0.015525
 3335 Fit       0.014414
 3336 Fit       0.013635
 3337 Fit       0.013359
 3338 Fit       0.020262
 3339 Fit       0.017585
 3340 Fit       0.015945
 3341 Fit       0.014848
 3342 Fit       0.014168
 3343 Fit       0.014092
 3344 Fit       0.017767
 3345 Fit       0.015686
 3346 Fit       0.014462
 3347 Fit       0.013841
 3348 Fit       0.014119
 3349 Fit       0.015232
 3350 Fit       0.013649
 3351 Fit       0.012709
 3352 Fit       0.005508
 3353 Fit       0.004373
 3354 Fit       0.006124
 3355 Fit       0.009654
 3356 Fit       0.008609
 3357 Fit       0.007760
 3358 Fit       0.006925
 3359 Fit       0.008452
 3360 Fit       0.008687
 3361 Fit       0.012656
 3362 Fit       0.011168
 3363 Fit       0.010253
 3364 Fit       0.009529
 3365 Fit       0.008889
 3366 Fit       0.009857
 3367 Fit       0.010354
 3368 Fit       0.013127
 3369 Fit       0.011985
 3370 Fit       0.011239
 3371 Fit       0.010636
 3372 Fit       0.010123
 3373 Fit       0.010357
 3374 Fit       0.010624
 3375 Fit       0.013820
 3376 Fit       0.012854
 3377 Fit       0.012130
 3378 Fit       0.011579
 3379 Fit       0.011087
 3380 Fit       0.010635
 3381 Fit       0.010030
 3382 Fit       0.009737
 3383 Fit       0.011550
 3384 Fit       0.011334
 3385 Fit       0.010971
 3386 Fit       0.010503
 3387 Fit       0.008995
 3388 Fit       0.009609
 3389 Fit       0.010029
 3390 Fit       0.009745
 3391 Fit       0.007392
 3392 Fit       0.008106
 3393 Fit      -0.000833
 3394 Fit      -0.003029
 3395 Fit       0.002303
 3396 Fit       0.000399
 3397 Fit      -0.002750
 3398 Fit       0.003500
 3399 Fit       0.004599
 3400 Fit       0.002678
 3401 Fit      -0.000199
 3402 Fit       0.007800
 3403 Fit       0.006101
 3404 Fit       0.006054
 3405 Fit       0.004127
 3406 Fit       0.001432
 3407 Fit       0.009859
 3408 Fit       0.007725
 3409 Fit       0.006665
 3410 Fit       0.004752
 3411 Fit       0.002177
 3412 Fit      -0.001497
 3413 Fit       0.010486
 3414 Fit       0.008364
 3415 Fit       0.006426
 3416 Fit       0.004302
 3417 Fit       0.001353
 3418 Fit       0.008169
 3419 Fit       0.005318
 3420 Fit       0.002847
 3421 Fit      -0.000723
 3422 Fit       0.006804
 3423 Fit       0.003310
 3424 Fit       0.000453
 3425 Fit      -0.022421
 3426 Fit      -0.021590
 3427 Fit      -0.025054
 -----------------------------------------------------------------
 Leave Link  602 at Thu Jan 16 21:49:16 2014, MaxMem=   235929600 cpu:         1.3

 Test job not archived.
 1\1\GINC-G60\SP\RHF\Gen\C10H13Cl1N2O1\KOLAR\16-Jan-2014\0\\# hf/gen po
 p=mk iop(6/33=2,6/41=5,6/42=2)\\na resp\\0,1\C,0,5.171154,-0.643962,0.
 11423\C,0,3.944689,-1.05494,-0.70523\N,0,2.971834,0.018072,-0.898942\C
 ,0,2.075927,0.319914,0.108537\O,0,1.93877,-0.372906,1.113994\N,0,1.342
 831,1.478355,-0.119769\C,0,0.22618,1.809434,0.764757\C,0,-1.110454,1.2
 29527,0.332905\C,0,-2.128389,2.058804,-0.148702\C,0,-3.350858,1.520816
 ,-0.557241\C,0,-3.573313,0.146681,-0.49214\C,0,-2.552356,-0.674085,-0.
 009261\C,0,-1.329557,-0.154848,0.404045\Cl,0,-2.825557,-2.412068,0.084
 028\H,0,5.710818,0.184083,-0.361944\H,0,4.867711,-0.329852,1.117494\H,
 0,5.866913,-1.485572,0.212395\H,0,4.243635,-1.411955,-1.697529\H,0,3.4
 15643,-1.869109,-0.205352\H,0,3.272063,0.789788,-1.481795\H,0,1.220615
 ,1.743004,-1.090017\H,0,0.503823,1.433303,1.751958\H,0,0.151386,2.9008
 38,0.827519\H,0,-1.966764,3.133156,-0.200315\H,0,-4.136299,2.173551,-0
 .928396\H,0,-4.517872,-0.284932,-0.805399\H,0,-0.548147,-0.806929,0.78
 0523\\Version=AM64L-G09RevD.01\State=1-A\HF=-1029.5206257\RMSD=7.959e-
 09\Dipole=0.4877211,1.5216033,-1.2332147\Quadrupole=4.6138736,-0.33244
 54,-4.2814282,-3.3614221,-3.6477537,-1.0735453\PG=C01 [X(C10H13Cl1N2O1
 )]\\@


 ONE OF THE BENEFITS OF A COLLEGE EDUCATION
 IS TO SHOW THE BOY ITS LITTLE AVAIL 
                                    EMERSON IN 'CULTURE'
 Job cpu time:       0 days  0 hours  2 minutes 21.7 seconds.
 File lengths (MBytes):  RWF=     29 Int=      0 D2E=      0 Chk=      3 Scr=      1
 Normal termination of Gaussian 09 at Thu Jan 16 21:49:16 2014.
141.31user 0.37system 2:29.23elapsed 94%CPU (0avgtext+0avgdata 603408maxresident)k
24072inputs+129064outputs (5major+170634minor)pagefaults 0swaps
