Linux g29 2.6.38.6-client #1 SMP Tue Jun 12 11:27:21 CEST 2012 x86_64 GNU/Linux
Fri Jan 17 11:54:31 CET 2014

 Entering Gaussian System, Link 0=/usr/local/programs/common/gaussian/gaussian09_d01/arch/amd64-pgi_10.4.0-acml/g09/g09
 Initial command:
 /usr/local/programs/common/gaussian/gaussian09_d01/arch/amd64-pgi_10.4.0-acml/g09/l1.exe "/scratch/kolar/g09_19884/Gau-20968.inp" -scrdir="/scratch/kolar/g09_19884/"
 Entering Link 1 = /usr/local/programs/common/gaussian/gaussian09_d01/arch/amd64-pgi_10.4.0-acml/g09/l1.exe PID=     20974.
  
 Copyright (c) 1988,1990,1992,1993,1995,1998,2003,2009,2013,
            Gaussian, Inc.  All Rights Reserved.
  
 This is part of the Gaussian(R) 09 program.  It is based on
 the Gaussian(R) 03 system (copyright 2003, Gaussian, Inc.),
 the Gaussian(R) 98 system (copyright 1998, Gaussian, Inc.),
 the Gaussian(R) 94 system (copyright 1995, Gaussian, Inc.),
 the Gaussian 92(TM) system (copyright 1992, Gaussian, Inc.),
 the Gaussian 90(TM) system (copyright 1990, Gaussian, Inc.),
 the Gaussian 88(TM) system (copyright 1988, Gaussian, Inc.),
 the Gaussian 86(TM) system (copyright 1986, Carnegie Mellon
 University), and the Gaussian 82(TM) system (copyright 1983,
 Carnegie Mellon University). Gaussian is a federally registered
 trademark of Gaussian, Inc.
  
 This software contains proprietary and confidential information,
 including trade secrets, belonging to Gaussian, Inc.
  
 This software is provided under written license and may be
 used, copied, transmitted, or stored only in accord with that
 written license.
  
 The following legend is applicable only to US Government
 contracts under FAR:
  
                    RESTRICTED RIGHTS LEGEND
  
 Use, reproduction and disclosure by the US Government is
 subject to restrictions as set forth in subparagraphs (a)
 and (c) of the Commercial Computer Software - Restricted
 Rights clause in FAR 52.227-19.
  
 Gaussian, Inc.
 340 Quinnipiac St., Bldg. 40, Wallingford CT 06492
  
  
 ---------------------------------------------------------------
 Warning -- This program may not be used in any manner that
 competes with the business of Gaussian, Inc. or will provide
 assistance to any competitor of Gaussian, Inc.  The licensee
 of this program is prohibited from giving any competitor of
 Gaussian, Inc. access to this program.  By using this program,
 the user acknowledges that Gaussian, Inc. is engaged in the
 business of creating and licensing software in the field of
 computational chemistry and represents and warrants to the
 licensee that it is not a competitor of Gaussian, Inc. and that
 it will not use this program in any manner prohibited above.
 ---------------------------------------------------------------
  

 Cite this work as:
 Gaussian 09, Revision D.01,
 M. J. Frisch, G. W. Trucks, H. B. Schlegel, G. E. Scuseria, 
 M. A. Robb, J. R. Cheeseman, G. Scalmani, V. Barone, B. Mennucci, 
 G. A. Petersson, H. Nakatsuji, M. Caricato, X. Li, H. P. Hratchian, 
 A. F. Izmaylov, J. Bloino, G. Zheng, J. L. Sonnenberg, M. Hada, 
 M. Ehara, K. Toyota, R. Fukuda, J. Hasegawa, M. Ishida, T. Nakajima, 
 Y. Honda, O. Kitao, H. Nakai, T. Vreven, J. A. Montgomery, Jr., 
 J. E. Peralta, F. Ogliaro, M. Bearpark, J. J. Heyd, E. Brothers, 
 K. N. Kudin, V. N. Staroverov, T. Keith, R. Kobayashi, J. Normand, 
 K. Raghavachari, A. Rendell, J. C. Burant, S. S. Iyengar, J. Tomasi, 
 M. Cossi, N. Rega, J. M. Millam, M. Klene, J. E. Knox, J. B. Cross, 
 V. Bakken, C. Adamo, J. Jaramillo, R. Gomperts, R. E. Stratmann, 
 O. Yazyev, A. J. Austin, R. Cammi, C. Pomelli, J. W. Ochterski, 
 R. L. Martin, K. Morokuma, V. G. Zakrzewski, G. A. Voth, 
 P. Salvador, J. J. Dannenberg, S. Dapprich, A. D. Daniels, 
 O. Farkas, J. B. Foresman, J. V. Ortiz, J. Cioslowski, 
 and D. J. Fox, Gaussian, Inc., Wallingford CT, 2013.
 
 ******************************************
 Gaussian 09:  AM64L-G09RevD.01 24-Apr-2013
                17-Jan-2014 
 ******************************************
 %mem=1800mb
 ------------------------------------------------------------------
 # hf/gen pseudo=read pop=(mk, readradii) iop(6/33=2,6/41=5,6/42=2)
 ------------------------------------------------------------------
 1/38=1/1;
 2/12=2,17=6,18=5,40=1/2;
 3/5=7,11=9,16=1,17=8,25=1,30=1/1,2,3;
 4//1;
 5/5=2,38=5/2;
 6/7=2,8=2,9=2,10=2,15=8,20=101,28=1,33=2,41=5,42=2/1,2;
 99/5=1,9=1/99;
 -------
 na resp
 -------
 Symbolic Z-matrix:
 Charge =  0 Multiplicity = 1
 6                    -2.738    -2.8293   -1.12898 
 6                    -2.09905  -2.53628   0.24748 
 6                    -1.28472  -3.74686   0.72786 
 6                    -1.31185  -1.22697   0.21674 
 6                     0.08542  -1.20886   0.11772 
 6                     0.76612   0.00122   0.05789 
 6                     0.08629   1.21494   0.10172 
 6                    -1.30801   1.2392    0.20335 
 6                    -1.98901   0.00767   0.25132 
 8                    -3.35903   0.0814    0.33195 
 6                    -2.10284   2.54026   0.23519 
 6                    -1.31038   3.73805   0.77959 
 6                    -2.6829    2.85782  -1.15974 
 53                    2.91112  -0.00352  -0.10144 
 1                    -1.95713  -2.99418  -1.87981 
 1                    -3.36461  -3.72808  -1.08535 
 1                    -3.35799  -1.99636  -1.47832 
 1                    -2.91598  -2.42005   0.98138 
 1                    -0.8004   -3.55214   1.69049 
 1                    -1.94203  -4.61524   0.84564 
 1                    -0.50923  -4.02324   0.0045 
 1                     0.63502  -2.14161   0.09209 
 1                     0.63712   2.1469    0.06497 
 1                    -3.72397  -0.80697   0.45594 
 1                    -2.953     2.37157   0.90716 
 1                    -1.97627   4.60016   0.89877 
 1                    -0.86262   3.51901   1.75542 
 1                    -0.50724   4.0446    0.09848 
 1                    -3.30398   2.03445  -1.52479 
 1                    -3.30289   3.76181  -1.1215 
 1                    -1.87829   3.0293   -1.8852 
 
                          Input orientation:                          
 ---------------------------------------------------------------------
 Center     Atomic      Atomic             Coordinates (Angstroms)
 Number     Number       Type             X           Y           Z
 ---------------------------------------------------------------------
      1          6           0       -2.737998   -2.829303   -1.128978
      2          6           0       -2.099055   -2.536277    0.247476
      3          6           0       -1.284722   -3.746856    0.727858
      4          6           0       -1.311852   -1.226968    0.216741
      5          6           0        0.085422   -1.208861    0.117724
      6          6           0        0.766118    0.001218    0.057887
      7          6           0        0.086294    1.214940    0.101721
      8          6           0       -1.308007    1.239203    0.203345
      9          6           0       -1.989011    0.007673    0.251324
     10          8           0       -3.359035    0.081402    0.331947
     11          6           0       -2.102835    2.540258    0.235187
     12          6           0       -1.310381    3.738048    0.779585
     13          6           0       -2.682898    2.857824   -1.159739
     14         53           0        2.911119   -0.003520   -0.101438
     15          1           0       -1.957132   -2.994182   -1.879813
     16          1           0       -3.364614   -3.728084   -1.085349
     17          1           0       -3.357992   -1.996355   -1.478324
     18          1           0       -2.915978   -2.420047    0.981383
     19          1           0       -0.800396   -3.552137    1.690486
     20          1           0       -1.942031   -4.615244    0.845638
     21          1           0       -0.509231   -4.023244    0.004497
     22          1           0        0.635023   -2.141606    0.092085
     23          1           0        0.637121    2.146900    0.064968
     24          1           0       -3.723973   -0.806970    0.455936
     25          1           0       -2.952995    2.371573    0.907155
     26          1           0       -1.976268    4.600160    0.898770
     27          1           0       -0.862616    3.519014    1.755423
     28          1           0       -0.507244    4.044604    0.098475
     29          1           0       -3.303975    2.034447   -1.524788
     30          1           0       -3.302889    3.761813   -1.121504
     31          1           0       -1.878294    3.029298   -1.885197
 ---------------------------------------------------------------------
                    Distance matrix (angstroms):
                    1          2          3          4          5
     1  C    0.000000
     2  C    1.545554   0.000000
     3  C    2.530169   1.536036   0.000000
     4  C    2.532258   1.528046   2.571344   0.000000
     5  C    3.485943   2.559455   2.948046   1.400895   0.000000
     6  C    4.658254   3.831976   4.324681   2.419015   1.389683
     7  C    5.084009   4.343803   5.185668   2.816195   2.423854
     8  C    4.513613   3.857714   5.013625   2.466210   2.818154
     9  C    3.242630   2.546332   3.849623   1.408573   2.408542
    10  O    3.315448   2.906360   4.372080   2.432296   3.684420
    11  C    5.576429   5.076551   6.359232   3.849414   4.342598
    12  C    6.986473   6.346046   7.485127   4.996817   5.182493
    13  C    5.687477   5.605127   7.009973   4.523272   5.082660
    14  I    6.399485   5.624806   5.683782   4.408123   3.079845
    15  H    1.095760   2.180637   2.796176   2.816908   3.368910
    16  H    1.096521   2.190540   2.759352   3.487815   4.438087
    17  H    1.095554   2.203366   3.497133   2.766205   3.876160
    18  H    2.157033   1.104306   2.117946   2.140405   3.349818
    19  H    3.496594   2.191065   1.095052   2.799986   2.957904
    20  H    2.778895   2.168999   1.095457   3.503291   4.030368
    21  H    2.770860   2.190354   1.095914   2.916917   2.878747
    22  H    3.652560   2.766784   2.581948   2.154629   1.082927
    23  H    6.130215   5.426980   6.234522   3.899297   3.401218
    24  H    2.752077   2.382082   3.829728   2.460069   3.845438
    25  H    5.589380   5.025075   6.344325   4.014912   4.761794
    26  H    7.738793   7.167147   8.377358   5.904408   6.213318
    27  H    7.220662   6.361543   7.350301   5.009361   5.092508
    28  H    7.330314   6.772301   7.855409   5.333934   5.286825
    29  H    4.912541   5.048195   6.524972   4.199798   4.970403
    30  H    6.615283   6.556620   7.992074   5.535618   6.141982
    31  H    5.969436   5.964282   7.286745   4.780669   5.082309
                    6          7          8          9         10
     6  C    0.000000
     7  C    1.391834   0.000000
     8  C    2.419868   1.398210   0.000000
     9  C    2.761919   2.405570   1.408096   0.000000
    10  O    4.135024   3.634309   2.358762   1.374373   0.000000
    11  C    3.835238   2.562531   1.524962   2.535193   2.762856
    12  C    4.335504   2.962478   2.564427   3.828224   4.215261
    13  C    4.640961   3.458146   2.523541   3.255140   3.223478
    14  I    2.150915   3.083108   4.408886   4.912824   6.285687
    15  H    4.488117   5.081218   4.762611   3.681561   4.039360
    16  H    5.681340   6.144216   5.528499   4.199388   4.064596
    17  H    4.833066   4.967098   4.183215   2.980255   2.755750
    18  H    4.502577   4.795891   4.071980   2.699274   2.622082
    19  H    4.212562   5.102491   5.042440   4.019483   4.647028
    20  H    5.409838   6.217601   5.923603   4.661199   4.932572
    21  H    4.222045   5.272824   5.326437   4.301042   5.007667
    22  H    2.147103   3.401117   3.900976   3.395631   4.577313
    23  H    2.149568   1.083195   2.150950   3.392284   4.506309
    24  H    4.579577   4.328016   3.176085   1.927590   0.968379
    25  H    4.491285   3.350194   2.117450   2.635793   2.395958
    26  H    5.420151   4.043410   3.496601   4.637918   4.759465
    27  H    4.231937   2.990638   2.793717   3.982536   4.480577
    28  H    4.239348   2.891245   2.919331   4.303000   4.888168
    29  H    4.817109   3.848512   2.757308   2.998586   2.695344
    30  H    5.664791   4.412415   3.478267   4.207671   3.957410
    31  H    4.465172   3.331568   2.809213   3.702323   3.974722
                   11         12         13         14         15
    11  C    0.000000
    12  C    1.535921   0.000000
    13  C    1.543742   2.533688   0.000000
    14  I    5.632394   5.709343   6.371838   0.000000
    15  H    5.926591   7.267297   5.940641   5.983857   0.000000
    16  H    6.529013   7.964985   6.621515   7.363782   1.775047
    17  H    5.009231   6.494170   4.911242   6.720786   1.766143
    18  H    5.081598   6.367166   5.700408   6.400560   3.071719
    19  H    6.397775   7.364552   7.263277   5.438660   3.794257
    20  H    7.183294   8.377400   7.772848   6.761510   3.171144
    21  H    6.758132   7.840935   7.309540   5.279034   2.589597
    22  H    5.425513   6.231178   6.129434   3.128814   3.366680
    23  H    2.773277   2.614420   3.609411   3.134177   6.078079
    24  H    3.725688   5.156294   4.138231   6.706761   3.655318
    25  H    1.096708   2.140493   2.140431   6.406728   6.127827
    26  H    2.167846   1.095832   2.787924   6.788287   8.086713
    27  H    2.192538   1.095778   3.499824   5.486096   7.538874
    28  H    2.197193   1.096775   2.779392   5.302120   7.453879
    29  H    2.189999   3.490961   1.094051   6.693775   5.217963
    30  H    2.184705   2.754050   1.096835   7.337040   6.930336
    31  H    2.187603   2.815300   1.096850   5.942917   6.023998
                   16         17         18         19         20
    16  H    0.000000
    17  H    1.775770   0.000000
    18  H    2.486688   2.534768   0.000000
    19  H    3.783045   4.359256   2.502028   0.000000
    20  H    2.557246   3.776814   2.405388   1.774062   0.000000
    21  H    3.070520   3.797694   3.052373   1.774620   1.763774
    22  H    4.460982   4.293187   3.671238   2.570002   3.650744
    23  H    7.200871   5.958963   5.858441   6.098179   7.279290
    24  H    3.322289   2.299987   1.879087   4.196112   4.222575
    25  H    6.430032   4.993328   4.792338   6.351191   7.059847
    26  H    8.673170   7.146590   7.083303   8.274626   9.215621
    27  H    8.176210   6.863186   6.331499   7.071723   8.255846
    28  H    8.365446   6.863399   6.955087   7.767298   8.809644
    29  H    5.779580   4.031432   5.125812   6.914898   7.189729
    30  H    7.490239   5.769476   6.541195   8.225790   8.711869
    31  H    6.964992   5.254735   6.244152   7.567210   8.117915
                   21         22         23         24         25
    21  H    0.000000
    22  H    2.203985   0.000000
    23  H    6.276022   4.288592   0.000000
    24  H    4.569768   4.573236   5.281794   0.000000
    25  H    6.905104   5.822971   3.694413   3.301688   0.000000
    26  H    8.792896   7.274681   3.680151   5.699792   2.433242
    27  H    7.750889   6.087055   2.643775   5.346977   2.530981
    28  H    8.068396   6.290788   2.216297   5.832057   3.071595
    29  H    6.844335   5.964009   4.251142   3.489028   2.480159
    30  H    8.347426   7.199327   4.420332   4.851743   2.484079
    31  H    7.428568   6.079856   3.302890   4.858435   3.063464
                   26         27         28         29         30
    26  H    0.000000
    27  H    1.772837   0.000000
    28  H    1.762710   1.774263   0.000000
    29  H    3.770852   4.350167   3.807548   0.000000
    30  H    2.558174   3.780290   3.063323   1.773819   0.000000
    31  H    3.198074   3.811238   2.616406   1.775441   1.774620
                   31
    31  H    0.000000
 Stoichiometry    C12H17IO
 Framework group  C1[X(C12H17IO)]
 Deg. of freedom    87
 Full point group                 C1      NOp   1
 Largest Abelian subgroup         C1      NOp   1
 Largest concise Abelian subgroup C1      NOp   1
                         Standard orientation:                         
 ---------------------------------------------------------------------
 Center     Atomic      Atomic             Coordinates (Angstroms)
 Number     Number       Type             X           Y           Z
 ---------------------------------------------------------------------
      1          6           0        2.737998   -2.829303    1.128978
      2          6           0        2.099055   -2.536277   -0.247476
      3          6           0        1.284722   -3.746856   -0.727858
      4          6           0        1.311852   -1.226968   -0.216741
      5          6           0       -0.085422   -1.208861   -0.117724
      6          6           0       -0.766118    0.001218   -0.057887
      7          6           0       -0.086294    1.214940   -0.101721
      8          6           0        1.308007    1.239203   -0.203345
      9          6           0        1.989011    0.007673   -0.251324
     10          8           0        3.359035    0.081402   -0.331947
     11          6           0        2.102835    2.540258   -0.235187
     12          6           0        1.310381    3.738048   -0.779585
     13          6           0        2.682898    2.857824    1.159739
     14         53           0       -2.911119   -0.003520    0.101438
     15          1           0        1.957132   -2.994182    1.879813
     16          1           0        3.364614   -3.728084    1.085349
     17          1           0        3.357992   -1.996355    1.478324
     18          1           0        2.915978   -2.420047   -0.981383
     19          1           0        0.800396   -3.552137   -1.690486
     20          1           0        1.942031   -4.615244   -0.845638
     21          1           0        0.509231   -4.023244   -0.004497
     22          1           0       -0.635023   -2.141606   -0.092085
     23          1           0       -0.637121    2.146900   -0.064968
     24          1           0        3.723973   -0.806970   -0.455936
     25          1           0        2.952995    2.371573   -0.907155
     26          1           0        1.976268    4.600160   -0.898770
     27          1           0        0.862616    3.519014   -1.755423
     28          1           0        0.507244    4.044604   -0.098475
     29          1           0        3.303975    2.034447    1.524788
     30          1           0        3.302889    3.761813    1.121504
     31          1           0        1.878294    3.029298    1.885197
 ---------------------------------------------------------------------
 Rotational constants (GHZ):      0.5009110      0.2783539      0.1889922
 General basis read from cards:  (5D, 7F)
 ======================================================================================================
                                       Pseudopotential Parameters
 ======================================================================================================
  Center     Atomic      Valence      Angular      Power
  Number     Number     Electrons     Momentum     of R      Exponent        Coefficient   SO-Coeffient
 ======================================================================================================
    1          6
                                   No pseudopotential on this center.
    2          6
                                   No pseudopotential on this center.
    3          6
                                   No pseudopotential on this center.
    4          6
                                   No pseudopotential on this center.
    5          6
                                   No pseudopotential on this center.
    6          6
                                   No pseudopotential on this center.
    7          6
                                   No pseudopotential on this center.
    8          6
                                   No pseudopotential on this center.
    9          6
                                   No pseudopotential on this center.
   10          8
                                   No pseudopotential on this center.
   11          6
                                   No pseudopotential on this center.
   12          6
                                   No pseudopotential on this center.
   13          6
                                   No pseudopotential on this center.
   14         53            7
                                      F and up 
                                                     0        1.0715702       -0.07476210    0.00000000
                                                     1       44.1936028      -30.08112240    0.00000000
                                                     2       12.9367609      -75.37227210    0.00000000
                                                     2        3.1956412      -22.05637580    0.00000000
                                                     2        0.8589806       -1.69795850    0.00000000
                                      S - F
                                                     0      127.9202670        2.93800360    0.00000000
                                                     1       78.6211465       41.24712670    0.00000000
                                                     2       36.5146237      287.86800950    0.00000000
                                                     2        9.9065681      114.37585060    0.00000000
                                                     2        1.9420086       37.65477140    0.00000000
                                      P - F
                                                     0       13.0035304        2.22226300    0.00000000
                                                     1       76.0331404       39.40908310    0.00000000
                                                     2       24.1961684      177.40750020    0.00000000
                                                     2        6.4053433       77.98894620    0.00000000
                                                     2        1.5851786       25.75476410    0.00000000
                                      D - F
                                                     0       40.4278108        7.05243600    0.00000000
                                                     1       28.9084375       33.30416350    0.00000000
                                                     2       15.6268936      186.94538750    0.00000000
                                                     2        4.1442856       71.96883610    0.00000000
                                                     2        0.9377235        9.36306570    0.00000000
   15          1
                                   No pseudopotential on this center.
   16          1
                                   No pseudopotential on this center.
   17          1
                                   No pseudopotential on this center.
   18          1
                                   No pseudopotential on this center.
   19          1
                                   No pseudopotential on this center.
   20          1
                                   No pseudopotential on this center.
   21          1
                                   No pseudopotential on this center.
   22          1
                                   No pseudopotential on this center.
   23          1
                                   No pseudopotential on this center.
   24          1
                                   No pseudopotential on this center.
   25          1
                                   No pseudopotential on this center.
   26          1
                                   No pseudopotential on this center.
   27          1
                                   No pseudopotential on this center.
   28          1
                                   No pseudopotential on this center.
   29          1
                                   No pseudopotential on this center.
   30          1
                                   No pseudopotential on this center.
   31          1
                                   No pseudopotential on this center.
 ======================================================================================================
 There are   237 symmetry adapted cartesian basis functions of A   symmetry.
 There are   224 symmetry adapted basis functions of A   symmetry.
   224 basis functions,   444 primitive gaussians,   237 cartesian basis functions
    52 alpha electrons       52 beta electrons
       nuclear repulsion energy       875.2943528026 Hartrees.
 NAtoms=   31 NActive=   31 NUniq=   31 SFac= 1.00D+00 NAtFMM=   60 NAOKFM=F Big=F
 Integral buffers will be    131072 words long.
 Raffenetti 1 integral format.
 Two-electron integral symmetry is turned on.
 One-electron integrals computed using PRISM.
   1 Symmetry operations used in ECPInt.
 ECPInt:  NShTT=    4095 NPrTT=   23940 LenC2=    3896 LenP2D=   14626.
 LDataN:  DoStor=T MaxTD1= 5 Len=  102
 NBasis=   224 RedAO= T EigKep=  3.93D-04  NBF=   224
 NBsUse=   224 1.00D-06 EigRej= -1.00D+00 NBFU=   224
 ExpMin= 1.05D-01 ExpMax= 5.48D+03 ExpMxC= 8.25D+02 IAcc=1 IRadAn=         1 AccDes= 0.00D+00
 Harris functional with IExCor=  205 and IRadAn=       1 diagonalized for initial guess.
 HarFok:  IExCor=  205 AccDes= 0.00D+00 IRadAn=         1 IDoV= 1 UseB2=F ITyADJ=14
 ICtDFT=  3500011 ScaDFX=  1.000000  1.000000  1.000000  1.000000
 Defaulting to unpruned grid for atomic number  53.
 FoFCou: FMM=F IPFlag=           0 FMFlag=      100000 FMFlg1=           0
         NFxFlg=           0 DoJE=T BraDBF=F KetDBF=T FulRan=T
         wScrn=  0.000000 ICntrl=     500 IOpCl=  0 I1Cent=   200000004 NGrid=           0
         NMat0=    1 NMatS0=      1 NMatT0=    0 NMatD0=    1 NMtDS0=    0 NMtDT0=    0
 Petite list used in FoFCou.
 Requested convergence on RMS density matrix=1.00D-08 within 128 cycles.
 Requested convergence on MAX density matrix=1.00D-06.
 Requested convergence on             energy=1.00D-06.
 No special actions if energy rises.
 Integral accuracy reduced to 1.0D-05 until final iterations.
 Initial convergence to 1.0D-05 achieved.  Increase integral accuracy.
 SCF Done:  E(RHF) =  -550.326059582     A.U. after   15 cycles
            NFock= 15  Conv=0.57D-08     -V/T= 2.0156

 **********************************************************************

            Population analysis using the SCF density.

 **********************************************************************

 Orbital symmetries:
 BldTbl:  Degeneracy threshold= 1.00D-02
       Occupied  (A) (A) (A) (A) (A) (A) (A) (A) (A) (A) (A) (A)
                 (A) (A) (A) (A) (A) (A) (A) (A) (A) (A) (A) (A)
                 (A) (A) (A) (A) (A) (A) (A) (A) (A) (A) (A) (A)
                 (A) (A) (A) (A) (A) (A) (A) (A) (A) (A) (A) (A)
                 (A) (A) (A) (A)
       Virtual   (A) (A) (A) (A) (A) (A) (A) (A) (A) (A) (A) (A)
                 (A) (A) (A) (A) (A) (A) (A) (A) (A) (A) (A) (A)
                 (A) (A) (A) (A) (A) (A) (A) (A) (A) (A) (A) (A)
                 (A) (A) (A) (A) (A) (A) (A) (A) (A) (A) (A) (A)
                 (A) (A) (A) (A) (A) (A) (A) (A) (A) (A) (A) (A)
                 (A) (A) (A) (A) (A) (A) (A) (A) (A) (A) (A) (A)
                 (A) (A) (A) (A) (A) (A) (A) (A) (A) (A) (A) (A)
                 (A) (A) (A) (A) (A) (A) (A) (A) (A) (A) (A) (A)
                 (A) (A) (A) (A) (A) (A) (A) (A) (A) (A) (A) (A)
                 (A) (A) (A) (A) (A) (A) (A) (A) (A) (A) (A) (A)
                 (A) (A) (A) (A) (A) (A) (A) (A) (A) (A) (A) (A)
                 (A) (A) (A) (A) (A) (A) (A) (A) (A) (A) (A) (A)
                 (A) (A) (A) (A) (A) (A) (A) (A) (A) (A) (A) (A)
                 (A) (A) (A) (A) (A) (A) (A) (A) (A) (A) (A) (A)
                 (A) (A) (A) (A)
 The electronic state is 1-A.
 Alpha  occ. eigenvalues --  -20.59683 -11.30643 -11.28458 -11.25760 -11.24981
 Alpha  occ. eigenvalues --  -11.24833 -11.24570 -11.24270 -11.23244 -11.22848
 Alpha  occ. eigenvalues --  -11.22800 -11.21323 -11.20835  -1.40681  -1.16482
 Alpha  occ. eigenvalues --   -1.10608  -1.07190  -1.00673  -0.99699  -0.94535
 Alpha  occ. eigenvalues --   -0.92793  -0.87935  -0.87334  -0.83045  -0.78170
 Alpha  occ. eigenvalues --   -0.75452  -0.73972  -0.68580  -0.63718  -0.62613
 Alpha  occ. eigenvalues --   -0.61672  -0.60576  -0.59909  -0.59832  -0.57244
 Alpha  occ. eigenvalues --   -0.56337  -0.54979  -0.54778  -0.53892  -0.52841
 Alpha  occ. eigenvalues --   -0.51673  -0.50536  -0.49289  -0.49048  -0.47464
 Alpha  occ. eigenvalues --   -0.47337  -0.46245  -0.43757  -0.37540  -0.36211
 Alpha  occ. eigenvalues --   -0.33349  -0.30079
 Alpha virt. eigenvalues --    0.11628   0.13182   0.14158   0.20072   0.23478
 Alpha virt. eigenvalues --    0.23892   0.27153   0.28289   0.28690   0.28932
 Alpha virt. eigenvalues --    0.30092   0.30320   0.32019   0.32429   0.33079
 Alpha virt. eigenvalues --    0.33473   0.34449   0.34980   0.35534   0.36293
 Alpha virt. eigenvalues --    0.36972   0.38862   0.39747   0.41436   0.42320
 Alpha virt. eigenvalues --    0.44132   0.45561   0.46242   0.50498   0.51258
 Alpha virt. eigenvalues --    0.52630   0.54564   0.55777   0.58533   0.59380
 Alpha virt. eigenvalues --    0.67775   0.69377   0.70052   0.71396   0.73416
 Alpha virt. eigenvalues --    0.73687   0.74314   0.74853   0.77415   0.77824
 Alpha virt. eigenvalues --    0.80460   0.82301   0.82899   0.83933   0.86856
 Alpha virt. eigenvalues --    0.87741   0.88630   0.89273   0.89789   0.90272
 Alpha virt. eigenvalues --    0.94227   0.95848   0.97150   0.98248   0.99062
 Alpha virt. eigenvalues --    1.00982   1.03231   1.05598   1.06295   1.07762
 Alpha virt. eigenvalues --    1.08425   1.09421   1.10524   1.11048   1.11862
 Alpha virt. eigenvalues --    1.13618   1.14615   1.15948   1.16369   1.16534
 Alpha virt. eigenvalues --    1.17511   1.18024   1.19071   1.20557   1.20999
 Alpha virt. eigenvalues --    1.23196   1.23635   1.25253   1.26179   1.27191
 Alpha virt. eigenvalues --    1.27971   1.28633   1.30634   1.34014   1.34568
 Alpha virt. eigenvalues --    1.36150   1.37582   1.38467   1.43579   1.45753
 Alpha virt. eigenvalues --    1.49922   1.51171   1.54967   1.58674   1.61455
 Alpha virt. eigenvalues --    1.63791   1.65371   1.69071   1.70752   1.73353
 Alpha virt. eigenvalues --    1.74626   1.79207   1.83201   1.87604   1.88694
 Alpha virt. eigenvalues --    1.92311   1.95113   2.00958   2.01583   2.02936
 Alpha virt. eigenvalues --    2.04976   2.06028   2.07213   2.09379   2.12233
 Alpha virt. eigenvalues --    2.14385   2.16367   2.17153   2.18140   2.19683
 Alpha virt. eigenvalues --    2.26073   2.26855   2.28435   2.30526   2.31680
 Alpha virt. eigenvalues --    2.33434   2.34688   2.38021   2.39501   2.41444
 Alpha virt. eigenvalues --    2.42746   2.44691   2.48252   2.52445   2.53379
 Alpha virt. eigenvalues --    2.55428   2.58229   2.58860   2.59961   2.61183
 Alpha virt. eigenvalues --    2.63205   2.63551   2.67232   2.68184   2.69347
 Alpha virt. eigenvalues --    2.73650   2.76657   2.77831   2.80563   2.83219
 Alpha virt. eigenvalues --    2.86756   2.89910   2.91829   2.92526   2.98419
 Alpha virt. eigenvalues --    3.01822   3.02492   3.08026   3.09983   3.19597
 Alpha virt. eigenvalues --    3.19803   3.23454   3.24782   3.37163   3.55266
 Alpha virt. eigenvalues --    3.76424  10.30413
          Condensed to atoms (all electrons):
               1          2          3          4          5          6
     1  C    5.179494   0.329554  -0.061735  -0.062944  -0.002245  -0.000097
     2  C    0.329554   5.127037   0.347214   0.302306  -0.043191   0.004338
     3  C   -0.061735   0.347214   5.133935  -0.048650  -0.007935  -0.000070
     4  C   -0.062944   0.302306  -0.048650   5.082712   0.488495   0.001837
     5  C   -0.002245  -0.043191  -0.007935   0.488495   4.993141   0.447605
     6  C   -0.000097   0.004338  -0.000070   0.001837   0.447605   5.376944
     7  C    0.000012  -0.000064  -0.000018  -0.056211  -0.005760   0.438008
     8  C   -0.000062   0.003243  -0.000019  -0.043928  -0.055124   0.003642
     9  C   -0.003058  -0.042322   0.001702   0.516336   0.006391  -0.066520
    10  O   -0.002640  -0.003400   0.000285  -0.077388   0.003435  -0.000281
    11  C    0.000001  -0.000093   0.000001   0.004232  -0.000269   0.004243
    12  C    0.000000   0.000001   0.000000  -0.000022  -0.000018  -0.000049
    13  C   -0.000001   0.000003   0.000000  -0.000130   0.000015  -0.000103
    14  I    0.000005  -0.000133  -0.000033  -0.001282  -0.055424   0.253842
    15  H    0.386950  -0.033660  -0.003510  -0.004432   0.001239  -0.000008
    16  H    0.384932  -0.037924  -0.003603   0.006235   0.000009   0.000001
    17  H    0.390841  -0.034160   0.004094  -0.006232   0.000123   0.000023
    18  H   -0.053299   0.416852  -0.041518  -0.067710   0.001901  -0.000070
    19  H    0.004390  -0.038641   0.393307  -0.000299  -0.000186  -0.000160
    20  H   -0.002260  -0.036762   0.393189   0.004514   0.000275   0.000002
    21  H   -0.004543  -0.035812   0.389136  -0.004809  -0.000567   0.000079
    22  H    0.000088  -0.003601  -0.000337  -0.028930   0.383761  -0.025171
    23  H    0.000000   0.000004   0.000000   0.000024   0.002599  -0.027847
    24  H   -0.000969   0.007790   0.000054  -0.009108   0.000169  -0.000026
    25  H    0.000001  -0.000004   0.000000   0.000231   0.000003  -0.000090
    26  H    0.000000   0.000000   0.000000   0.000001   0.000000   0.000002
    27  H    0.000000   0.000000   0.000000  -0.000009  -0.000004  -0.000164
    28  H    0.000000   0.000000   0.000000   0.000001  -0.000003   0.000089
    29  H   -0.000002   0.000002   0.000000   0.000005  -0.000007   0.000014
    30  H    0.000000   0.000000   0.000000   0.000001   0.000000   0.000001
    31  H    0.000000   0.000000   0.000000   0.000006  -0.000009  -0.000015
               7          8          9         10         11         12
     1  C    0.000012  -0.000062  -0.003058  -0.002640   0.000001   0.000000
     2  C   -0.000064   0.003243  -0.042322  -0.003400  -0.000093   0.000001
     3  C   -0.000018  -0.000019   0.001702   0.000285   0.000001   0.000000
     4  C   -0.056211  -0.043928   0.516336  -0.077388   0.004232  -0.000022
     5  C   -0.005760  -0.055124   0.006391   0.003435  -0.000269  -0.000018
     6  C    0.438008   0.003642  -0.066520  -0.000281   0.004243  -0.000049
     7  C    5.001463   0.506118  -0.009412   0.003230  -0.047609  -0.009390
     8  C    0.506118   4.983646   0.545228  -0.057248   0.323234  -0.051719
     9  C   -0.009412   0.545228   4.486896   0.248437  -0.045056   0.002511
    10  O    0.003230  -0.057248   0.248437   8.449484  -0.009498   0.000090
    11  C   -0.047609   0.323234  -0.045056  -0.009498   5.059057   0.345210
    12  C   -0.009390  -0.051719   0.002511   0.000090   0.345210   5.153443
    13  C   -0.001840  -0.061230  -0.004087  -0.000974   0.338925  -0.064526
    14  I   -0.054412  -0.001578   0.001502   0.000004  -0.000131  -0.000027
    15  H   -0.000010   0.000002   0.000491   0.000029   0.000000   0.000000
    16  H    0.000000   0.000000  -0.000068   0.000001   0.000000   0.000000
    17  H   -0.000005  -0.000103   0.000122   0.004254   0.000005   0.000000
    18  H    0.000006   0.000221  -0.000870   0.000069  -0.000005   0.000000
    19  H   -0.000004  -0.000009   0.000003   0.000002   0.000000   0.000000
    20  H    0.000000   0.000000  -0.000023  -0.000001   0.000000   0.000000
    21  H   -0.000005   0.000003  -0.000133  -0.000004   0.000000   0.000000
    22  H    0.002459   0.000151   0.001375  -0.000033   0.000006   0.000000
    23  H    0.384453  -0.029232   0.002485  -0.000035  -0.004067   0.000259
    24  H   -0.000096   0.004951  -0.027083   0.260938   0.000050   0.000002
    25  H    0.003056  -0.052550  -0.005572   0.002879   0.420425  -0.043181
    26  H    0.000206   0.004610  -0.000019  -0.000001  -0.037549   0.393885
    27  H    0.000203  -0.000554  -0.000028   0.000002  -0.038515   0.391922
    28  H    0.000065  -0.005041  -0.000180  -0.000004  -0.033430   0.383951
    29  H    0.000123  -0.005244   0.000487   0.003055  -0.033135   0.004051
    30  H   -0.000010   0.006010  -0.000023   0.000021  -0.038772  -0.003128
    31  H    0.001338  -0.004669   0.000596   0.000010  -0.036531  -0.003539
              13         14         15         16         17         18
     1  C   -0.000001   0.000005   0.386950   0.384932   0.390841  -0.053299
     2  C    0.000003  -0.000133  -0.033660  -0.037924  -0.034160   0.416852
     3  C    0.000000  -0.000033  -0.003510  -0.003603   0.004094  -0.041518
     4  C   -0.000130  -0.001282  -0.004432   0.006235  -0.006232  -0.067710
     5  C    0.000015  -0.055424   0.001239   0.000009   0.000123   0.001901
     6  C   -0.000103   0.253842  -0.000008   0.000001   0.000023  -0.000070
     7  C   -0.001840  -0.054412  -0.000010   0.000000  -0.000005   0.000006
     8  C   -0.061230  -0.001578   0.000002   0.000000  -0.000103   0.000221
     9  C   -0.004087   0.001502   0.000491  -0.000068   0.000122  -0.000870
    10  O   -0.000974   0.000004   0.000029   0.000001   0.004254   0.000069
    11  C    0.338925  -0.000131   0.000000   0.000000   0.000005  -0.000005
    12  C   -0.064526  -0.000027   0.000000   0.000000   0.000000   0.000000
    13  C    5.154802   0.000005   0.000000   0.000000  -0.000002   0.000001
    14  I    0.000005   6.687212   0.000002   0.000000   0.000000   0.000004
    15  H    0.000000   0.000002   0.516912  -0.025554  -0.025101   0.004385
    16  H    0.000000   0.000000  -0.025554   0.534710  -0.027325  -0.001901
    17  H   -0.000002   0.000000  -0.025101  -0.027325   0.522058  -0.003127
    18  H    0.000001   0.000004   0.004385  -0.001901  -0.003127   0.584820
    19  H    0.000000   0.000013  -0.000069  -0.000078  -0.000087  -0.002309
    20  H    0.000000  -0.000001  -0.000014   0.001791  -0.000053  -0.004779
    21  H    0.000000   0.000004   0.002992   0.000111  -0.000042   0.004611
    22  H    0.000000   0.001251  -0.000015  -0.000002  -0.000007  -0.000005
    23  H    0.000155   0.001066   0.000000   0.000000   0.000000   0.000000
    24  H   -0.000028   0.000000   0.000009   0.000061   0.000805   0.006790
    25  H   -0.042490   0.000004   0.000000   0.000000  -0.000001  -0.000001
    26  H   -0.002246  -0.000001   0.000000   0.000000   0.000000   0.000000
    27  H    0.004467   0.000011   0.000000   0.000000   0.000000   0.000000
    28  H   -0.004226   0.000003   0.000000   0.000000   0.000000   0.000000
    29  H    0.393307   0.000000   0.000000   0.000000   0.000036  -0.000001
    30  H    0.386366   0.000000   0.000000   0.000000   0.000000   0.000000
    31  H    0.384732   0.000003   0.000000   0.000000   0.000000   0.000000
              19         20         21         22         23         24
     1  C    0.004390  -0.002260  -0.004543   0.000088   0.000000  -0.000969
     2  C   -0.038641  -0.036762  -0.035812  -0.003601   0.000004   0.007790
     3  C    0.393307   0.393189   0.389136  -0.000337   0.000000   0.000054
     4  C   -0.000299   0.004514  -0.004809  -0.028930   0.000024  -0.009108
     5  C   -0.000186   0.000275  -0.000567   0.383761   0.002599   0.000169
     6  C   -0.000160   0.000002   0.000079  -0.025171  -0.027847  -0.000026
     7  C   -0.000004   0.000000  -0.000005   0.002459   0.384453  -0.000096
     8  C   -0.000009   0.000000   0.000003   0.000151  -0.029232   0.004951
     9  C    0.000003  -0.000023  -0.000133   0.001375   0.002485  -0.027083
    10  O    0.000002  -0.000001  -0.000004  -0.000033  -0.000035   0.260938
    11  C    0.000000   0.000000   0.000000   0.000006  -0.004067   0.000050
    12  C    0.000000   0.000000   0.000000   0.000000   0.000259   0.000002
    13  C    0.000000   0.000000   0.000000   0.000000   0.000155  -0.000028
    14  I    0.000013  -0.000001   0.000004   0.001251   0.001066   0.000000
    15  H   -0.000069  -0.000014   0.002992  -0.000015   0.000000   0.000009
    16  H   -0.000078   0.001791   0.000111  -0.000002   0.000000   0.000061
    17  H   -0.000087  -0.000053  -0.000042  -0.000007   0.000000   0.000805
    18  H   -0.002309  -0.004779   0.004611  -0.000005   0.000000   0.006790
    19  H    0.512783  -0.024040  -0.027753  -0.000239   0.000000  -0.000007
    20  H   -0.024040   0.521083  -0.028507   0.000120   0.000000   0.000005
    21  H   -0.027753  -0.028507   0.536091  -0.000335   0.000000   0.000005
    22  H   -0.000239   0.000120  -0.000335   0.442870  -0.000091  -0.000006
    23  H    0.000000   0.000000   0.000000  -0.000091   0.442181   0.000003
    24  H   -0.000007   0.000005   0.000005  -0.000006   0.000003   0.270976
    25  H    0.000000   0.000000   0.000000   0.000000   0.000024  -0.000014
    26  H    0.000000   0.000000   0.000000   0.000000   0.000058   0.000000
    27  H    0.000000   0.000000   0.000000   0.000000  -0.000055   0.000000
    28  H    0.000000   0.000000   0.000000   0.000000   0.000187   0.000000
    29  H    0.000000   0.000000   0.000000   0.000000  -0.000005  -0.000027
    30  H    0.000000   0.000000   0.000000   0.000000  -0.000006   0.000001
    31  H    0.000000   0.000000   0.000000   0.000000   0.000010   0.000000
              25         26         27         28         29         30
     1  C    0.000001   0.000000   0.000000   0.000000  -0.000002   0.000000
     2  C   -0.000004   0.000000   0.000000   0.000000   0.000002   0.000000
     3  C    0.000000   0.000000   0.000000   0.000000   0.000000   0.000000
     4  C    0.000231   0.000001  -0.000009   0.000001   0.000005   0.000001
     5  C    0.000003   0.000000  -0.000004  -0.000003  -0.000007   0.000000
     6  C   -0.000090   0.000002  -0.000164   0.000089   0.000014   0.000001
     7  C    0.003056   0.000206   0.000203   0.000065   0.000123  -0.000010
     8  C   -0.052550   0.004610  -0.000554  -0.005041  -0.005244   0.006010
     9  C   -0.005572  -0.000019  -0.000028  -0.000180   0.000487  -0.000023
    10  O    0.002879  -0.000001   0.000002  -0.000004   0.003055   0.000021
    11  C    0.420425  -0.037549  -0.038515  -0.033430  -0.033135  -0.038772
    12  C   -0.043181   0.393885   0.391922   0.383951   0.004051  -0.003128
    13  C   -0.042490  -0.002246   0.004467  -0.004226   0.393307   0.386366
    14  I    0.000004  -0.000001   0.000011   0.000003   0.000000   0.000000
    15  H    0.000000   0.000000   0.000000   0.000000   0.000000   0.000000
    16  H    0.000000   0.000000   0.000000   0.000000   0.000000   0.000000
    17  H   -0.000001   0.000000   0.000000   0.000000   0.000036   0.000000
    18  H   -0.000001   0.000000   0.000000   0.000000  -0.000001   0.000000
    19  H    0.000000   0.000000   0.000000   0.000000   0.000000   0.000000
    20  H    0.000000   0.000000   0.000000   0.000000   0.000000   0.000000
    21  H    0.000000   0.000000   0.000000   0.000000   0.000000   0.000000
    22  H    0.000000   0.000000   0.000000   0.000000   0.000000   0.000000
    23  H    0.000024   0.000058  -0.000055   0.000187  -0.000005  -0.000006
    24  H   -0.000014   0.000000   0.000000   0.000000  -0.000027   0.000001
    25  H    0.520174  -0.004109  -0.002008   0.004104  -0.002807  -0.002044
    26  H   -0.004109   0.525965  -0.024597  -0.029338  -0.000050   0.001783
    27  H   -0.002008  -0.024597   0.524387  -0.029305  -0.000090  -0.000068
    28  H    0.004104  -0.029338  -0.029305   0.550704  -0.000057   0.000110
    29  H   -0.002807  -0.000050  -0.000090  -0.000057   0.506749  -0.025738
    30  H   -0.002044   0.001783  -0.000068   0.000110  -0.025738   0.543099
    31  H    0.004152  -0.000018  -0.000085   0.003077  -0.026594  -0.027851
              31
     1  C    0.000000
     2  C    0.000000
     3  C    0.000000
     4  C    0.000006
     5  C   -0.000009
     6  C   -0.000015
     7  C    0.001338
     8  C   -0.004669
     9  C    0.000596
    10  O    0.000010
    11  C   -0.036531
    12  C   -0.003539
    13  C    0.384732
    14  I    0.000003
    15  H    0.000000
    16  H    0.000000
    17  H    0.000000
    18  H    0.000000
    19  H    0.000000
    20  H    0.000000
    21  H    0.000000
    22  H    0.000000
    23  H    0.000010
    24  H    0.000000
    25  H    0.004152
    26  H   -0.000018
    27  H   -0.000085
    28  H    0.003077
    29  H   -0.026594
    30  H   -0.027851
    31  H    0.545471
 Mulliken charges:
               1
     1  C   -0.482414
     2  C   -0.228579
     3  C   -0.495489
     4  C    0.005151
     5  C   -0.158420
     6  C   -0.409996
     7  C   -0.155896
     8  C   -0.012749
     9  C    0.389891
    10  O   -0.824721
    11  C   -0.170731
    12  C   -0.499729
    13  C   -0.480893
    14  I    0.168089
    15  H    0.179360
    16  H    0.168604
    17  H    0.173883
    18  H    0.155934
    19  H    0.183384
    20  H    0.175459
    21  H    0.169479
    22  H    0.226689
    23  H    0.227829
    24  H    0.484756
    25  H    0.199818
    26  H    0.171418
    27  H    0.174489
    28  H    0.159291
    29  H    0.185926
    30  H    0.160248
    31  H    0.159918
 Sum of Mulliken charges =   0.00000
 Mulliken charges with hydrogens summed into heavy atoms:
               1
     1  C    0.039433
     2  C   -0.072645
     3  C    0.032832
     4  C    0.005151
     5  C    0.068270
     6  C   -0.409996
     7  C    0.071934
     8  C   -0.012749
     9  C    0.389891
    10  O   -0.339965
    11  C    0.029086
    12  C    0.005470
    13  C    0.025198
    14  I    0.168089
 DipInt: DoE/N= T F RetVal/Mat= T F Init=T NMatP=  1 IDeriv=0 Min/MaxMlt=  0  4
 Entering OneElI...
 OneElI was handed   235783095 working-precision words.
 Multipole integrals L=0 to 4 MinM= 0 MaxM= 0.
 Requested accuracy = 0.1000D-12
 ShPair: Thresh= 1.00D-13 NBox=     0 BxSize= 0.00D+00 RnKept= 1.74D+01
         NSMCal=                 4095 NSMKep=                3675
 PrsmSu:  NPrtUS=   1 ThrOK=F IAlg=1 NPAlg=1 LenDen=           0.
 Prism:   IPart=     0 DynPar=F LinDyn=F Incr=          36.
 PRISM was handed   235485253 working-precision words and  3675 shell-pairs
 IPart=  0 NShTot=        3675 NBatch=         108 AvBLen=        34.0
 PrSmSu:  NxtVal=             37.
 Electronic moments (au):
       -104.00000000       -252.11153129         -0.97519450          8.69535108
      -1689.03366788      -2047.08289667       -251.90303584         -2.66085757
        -49.61220833          0.30135305      -6054.17654726        -33.32114347
       -138.50850298      -6628.13161079         16.75661201       -531.22310787
       -815.76415821        -33.32989992        379.92669583          4.71272110
     -51775.16702081     -85731.22637813      -2034.97773840        248.27535430
      -3003.93840146       -185.50780786         85.55055517      -1110.38340736
         -7.06963828     -29745.56811264      -5026.47044496      -7348.32801608
         41.69591672      -2100.21636782        -99.15611363
 Electronic spatial extent (au):  <R**2>=           3988.0196
 DipInt: DoE/N= F T RetVal/Mat= T F Init=T NMatP=  1 IDeriv=0 Min/MaxMlt=  0  4
 Nuclear    moments (au):
        104.00000000        253.05601596          0.30598751         -8.81773544
       1614.56857686       1978.35089190        174.20432435         -1.68330390
         48.50827184          0.05863489       5795.65772597         22.16070564
        145.80644347       6560.49676627        -48.16367099        528.56938603
        727.21550484         30.71979467       -380.57057864         -2.09356872
      44130.90507742      78221.48976043       1063.98293476       -476.81562960
       2859.18225320        158.85234307        -86.55255047       1033.09706638
          3.32795233      27263.65864923       3498.98013411       5894.18109333
        -18.90703165       2040.18895239         90.30158974
 Total      moments (au):
          0.00000000          0.94448467         -0.66920699         -0.12238436
        -74.46509103        -68.73200477        -77.69871149         -4.34416147
         -1.10393649          0.35998794       -258.51882128        -11.16043783
          7.29794050        -67.63484452        -31.40705897         -2.65372184
        -88.54865337         -2.61010525         -0.64388281          2.61915238
      -7644.26194339      -7509.73661770       -970.99480365       -228.54027531
       -144.75614826        -26.65546478         -1.00199531        -77.28634098
         -3.74168596      -2481.90946341      -1527.49031085      -1454.14692275
         22.78888507        -60.02741543         -8.85452390
 Traceless Quadrup. (au):
         -0.83315526          4.89993100         -4.06677573         -4.34416147
         -1.10393649          0.35998794
 Charge=              0.0000 electrons
 Dipole moment (field-independent basis, Debye):
    X=              2.4006    Y=             -1.7010    Z=             -0.3111  Tot=              2.9586
 Quadrupole moment (field-independent basis, Debye-Ang):
   XX=           -100.1581   YY=            -92.4469   ZZ=           -104.5074
   XY=             -5.8430   XZ=             -1.4848   YZ=              0.4842
 Traceless Quadrupole moment (field-independent basis, Debye-Ang):
   XX=             -1.1206   YY=              6.5906   ZZ=             -5.4700
   XY=             -5.8430   XZ=             -1.4848   YZ=              0.4842
 Octapole moment (field-independent basis, Debye-Ang**2):
  XXX=           -184.0037  YYY=             -7.9436  ZZZ=              5.1944  XYY=            -48.1399
  XXY=            -22.3543  XXZ=             -1.8888  XZZ=            -63.0255  YZZ=             -1.8578
  YYZ=             -0.4583  XYZ=              1.8642
 Hexadecapole moment (field-independent basis, Debye-Ang**3):
 XXXX=          -2879.1954 YYYY=          -2828.5267 ZZZZ=           -365.7232 XXXY=            -86.0792
 XXXZ=            -54.5221 YYYX=            -10.0397 YYYZ=             -0.3774 ZZZX=            -29.1097
 ZZZY=             -1.4093 XXYY=           -934.8061 XXZZ=           -575.3261 YYZZ=           -547.7014
 XXYZ=              8.5834 YYXZ=            -22.6092 ZZXY=             -3.3350
 N-N= 8.752943528026D+02 E-N=-3.029277279201D+03  KE= 5.418827847165D+02
 Entering OneElI...
 OneElI was handed   235816292 working-precision words.
 Calculate electrostatic properties
    NBasis =   224  MinDer = 0  MaxDer = 0
    NGrid  =    31  NMatD  =   1
 Requested accuracy = 0.1000D-12
 ShPair: Thresh= 1.00D-13 NBox=     0 BxSize= 0.00D+00 RnKept= 1.74D+01
         NSMCal=                 4095 NSMKep=                3356
 PrsmSu:  NPrtUS=   1 ThrOK=F IAlg=1 NPAlg=1 LenDen=           0.
 Prism:   IPart=     0 DynPar=F LinDyn=F Incr=         512.
 PRISM was handed   235546367 working-precision words and  3356 shell-pairs
 IPart=  0 NShTot=      104036 NBatch=        3432 AvBLen=        30.3
 PrSmSu:  NxtVal=            513.
 --------------------------------------------------------
       Center         ----      EFG at Nuclei      ----
                      3XX-RR        3YY-RR        3ZZ-RR
 --------------------------------------------------------
     1   Atom        0.016845      0.014792     -0.031637
     2   Atom        0.000819     -0.015542      0.014722
     3   Atom        0.004980     -0.023561      0.018581
     4   Atom        0.138586      0.086837     -0.225424
     5   Atom        0.162326      0.141412     -0.303738
     6   Atom       -0.319787      0.352184     -0.032397
     7   Atom        0.175854      0.138439     -0.314293
     8   Atom        0.153154      0.122837     -0.275991
     9   Atom       -0.175573      0.389362     -0.213789
    10   Atom       -1.264269     -0.322039      1.586308
    11   Atom        0.030580     -0.058690      0.028110
    12   Atom        0.003645     -0.010557      0.006912
    13   Atom        0.014347      0.021600     -0.035947
    14   Atom       -0.084752      0.041066      0.043686
    15   Atom       -0.081187      0.142567     -0.061380
    16   Atom        0.005524     -0.148528      0.143004
    17   Atom        0.008841     -0.107942      0.099101
    18   Atom       -0.090443      0.124805     -0.034362
    19   Atom        0.063372      0.131343     -0.194715
    20   Atom       -0.016405     -0.131008      0.147413
    21   Atom       -0.073700      0.118439     -0.044739
    22   Atom        0.026256     -0.195294      0.169038
    23   Atom        0.025428     -0.193241      0.167813
    24   Atom        0.099940     -0.342810      0.242870
    25   Atom       -0.111908      0.129708     -0.017801
    26   Atom       -0.019464     -0.127072      0.146536
    27   Atom        0.076107      0.127838     -0.203945
    28   Atom       -0.089748      0.112334     -0.022586
    29   Atom        0.006707     -0.103621      0.096914
    30   Atom        0.009343     -0.152450      0.143107
    31   Atom       -0.094418      0.141428     -0.047010
 --------------------------------------------------------
                        XY            XZ            YZ
 --------------------------------------------------------
     1   Atom        0.007021     -0.027358      0.019074
     2   Atom        0.023381      0.012356      0.003626
     3   Atom       -0.028606     -0.004605     -0.017481
     4   Atom        0.008007     -0.018887      0.004130
     5   Atom        0.010288     -0.029684      0.008775
     6   Atom       -0.000087      0.020399      0.001981
     7   Atom       -0.015136     -0.030515     -0.003298
     8   Atom        0.012803     -0.028122      0.004011
     9   Atom       -0.014692     -0.003696      0.004660
    10   Atom        0.725280      0.270035     -0.306486
    11   Atom       -0.049274     -0.031524      0.014899
    12   Atom        0.014852      0.000092      0.010417
    13   Atom       -0.019245     -0.013445     -0.021728
    14   Atom       -0.000323      0.009674      0.000007
    15   Atom       -0.048192      0.213631      0.047288
    16   Atom        0.209313      0.008914     -0.017369
    17   Atom       -0.193468     -0.080848     -0.100090
    18   Atom       -0.042501      0.205798      0.026834
    19   Atom        0.032709     -0.173897      0.069920
    20   Atom        0.210205      0.026531     -0.039990
    21   Atom       -0.078946      0.208218      0.069473
    22   Atom       -0.195626      0.007469      0.008987
    23   Atom        0.196120      0.009860     -0.013210
    24   Atom        0.222200      0.034948     -0.080599
    25   Atom        0.044462      0.204860     -0.038463
    26   Atom       -0.211878      0.027172      0.040212
    27   Atom       -0.034571     -0.162961     -0.079477
    28   Atom        0.089796      0.203033     -0.072678
    29   Atom        0.189743     -0.088799      0.111182
    30   Atom       -0.208923      0.007475      0.015053
    31   Atom        0.050712      0.212351     -0.047607
 --------------------------------------------------------


 ---------------------------------------------------------------------------------
              Nuclear Quadrupole Coupling Constant in Principal Axis System
 ---------------------------------------------------------------------------------

       Atom             a.u.   MegaHertz   Gauss  10(-4) cm-1        Axes

              Baa    -0.0855   -14.260    -5.088    -4.757  0.9972  0.0026 -0.0747
    14 I(127) Bbb     0.0411     6.851     2.445     2.285 -0.0022  1.0000  0.0052
              Bcc     0.0444     7.409     2.644     2.471  0.0747 -0.0050  0.9972
 

 ---------------------------------------------------------------------------------

 No NMR shielding tensors so no spin-rotation constants.
 Leave Link  601 at Fri Jan 17 11:57:35 2014, MaxMem=   235929600 cpu:         0.4
 FitSet:  NAtFit=    31 NAtPot=    31 NAtFrz=     0 MDM=    35 TotChg=   0.00000
 Merz-Kollman atomic radii used.
 Read replacement radii for each type of atom:
 Rad(53) =   2.700000000000D+00
 Atom Element Radius
    1     6    1.50
    2     6    1.50
    3     6    1.50
    4     6    1.50
    5     6    1.50
    6     6    1.50
    7     6    1.50
    8     6    1.50
    9     6    1.50
   10     8    1.40
   11     6    1.50
   12     6    1.50
   13     6    1.50
   14    53    2.70
   15     1    1.20
   16     1    1.20
   17     1    1.20
   18     1    1.20
   19     1    1.20
   20     1    1.20
   21     1    1.20
   22     1    1.20
   23     1    1.20
   24     1    1.20
   25     1    1.20
   26     1    1.20
   27     1    1.20
   28     1    1.20
   29     1    1.20
   30     1    1.20
   31     1    1.20
 Generate VDW surfaces: Layer= 5 Dens= 2 Start= 1.400 Inc= 0.179

 **********************************************************************

            Electrostatic Properties Using The SCF Density

 **********************************************************************

       Atomic Center    1 is at   2.737998 -2.829303  1.128978
       Atomic Center    2 is at   2.099055 -2.536277 -0.247476
       Atomic Center    3 is at   1.284722 -3.746856 -0.727858
       Atomic Center    4 is at   1.311852 -1.226968 -0.216741
       Atomic Center    5 is at  -0.085422 -1.208861 -0.117724
       Atomic Center    6 is at  -0.766118  0.001218 -0.057887
       Atomic Center    7 is at  -0.086294  1.214940 -0.101721
       Atomic Center    8 is at   1.308007  1.239203 -0.203345
       Atomic Center    9 is at   1.989011  0.007673 -0.251324
       Atomic Center   10 is at   3.359035  0.081402 -0.331947
       Atomic Center   11 is at   2.102835  2.540258 -0.235187
       Atomic Center   12 is at   1.310381  3.738048 -0.779585
       Atomic Center   13 is at   2.682898  2.857824  1.159739
       Atomic Center   14 is at  -2.911119 -0.003520  0.101438
       Atomic Center   15 is at   1.957132 -2.994182  1.879813
       Atomic Center   16 is at   3.364614 -3.728084  1.085349
       Atomic Center   17 is at   3.357992 -1.996355  1.478324
       Atomic Center   18 is at   2.915978 -2.420047 -0.981383
       Atomic Center   19 is at   0.800396 -3.552137 -1.690486
       Atomic Center   20 is at   1.942031 -4.615244 -0.845638
       Atomic Center   21 is at   0.509231 -4.023244 -0.004497
       Atomic Center   22 is at  -0.635023 -2.141606 -0.092085
       Atomic Center   23 is at  -0.637121  2.146900 -0.064968
       Atomic Center   24 is at   3.723973 -0.806970 -0.455936
       Atomic Center   25 is at   2.952995  2.371573 -0.907155
       Atomic Center   26 is at   1.976268  4.600160 -0.898770
       Atomic Center   27 is at   0.862616  3.519014 -1.755423
       Atomic Center   28 is at   0.507244  4.044604 -0.098475
       Atomic Center   29 is at   3.303975  2.034447  1.524788
       Atomic Center   30 is at   3.302889  3.761813  1.121504
       Atomic Center   31 is at   1.878294  3.029298  1.885197
      ESP Fit Center   32 is at   3.456240 -2.829303  3.102332
      ESP Fit Center   33 is at   3.097119 -3.451319  3.102332
      ESP Fit Center   34 is at   3.298748 -4.057173  2.737671
      ESP Fit Center   35 is at   3.873567 -3.559089  2.737671
      ESP Fit Center   36 is at   1.828671 -1.254303  2.178978
      ESP Fit Center   37 is at   4.806094 -2.829303  0.764317
      ESP Fit Center   38 is at   4.556651 -2.829303  0.078978
      ESP Fit Center   39 is at   3.627397 -3.929544 -0.612137
      ESP Fit Center   40 is at   1.739934 -1.914261 -2.220831
      ESP Fit Center   41 is at   1.845472 -4.974726  0.880835
      ESP Fit Center   42 is at   0.718761 -5.736004 -0.363197
      ESP Fit Center   43 is at   0.038416 -5.397232 -1.092519
      ESP Fit Center   44 is at   0.375395 -5.321856 -1.777858
      ESP Fit Center   45 is at   2.634576 -3.746856 -2.336551
      ESP Fit Center   46 is at   1.092618 -5.082970 -2.336551
      ESP Fit Center   47 is at   1.311852 -1.226968  1.883259
      ESP Fit Center   48 is at   1.670973 -0.604952  1.756613
      ESP Fit Center   49 is at   0.952731 -0.604952  1.756613
      ESP Fit Center   50 is at   2.030094 -1.226968 -2.190096
      ESP Fit Center   51 is at   0.952731 -0.604952 -2.190096
      ESP Fit Center   52 is at   0.593610 -1.226968 -2.190096
      ESP Fit Center   53 is at   0.952731 -1.848984 -2.190096
      ESP Fit Center   54 is at   1.670973 -1.848984 -2.190096
      ESP Fit Center   55 is at   1.311852 -1.226968 -2.316741
      ESP Fit Center   56 is at   0.632820 -1.208861  1.855630
      ESP Fit Center   57 is at   0.273699 -1.830877  1.855630
      ESP Fit Center   58 is at   0.273699 -0.586845 -2.091079
      ESP Fit Center   59 is at   0.273699 -1.830877 -2.091079
      ESP Fit Center   60 is at  -0.085422 -1.208861 -2.217724
      ESP Fit Center   61 is at   0.583736  0.001218  1.550806
      ESP Fit Center   62 is at   0.631948  1.214940  1.871633
      ESP Fit Center   63 is at   0.272827  1.836956  1.871633
      ESP Fit Center   64 is at   0.272827  1.836956 -2.075076
      ESP Fit Center   65 is at   0.272827  0.592924 -2.075076
      ESP Fit Center   66 is at  -0.086294  1.214940 -2.201721
      ESP Fit Center   67 is at   1.308007  1.239203  1.896655
      ESP Fit Center   68 is at   0.948886  0.617187  1.770009
      ESP Fit Center   69 is at   1.667128  0.617187  1.770009
      ESP Fit Center   70 is at   2.026249  1.239203 -2.176700
      ESP Fit Center   71 is at   1.667128  1.861219 -2.176700
      ESP Fit Center   72 is at   0.948886  1.861219 -2.176700
      ESP Fit Center   73 is at   0.589765  1.239203 -2.176700
      ESP Fit Center   74 is at   0.948886  0.617187 -2.176700
      ESP Fit Center   75 is at   1.308007  1.239203 -2.303345
      ESP Fit Center   76 is at   1.989011  0.007673  1.848676
      ESP Fit Center   77 is at   2.707253  0.007673  1.722030
      ESP Fit Center   78 is at   2.348132  0.629689  1.722030
      ESP Fit Center   79 is at   1.270769  0.007673  1.722030
      ESP Fit Center   80 is at   2.348132 -0.614343  1.722030
      ESP Fit Center   81 is at   2.707253  0.007673 -2.224679
      ESP Fit Center   82 is at   2.348132  0.629689 -2.224679
      ESP Fit Center   83 is at   1.629890  0.629689 -2.224679
      ESP Fit Center   84 is at   1.270769  0.007673 -2.224679
      ESP Fit Center   85 is at   1.629890 -0.614343 -2.224679
      ESP Fit Center   86 is at   2.348132 -0.614343 -2.224679
      ESP Fit Center   87 is at   1.989011  0.007673 -2.351324
      ESP Fit Center   88 is at   3.359035  0.081402  1.628053
      ESP Fit Center   89 is at   4.109094  0.081402  1.478857
      ESP Fit Center   90 is at   4.744964  0.081402  1.053982
      ESP Fit Center   91 is at   4.559285  0.774367  1.053982
      ESP Fit Center   92 is at   4.559285 -0.611562  1.053982
      ESP Fit Center   93 is at   5.169839  0.081402  0.418112
      ESP Fit Center   94 is at   5.013287  0.817922  0.418112
      ESP Fit Center   95 is at   4.570699  1.427092  0.418112
      ESP Fit Center   96 is at   5.319035  0.081402 -0.331947
      ESP Fit Center   97 is at   5.186681  0.789436 -0.331947
      ESP Fit Center   98 is at   4.807492  1.401846 -0.331947
      ESP Fit Center   99 is at   5.169839  0.081402 -1.082007
      ESP Fit Center  100 is at   5.013287  0.817922 -1.082007
      ESP Fit Center  101 is at   4.570699  1.427092 -1.082007
      ESP Fit Center  102 is at   4.744964  0.081402 -1.717876
      ESP Fit Center  103 is at   4.559285  0.774367 -1.717876
      ESP Fit Center  104 is at   4.052000  1.281652 -1.717876
      ESP Fit Center  105 is at   4.109094  0.081402 -2.142751
      ESP Fit Center  106 is at   3.734065  0.730973 -2.142751
      ESP Fit Center  107 is at   2.984005  0.730973 -2.142751
      ESP Fit Center  108 is at   2.984005 -0.568168 -2.142751
      ESP Fit Center  109 is at   3.734065 -0.568168 -2.142751
      ESP Fit Center  110 is at   3.359035  0.081402 -2.291947
      ESP Fit Center  111 is at   3.631176  3.933526 -0.599848
      ESP Fit Center  112 is at   1.743714  1.918242 -2.208542
      ESP Fit Center  113 is at   1.871130  4.965918  0.829108
      ESP Fit Center  114 is at   0.744419  5.727196 -0.414924
      ESP Fit Center  115 is at   0.744419  5.727196 -1.144246
      ESP Fit Center  116 is at   0.064074  5.388425 -1.144246
      ESP Fit Center  117 is at   0.401054  5.313048 -1.829585
      ESP Fit Center  118 is at   2.660235  3.738048 -2.388278
      ESP Fit Center  119 is at   1.118277  5.074163 -2.388278
      ESP Fit Center  120 is at   2.445950  3.008262 -2.388278
      ESP Fit Center  121 is at   3.401140  2.857824  3.133093
      ESP Fit Center  122 is at   3.042019  3.479840  3.133093
      ESP Fit Center  123 is at   3.818467  3.587610  2.768432
      ESP Fit Center  124 is at   1.773571  1.282824  2.209739
      ESP Fit Center  125 is at   4.750994  2.857824  0.795078
      ESP Fit Center  126 is at   4.501551  2.857824  0.109739
      ESP Fit Center  127 is at   4.344320  2.118111  0.109739
      ESP Fit Center  128 is at  -2.911119 -0.003520  3.881438
      ESP Fit Center  129 is at  -2.173678 -0.003520  3.808806
      ESP Fit Center  130 is at  -2.542398  0.635123  3.808806
      ESP Fit Center  131 is at  -3.279840  0.635123  3.808806
      ESP Fit Center  132 is at  -3.648560 -0.003520  3.808806
      ESP Fit Center  133 is at  -3.279840 -0.642163  3.808806
      ESP Fit Center  134 is at  -2.542398 -0.642163  3.808806
      ESP Fit Center  135 is at  -1.464576 -0.003520  3.593703
      ESP Fit Center  136 is at  -1.658376  0.719752  3.593703
      ESP Fit Center  137 is at  -2.187847  1.249223  3.593703
      ESP Fit Center  138 is at  -2.911119  1.443023  3.593703
      ESP Fit Center  139 is at  -3.634391  1.249223  3.593703
      ESP Fit Center  140 is at  -4.163862  0.719752  3.593703
      ESP Fit Center  141 is at  -4.357662 -0.003520  3.593703
      ESP Fit Center  142 is at  -4.163862 -0.726792  3.593703
      ESP Fit Center  143 is at  -3.634391 -1.256263  3.593703
      ESP Fit Center  144 is at  -2.911119 -1.450063  3.593703
      ESP Fit Center  145 is at  -2.187847 -1.256263  3.593703
      ESP Fit Center  146 is at  -1.658376 -0.726792  3.593703
      ESP Fit Center  147 is at  -0.811064 -0.003520  3.244393
      ESP Fit Center  148 is at  -0.937712  0.714741  3.244393
      ESP Fit Center  149 is at  -1.302383  1.346370  3.244393
      ESP Fit Center  150 is at  -1.861091  1.815181  3.244393
      ESP Fit Center  151 is at  -2.546448  2.064631  3.244393
      ESP Fit Center  152 is at  -3.275790  2.064631  3.244393
      ESP Fit Center  153 is at  -3.961147  1.815181  3.244393
      ESP Fit Center  154 is at  -4.519855  1.346370  3.244393
      ESP Fit Center  155 is at  -4.884526  0.714741  3.244393
      ESP Fit Center  156 is at  -5.011175 -0.003520  3.244393
      ESP Fit Center  157 is at  -4.884526 -0.721781  3.244393
      ESP Fit Center  158 is at  -4.519855 -1.353410  3.244393
      ESP Fit Center  159 is at  -3.961147 -1.822221  3.244393
      ESP Fit Center  160 is at  -3.275790 -2.071671  3.244393
      ESP Fit Center  161 is at  -2.546448 -2.071671  3.244393
      ESP Fit Center  162 is at  -1.861091 -1.822221  3.244393
      ESP Fit Center  163 is at  -1.302383 -1.353410  3.244393
      ESP Fit Center  164 is at  -0.937712 -0.721781  3.244393
      ESP Fit Center  165 is at  -0.238255 -0.003520  2.774302
      ESP Fit Center  166 is at  -0.337372  0.717610  2.774302
      ESP Fit Center  167 is at  -0.627372  1.385257  2.774302
      ESP Fit Center  168 is at  -1.086748  1.949905  2.774302
      ESP Fit Center  169 is at  -1.681428  2.369676  2.774302
      ESP Fit Center  170 is at  -2.367309  2.613438  2.774302
      ESP Fit Center  171 is at  -3.093522  2.663113  2.774302
      ESP Fit Center  172 is at  -3.806207  2.515015  2.774302
      ESP Fit Center  173 is at  -4.452507  2.180129  2.774302
      ESP Fit Center  174 is at  -4.984490  1.683292  2.774302
      ESP Fit Center  175 is at  -5.362700  1.061352  2.774302
      ESP Fit Center  176 is at  -5.559087  0.360435  2.774302
      ESP Fit Center  177 is at  -5.559087 -0.367475  2.774302
      ESP Fit Center  178 is at  -5.362700 -1.068392  2.774302
      ESP Fit Center  179 is at  -4.984490 -1.690332  2.774302
      ESP Fit Center  180 is at  -4.452507 -2.187169  2.774302
      ESP Fit Center  181 is at  -3.806207 -2.522055  2.774302
      ESP Fit Center  182 is at  -3.093522 -2.670153  2.774302
      ESP Fit Center  183 is at  -2.367309 -2.620478  2.774302
      ESP Fit Center  184 is at  -1.681428 -2.376716  2.774302
      ESP Fit Center  185 is at  -1.086748 -1.956945  2.774302
      ESP Fit Center  186 is at  -0.627372 -1.392297  2.774302
      ESP Fit Center  187 is at  -0.337372 -0.724650  2.774302
      ESP Fit Center  188 is at   0.231836 -0.003520  2.201493
      ESP Fit Center  189 is at   0.147117  0.721295  2.201493
      ESP Fit Center  190 is at  -0.102472  1.407036  2.201493
      ESP Fit Center  191 is at  -0.503476  2.016733  2.201493
      ESP Fit Center  192 is at  -1.034276  2.517517  2.201493
      ESP Fit Center  193 is at  -1.666258  2.882392  2.201493
      ESP Fit Center  194 is at  -2.365351  3.091687  2.201493
      ESP Fit Center  195 is at  -3.093866  3.134118  2.201493
      ESP Fit Center  196 is at  -3.812529  3.007398  2.201493
      ESP Fit Center  197 is at  -4.482597  2.718359  2.201493
      ESP Fit Center  198 is at  -5.067946  2.282583  2.201493
      ESP Fit Center  199 is at  -5.537020  1.723562  2.201493
      ESP Fit Center  200 is at  -5.864531  1.071434  2.201493
      ESP Fit Center  201 is at  -6.032823  0.361355  2.201493
      ESP Fit Center  202 is at  -6.032823 -0.368395  2.201493
      ESP Fit Center  203 is at  -5.864531 -1.078474  2.201493
      ESP Fit Center  204 is at  -5.537020 -1.730602  2.201493
      ESP Fit Center  205 is at  -5.067946 -2.289623  2.201493
      ESP Fit Center  206 is at  -4.482597 -2.725399  2.201493
      ESP Fit Center  207 is at  -3.812529 -3.014438  2.201493
      ESP Fit Center  208 is at  -3.093866 -3.141158  2.201493
      ESP Fit Center  209 is at  -2.365351 -3.098727  2.201493
      ESP Fit Center  210 is at  -1.666258 -2.889432  2.201493
      ESP Fit Center  211 is at  -1.034276 -2.524557  2.201493
      ESP Fit Center  212 is at  -0.503476 -2.023773  2.201493
      ESP Fit Center  213 is at  -0.102472 -1.414076  2.201493
      ESP Fit Center  214 is at   0.147117 -0.728335  2.201493
      ESP Fit Center  215 is at  -1.164987  3.020870  1.547981
      ESP Fit Center  216 is at  -1.831950  3.317821  1.547981
      ESP Fit Center  217 is at  -2.546078  3.469614  1.547981
      ESP Fit Center  218 is at  -3.276160  3.469614  1.547981
      ESP Fit Center  219 is at  -3.990288  3.317821  1.547981
      ESP Fit Center  220 is at  -4.657251  3.020870  1.547981
      ESP Fit Center  221 is at  -5.247900  2.591738  1.547981
      ESP Fit Center  222 is at  -5.736420  2.049182  1.547981
      ESP Fit Center  223 is at  -6.101462  1.416912  1.547981
      ESP Fit Center  224 is at  -6.327069  0.722563  1.547981
      ESP Fit Center  225 is at  -6.403384 -0.003520  1.547981
      ESP Fit Center  226 is at  -6.327069 -0.729603  1.547981
      ESP Fit Center  227 is at  -6.101462 -1.423952  1.547981
      ESP Fit Center  228 is at  -5.736420 -2.056222  1.547981
      ESP Fit Center  229 is at  -5.247900 -2.598778  1.547981
      ESP Fit Center  230 is at  -4.657251 -3.027910  1.547981
      ESP Fit Center  231 is at  -3.990288 -3.324861  1.547981
      ESP Fit Center  232 is at  -3.276160 -3.476654  1.547981
      ESP Fit Center  233 is at  -2.546078 -3.476654  1.547981
      ESP Fit Center  234 is at  -1.831950 -3.324861  1.547981
      ESP Fit Center  235 is at  -1.164987 -3.027910  1.547981
      ESP Fit Center  236 is at  -0.574338 -2.598778  1.547981
      ESP Fit Center  237 is at  -1.492371  3.421642  0.838879
      ESP Fit Center  238 is at  -2.187847  3.632612  0.838879
      ESP Fit Center  239 is at  -2.911119  3.703848  0.838879
      ESP Fit Center  240 is at  -3.634391  3.632612  0.838879
      ESP Fit Center  241 is at  -4.329867  3.421642  0.838879
      ESP Fit Center  242 is at  -4.970823  3.079044  0.838879
      ESP Fit Center  243 is at  -5.532624  2.617985  0.838879
      ESP Fit Center  244 is at  -5.993683  2.056183  0.838879
      ESP Fit Center  245 is at  -6.336281  1.415228  0.838879
      ESP Fit Center  246 is at  -6.547251  0.719752  0.838879
      ESP Fit Center  247 is at  -6.618487 -0.003520  0.838879
      ESP Fit Center  248 is at  -6.547251 -0.726792  0.838879
      ESP Fit Center  249 is at  -6.336281 -1.422268  0.838879
      ESP Fit Center  250 is at  -5.993683 -2.063224  0.838879
      ESP Fit Center  251 is at  -5.532624 -2.625025  0.838879
      ESP Fit Center  252 is at  -4.970823 -3.086084  0.838879
      ESP Fit Center  253 is at  -4.329867 -3.428682  0.838879
      ESP Fit Center  254 is at  -3.634391 -3.639652  0.838879
      ESP Fit Center  255 is at  -2.911119 -3.710888  0.838879
      ESP Fit Center  256 is at  -2.187847 -3.639652  0.838879
      ESP Fit Center  257 is at  -1.492371 -3.428682  0.838879
      ESP Fit Center  258 is at  -2.019950  3.669928  0.101438
      ESP Fit Center  259 is at  -2.731259  3.772199  0.101438
      ESP Fit Center  260 is at  -3.449069  3.738005  0.101438
      ESP Fit Center  261 is at  -4.147436  3.568583  0.101438
      ESP Fit Center  262 is at  -4.801119  3.270056  0.101438
      ESP Fit Center  263 is at  -5.386493  2.853213  0.101438
      ESP Fit Center  264 is at  -5.882400  2.333121  0.101438
      ESP Fit Center  265 is at  -6.270917  1.728576  0.101438
      ESP Fit Center  266 is at  -6.538002  1.061429  0.101438
      ESP Fit Center  267 is at  -6.674003  0.355792  0.101438
      ESP Fit Center  268 is at  -6.674003 -0.362832  0.101438
      ESP Fit Center  269 is at  -6.538002 -1.068469  0.101438
      ESP Fit Center  270 is at  -6.270917 -1.735616  0.101438
      ESP Fit Center  271 is at  -5.882400 -2.340161  0.101438
      ESP Fit Center  272 is at  -5.386493 -2.860253  0.101438
      ESP Fit Center  273 is at  -4.801119 -3.277096  0.101438
      ESP Fit Center  274 is at  -4.147436 -3.575623  0.101438
      ESP Fit Center  275 is at  -3.449069 -3.745045  0.101438
      ESP Fit Center  276 is at  -2.731259 -3.779239  0.101438
      ESP Fit Center  277 is at  -2.019950 -3.676968  0.101438
      ESP Fit Center  278 is at  -2.187847  3.632612 -0.636003
      ESP Fit Center  279 is at  -2.911119  3.703848 -0.636003
      ESP Fit Center  280 is at  -3.634391  3.632612 -0.636003
      ESP Fit Center  281 is at  -4.329867  3.421642 -0.636003
      ESP Fit Center  282 is at  -4.970823  3.079044 -0.636003
      ESP Fit Center  283 is at  -5.532624  2.617985 -0.636003
      ESP Fit Center  284 is at  -5.993683  2.056183 -0.636003
      ESP Fit Center  285 is at  -6.336281  1.415228 -0.636003
      ESP Fit Center  286 is at  -6.547251  0.719752 -0.636003
      ESP Fit Center  287 is at  -6.618487 -0.003520 -0.636003
      ESP Fit Center  288 is at  -6.547251 -0.726792 -0.636003
      ESP Fit Center  289 is at  -6.336281 -1.422268 -0.636003
      ESP Fit Center  290 is at  -5.993683 -2.063224 -0.636003
      ESP Fit Center  291 is at  -5.532624 -2.625025 -0.636003
      ESP Fit Center  292 is at  -4.970823 -3.086084 -0.636003
      ESP Fit Center  293 is at  -4.329867 -3.428682 -0.636003
      ESP Fit Center  294 is at  -3.634391 -3.639652 -0.636003
      ESP Fit Center  295 is at  -2.911119 -3.710888 -0.636003
      ESP Fit Center  296 is at  -2.187847 -3.639652 -0.636003
      ESP Fit Center  297 is at  -1.831950  3.317821 -1.345105
      ESP Fit Center  298 is at  -2.546078  3.469614 -1.345105
      ESP Fit Center  299 is at  -3.276160  3.469614 -1.345105
      ESP Fit Center  300 is at  -3.990288  3.317821 -1.345105
      ESP Fit Center  301 is at  -4.657251  3.020870 -1.345105
      ESP Fit Center  302 is at  -5.247900  2.591738 -1.345105
      ESP Fit Center  303 is at  -5.736420  2.049182 -1.345105
      ESP Fit Center  304 is at  -6.101462  1.416912 -1.345105
      ESP Fit Center  305 is at  -6.327069  0.722563 -1.345105
      ESP Fit Center  306 is at  -6.403384 -0.003520 -1.345105
      ESP Fit Center  307 is at  -6.327069 -0.729603 -1.345105
      ESP Fit Center  308 is at  -6.101462 -1.423952 -1.345105
      ESP Fit Center  309 is at  -5.736420 -2.056222 -1.345105
      ESP Fit Center  310 is at  -5.247900 -2.598778 -1.345105
      ESP Fit Center  311 is at  -4.657251 -3.027910 -1.345105
      ESP Fit Center  312 is at  -3.990288 -3.324861 -1.345105
      ESP Fit Center  313 is at  -3.276160 -3.476654 -1.345105
      ESP Fit Center  314 is at  -2.546078 -3.476654 -1.345105
      ESP Fit Center  315 is at  -1.831950 -3.324861 -1.345105
      ESP Fit Center  316 is at   0.231836 -0.003520 -1.998618
      ESP Fit Center  317 is at  -0.503476  2.016733 -1.998618
      ESP Fit Center  318 is at  -1.034276  2.517517 -1.998618
      ESP Fit Center  319 is at  -1.666258  2.882392 -1.998618
      ESP Fit Center  320 is at  -2.365351  3.091687 -1.998618
      ESP Fit Center  321 is at  -3.093866  3.134118 -1.998618
      ESP Fit Center  322 is at  -3.812529  3.007398 -1.998618
      ESP Fit Center  323 is at  -4.482597  2.718359 -1.998618
      ESP Fit Center  324 is at  -5.067946  2.282583 -1.998618
      ESP Fit Center  325 is at  -5.537020  1.723562 -1.998618
      ESP Fit Center  326 is at  -5.864531  1.071434 -1.998618
      ESP Fit Center  327 is at  -6.032823  0.361355 -1.998618
      ESP Fit Center  328 is at  -6.032823 -0.368395 -1.998618
      ESP Fit Center  329 is at  -5.864531 -1.078474 -1.998618
      ESP Fit Center  330 is at  -5.537020 -1.730602 -1.998618
      ESP Fit Center  331 is at  -5.067946 -2.289623 -1.998618
      ESP Fit Center  332 is at  -4.482597 -2.725399 -1.998618
      ESP Fit Center  333 is at  -3.812529 -3.014438 -1.998618
      ESP Fit Center  334 is at  -3.093866 -3.141158 -1.998618
      ESP Fit Center  335 is at  -2.365351 -3.098727 -1.998618
      ESP Fit Center  336 is at  -1.666258 -2.889432 -1.998618
      ESP Fit Center  337 is at  -1.034276 -2.524557 -1.998618
      ESP Fit Center  338 is at  -0.238255 -0.003520 -2.571426
      ESP Fit Center  339 is at  -0.337372  0.717610 -2.571426
      ESP Fit Center  340 is at  -0.627372  1.385257 -2.571426
      ESP Fit Center  341 is at  -1.086748  1.949905 -2.571426
      ESP Fit Center  342 is at  -1.681428  2.369676 -2.571426
      ESP Fit Center  343 is at  -2.367309  2.613438 -2.571426
      ESP Fit Center  344 is at  -3.093522  2.663113 -2.571426
      ESP Fit Center  345 is at  -3.806207  2.515015 -2.571426
      ESP Fit Center  346 is at  -4.452507  2.180129 -2.571426
      ESP Fit Center  347 is at  -4.984490  1.683292 -2.571426
      ESP Fit Center  348 is at  -5.362700  1.061352 -2.571426
      ESP Fit Center  349 is at  -5.559087  0.360435 -2.571426
      ESP Fit Center  350 is at  -5.559087 -0.367475 -2.571426
      ESP Fit Center  351 is at  -5.362700 -1.068392 -2.571426
      ESP Fit Center  352 is at  -4.984490 -1.690332 -2.571426
      ESP Fit Center  353 is at  -4.452507 -2.187169 -2.571426
      ESP Fit Center  354 is at  -3.806207 -2.522055 -2.571426
      ESP Fit Center  355 is at  -3.093522 -2.670153 -2.571426
      ESP Fit Center  356 is at  -2.367309 -2.620478 -2.571426
      ESP Fit Center  357 is at  -1.681428 -2.376716 -2.571426
      ESP Fit Center  358 is at  -1.086748 -1.956945 -2.571426
      ESP Fit Center  359 is at  -0.627372 -1.392297 -2.571426
      ESP Fit Center  360 is at  -0.337372 -0.724650 -2.571426
      ESP Fit Center  361 is at  -0.811064 -0.003520 -3.041517
      ESP Fit Center  362 is at  -0.937712  0.714741 -3.041517
      ESP Fit Center  363 is at  -1.302383  1.346370 -3.041517
      ESP Fit Center  364 is at  -1.861091  1.815181 -3.041517
      ESP Fit Center  365 is at  -2.546448  2.064631 -3.041517
[...]
 3776 Fit      -0.004128
 3777 Fit      -0.004000
 3778 Fit      -0.003813
 3779 Fit      -0.003602
 3780 Fit      -0.003395
 3781 Fit      -0.003218
 3782 Fit      -0.003087
 3783 Fit      -0.003011
 3784 Fit      -0.002987
 3785 Fit      -0.003004
 3786 Fit      -0.003043
 3787 Fit      -0.003076
 3788 Fit      -0.003066
 3789 Fit      -0.002975
 3790 Fit      -0.002760
 3791 Fit      -0.002374
 3792 Fit      -0.001771
 3793 Fit      -0.000902
 3794 Fit       0.000285
 3795 Fit       0.001851
 3796 Fit       0.003871
 3797 Fit       0.006412
 3798 Fit       0.000882
 3799 Fit      -0.000728
 3800 Fit      -0.001921
 3801 Fit      -0.002803
 3802 Fit      -0.003426
 3803 Fit      -0.003827
 3804 Fit      -0.004040
 3805 Fit      -0.004098
 3806 Fit      -0.004037
 3807 Fit      -0.003890
 3808 Fit      -0.003693
 3809 Fit      -0.003477
 3810 Fit      -0.003270
 3811 Fit      -0.003094
 3812 Fit      -0.002965
 3813 Fit      -0.002891
 3814 Fit      -0.002869
 3815 Fit      -0.002889
 3816 Fit      -0.002933
 3817 Fit      -0.002975
 3818 Fit      -0.002983
 3819 Fit      -0.002919
 3820 Fit      -0.002742
 3821 Fit      -0.002407
 3822 Fit      -0.001868
 3823 Fit      -0.001074
 3824 Fit       0.000032
 3825 Fit       0.001522
 3826 Fit       0.003505
 3827 Fit       0.006187
 3828 Fit      -0.000519
 3829 Fit      -0.001776
 3830 Fit      -0.002702
 3831 Fit      -0.003359
 3832 Fit      -0.003784
 3833 Fit      -0.004012
 3834 Fit      -0.004079
 3835 Fit      -0.004020
 3836 Fit      -0.003873
 3837 Fit      -0.003673
 3838 Fit      -0.003452
 3839 Fit      -0.003241
 3840 Fit      -0.003062
 3841 Fit      -0.002931
 3842 Fit      -0.002855
 3843 Fit      -0.002834
 3844 Fit      -0.002855
 3845 Fit      -0.002902
 3846 Fit      -0.002945
 3847 Fit      -0.002952
 3848 Fit      -0.002884
 3849 Fit      -0.002698
 3850 Fit      -0.002346
 3851 Fit      -0.001780
 3852 Fit      -0.000946
 3853 Fit       0.000216
 3854 Fit       0.001785
 3855 Fit       0.003878
 3856 Fit      -0.000742
 3857 Fit      -0.001862
 3858 Fit      -0.002739
 3859 Fit      -0.003380
 3860 Fit      -0.003802
 3861 Fit      -0.004033
 3862 Fit      -0.004105
 3863 Fit      -0.004053
 3864 Fit      -0.003911
 3865 Fit      -0.003716
 3866 Fit      -0.003500
 3867 Fit      -0.003292
 3868 Fit      -0.003115
 3869 Fit      -0.002985
 3870 Fit      -0.002908
 3871 Fit      -0.002885
 3872 Fit      -0.002903
 3873 Fit      -0.002945
 3874 Fit      -0.002983
 3875 Fit      -0.002983
 3876 Fit      -0.002906
 3877 Fit      -0.002711
 3878 Fit      -0.002349
 3879 Fit      -0.001774
 3880 Fit      -0.000934
 3881 Fit       0.000225
 3882 Fit       0.001762
 3883 Fit       0.003739
 3884 Fit      -0.001264
 3885 Fit      -0.002134
 3886 Fit      -0.002897
 3887 Fit      -0.003482
 3888 Fit      -0.003879
 3889 Fit      -0.004102
 3890 Fit      -0.004176
 3891 Fit      -0.004132
 3892 Fit      -0.004002
 3893 Fit      -0.003819
 3894 Fit      -0.003616
 3895 Fit      -0.003418
 3896 Fit      -0.003248
 3897 Fit      -0.003122
 3898 Fit      -0.003045
 3899 Fit      -0.003018
 3900 Fit      -0.003028
 3901 Fit      -0.003059
 3902 Fit      -0.003084
 3903 Fit      -0.003071
 3904 Fit      -0.002983
 3905 Fit      -0.002778
 3906 Fit      -0.002415
 3907 Fit      -0.001848
 3908 Fit      -0.001032
 3909 Fit       0.000072
 3910 Fit       0.001497
 3911 Fit       0.003230
 3912 Fit      -0.001526
 3913 Fit      -0.002141
 3914 Fit      -0.002840
 3915 Fit      -0.003439
 3916 Fit      -0.003879
 3917 Fit      -0.004153
 3918 Fit      -0.004274
 3919 Fit      -0.004269
 3920 Fit      -0.004170
 3921 Fit      -0.004008
 3922 Fit      -0.003818
 3923 Fit      -0.003628
 3924 Fit      -0.003461
 3925 Fit      -0.003334
 3926 Fit      -0.003254
 3927 Fit      -0.003221
 3928 Fit      -0.003222
 3929 Fit      -0.003238
 3930 Fit      -0.003240
 3931 Fit      -0.003195
 3932 Fit      -0.003062
 3933 Fit      -0.002800
 3934 Fit      -0.002364
 3935 Fit      -0.001712
 3936 Fit      -0.000806
 3937 Fit       0.000381
 3938 Fit       0.001847
 3939 Fit       0.003503
 3940 Fit      -0.001740
 3941 Fit      -0.002271
 3942 Fit      -0.002887
 3943 Fit      -0.003460
 3944 Fit      -0.003916
 3945 Fit      -0.004224
 3946 Fit      -0.004388
 3947 Fit      -0.004424
 3948 Fit      -0.004361
 3949 Fit      -0.004229
 3950 Fit      -0.004060
 3951 Fit      -0.003884
 3952 Fit      -0.003726
 3953 Fit      -0.003602
 3954 Fit      -0.003519
 3955 Fit      -0.003478
 3956 Fit      -0.003464
 3957 Fit      -0.003458
 3958 Fit      -0.003430
 3959 Fit      -0.003345
 3960 Fit      -0.003163
 3961 Fit      -0.002842
 3962 Fit      -0.002342
 3963 Fit      -0.001626
 3964 Fit      -0.000664
 3965 Fit       0.000558
 3966 Fit       0.002032
 3967 Fit       0.003766
 3968 Fit      -0.002520
 3969 Fit      -0.003139
 3970 Fit      -0.003672
 3971 Fit      -0.004096
 3972 Fit      -0.004388
 3973 Fit      -0.004546
 3974 Fit      -0.004585
 3975 Fit      -0.004529
 3976 Fit      -0.004409
 3977 Fit      -0.004256
 3978 Fit      -0.004099
 3979 Fit      -0.003962
 3980 Fit      -0.003857
 3981 Fit      -0.003788
 3982 Fit      -0.003748
 3983 Fit      -0.003717
 3984 Fit      -0.003669
 3985 Fit      -0.003568
 3986 Fit      -0.003375
 3987 Fit      -0.003049
 3988 Fit      -0.002550
 3989 Fit      -0.001846
 3990 Fit      -0.000912
 3991 Fit       0.000267
 3992 Fit       0.001729
 3993 Fit      -0.005321
 3994 Fit      -0.006305
 3995 Fit      -0.005610
 3996 Fit      -0.002168
 3997 Fit      -0.002964
 3998 Fit      -0.003551
 3999 Fit      -0.004025
 4000 Fit      -0.004387
 4001 Fit      -0.004625
 4002 Fit      -0.004739
 4003 Fit      -0.004746
 4004 Fit      -0.004672
 4005 Fit      -0.004549
 4006 Fit      -0.004409
 4007 Fit      -0.004277
 4008 Fit      -0.004169
 4009 Fit      -0.004090
 4010 Fit      -0.004030
 4011 Fit      -0.003967
 4012 Fit      -0.003870
 4013 Fit      -0.003699
 4014 Fit      -0.003413
 4015 Fit      -0.002973
 4016 Fit      -0.002347
 4017 Fit      -0.001512
 4018 Fit      -0.000457
 4019 Fit       0.000847
 4020 Fit       0.002491
 4021 Fit      -0.000322
 4022 Fit      -0.003087
 4023 Fit      -0.004750
 4024 Fit      -0.005355
 4025 Fit      -0.004937
 4026 Fit      -0.003818
 4027 Fit      -0.002801
 4028 Fit      -0.002597
 4029 Fit      -0.002997
 4030 Fit      -0.003513
 4031 Fit      -0.003978
 4032 Fit      -0.004367
 4033 Fit      -0.004660
 4034 Fit      -0.004843
 4035 Fit      -0.004916
 4036 Fit      -0.004897
 4037 Fit      -0.004814
 4038 Fit      -0.004698
 4039 Fit      -0.004576
 4040 Fit      -0.004467
 4041 Fit      -0.004375
 4042 Fit      -0.004290
 4043 Fit      -0.004187
 4044 Fit      -0.004031
 4045 Fit      -0.003782
 4046 Fit      -0.003401
 4047 Fit      -0.002860
 4048 Fit      -0.002146
 4049 Fit      -0.001263
 4050 Fit      -0.000238
 4051 Fit       0.000846
 4052 Fit       0.001690
 4053 Fit       0.001653
 4054 Fit       0.000441
 4055 Fit      -0.001412
 4056 Fit      -0.003296
 4057 Fit      -0.004478
 4058 Fit      -0.004901
 4059 Fit      -0.004685
 4060 Fit      -0.004163
 4061 Fit      -0.003829
 4062 Fit      -0.003874
 4063 Fit      -0.004141
 4064 Fit      -0.004462
 4065 Fit      -0.004746
 4066 Fit      -0.004949
 4067 Fit      -0.005050
 4068 Fit      -0.005058
 4069 Fit      -0.004996
 4070 Fit      -0.004895
 4071 Fit      -0.004783
 4072 Fit      -0.004672
 4073 Fit      -0.004561
 4074 Fit      -0.004426
 4075 Fit      -0.004233
 4076 Fit      -0.003942
 4077 Fit      -0.003520
 4078 Fit      -0.002955
 4079 Fit      -0.002268
 4080 Fit      -0.001531
 4081 Fit      -0.000901
 4082 Fit      -0.000671
 4083 Fit      -0.001125
 4084 Fit      -0.002196
 4085 Fit      -0.003465
 4086 Fit      -0.004418
 4087 Fit      -0.004747
 4088 Fit      -0.004694
 4089 Fit      -0.004522
 4090 Fit      -0.004487
 4091 Fit      -0.004625
 4092 Fit      -0.004836
 4093 Fit      -0.005028
 4094 Fit      -0.005147
 4095 Fit      -0.005177
 4096 Fit      -0.005133
 4097 Fit      -0.005042
 4098 Fit      -0.004928
 4099 Fit      -0.004798
 4100 Fit      -0.004637
 4101 Fit      -0.004413
 4102 Fit      -0.004091
 4103 Fit      -0.003658
 4104 Fit      -0.003140
 4105 Fit      -0.002629
 4106 Fit      -0.002298
 4107 Fit      -0.002363
 4108 Fit      -0.002902
 4109 Fit      -0.003710
 4110 Fit      -0.004495
 4111 Fit      -0.004774
 4112 Fit      -0.004826
 4113 Fit      -0.004855
 4114 Fit      -0.004969
 4115 Fit      -0.005118
 4116 Fit      -0.005221
 4117 Fit      -0.005237
 4118 Fit      -0.005174
 4119 Fit      -0.005057
 4120 Fit      -0.004894
 4121 Fit      -0.004670
 4122 Fit      -0.004358
 4123 Fit      -0.003965
 4124 Fit      -0.003575
 4125 Fit      -0.003364
 4126 Fit      -0.003509
 4127 Fit      -0.003981
 4128 Fit      -0.004646
 4129 Fit      -0.004896
 4130 Fit      -0.005024
 4131 Fit      -0.005144
 4132 Fit      -0.005231
 4133 Fit      -0.005220
 4134 Fit      -0.005104
 4135 Fit      -0.004898
 4136 Fit      -0.004604
 4137 Fit      -0.004282
 4138 Fit      -0.004121
 4139 Fit      -0.004289
 4140 Fit      -0.004817
 4141 Fit      -0.005049
 4142 Fit      -0.005157
 4143 Fit      -0.005072
 4144 Fit      -0.004814
 4145 Fit      -0.004638
 4146 Fit      -0.004970
 4147 Fit       0.002988
 4148 Fit       0.003176
 4149 Fit       0.002098
 4150 Fit       0.001696
 4151 Fit       0.002827
 4152 Fit       0.003883
 4153 Fit       0.003867
 4154 Fit      -0.000135
 4155 Fit       0.000001
 4156 Fit       0.001583
 4157 Fit       0.003481
 4158 Fit       0.004587
 4159 Fit       0.004812
 4160 Fit       0.004594
 4161 Fit       0.004379
 4162 Fit       0.005399
 4163 Fit       0.005616
 4164 Fit       0.005479
 4165 Fit       0.006391
 4166 Fit       0.006645
 4167 Fit       0.006434
 4168 Fit       0.006335
 4169 Fit       0.006375
 4170 Fit       0.007051
 4171 Fit       0.007454
 4172 Fit       0.007605
 4173 Fit       0.007498
 4174 Fit       0.008692
 4175 Fit       0.007645
 4176 Fit       0.008160
 4177 Fit       0.008576
 4178 Fit       0.008801
 4179 Fit       0.008838
 4180 Fit       0.008754
 4181 Fit       0.010429
 4182 Fit       0.009048
 4183 Fit       0.009543
 4184 Fit       0.009868
 4185 Fit       0.010039
 4186 Fit       0.010102
 4187 Fit       0.010164
 4188 Fit       0.012538
 4189 Fit       0.011106
 4190 Fit       0.011208
 4191 Fit       0.011292
 4192 Fit       0.011418
 4193 Fit       0.011726
 4194 Fit       0.015013
 4195 Fit       0.012884
 4196 Fit       0.012694
 4197 Fit       0.012846
 4198 Fit       0.013462
 4199 Fit       0.017689
 4200 Fit       0.014440
 4201 Fit       0.015204
 4202 Fit       0.016974
 4203 Fit       0.003575
 4204 Fit       0.002412
 4205 Fit       0.004684
 4206 Fit       0.003696
 4207 Fit       0.001977
 4208 Fit       0.000114
 4209 Fit       0.005926
 4210 Fit       0.004993
 4211 Fit       0.003235
 4212 Fit       0.001134
 4213 Fit      -0.000937
 4214 Fit      -0.002969
 4215 Fit       0.007486
 4216 Fit       0.006472
 4217 Fit       0.004296
 4218 Fit       0.001272
 4219 Fit       0.009780
 4220 Fit       0.008556
 4221 Fit       0.005147
 4222 Fit       0.013633
 4223 Fit       0.012654
 4224 Fit       0.016799
 4225 Fit       0.017673
 4226 Fit       0.019971
 4227 Fit       0.020724
 4228 Fit       0.015351
 4229 Fit       0.016329
 4230 Fit       0.018115
 4231 Fit       0.017365
 4232 Fit       0.018032
 4233 Fit       0.014430
 4234 Fit       0.015811
 4235 Fit       0.014388
 4236 Fit       0.013531
 4237 Fit       0.009761
 4238 Fit       0.012177
 4239 Fit       0.013505
 4240 Fit       0.011835
 4241 Fit       0.009981
 4242 Fit       0.007378
 4243 Fit       0.011211
 4244 Fit       0.009684
 4245 Fit       0.003965
 4246 Fit       0.004535
 4247 Fit       0.002877
 4248 Fit       0.003558
 4249 Fit       0.004399
 4250 Fit       0.005011
 4251 Fit       0.005661
 4252 Fit       0.007591
 4253 Fit       0.006740
 4254 Fit       0.004124
 4255 Fit       0.003757
 4256 Fit       0.004712
 4257 Fit       0.005430
 4258 Fit       0.006187
 4259 Fit       0.007041
 4260 Fit       0.006077
 4261 Fit       0.004839
 4262 Fit       0.003581
 4263 Fit       0.004066
 4264 Fit       0.005043
 4265 Fit       0.005823
 4266 Fit       0.005002
 4267 Fit       0.008251
 4268 Fit       0.009750
 4269 Fit       0.007182
 4270 Fit       0.008184
 4271 Fit       0.009444
 4272 Fit       0.010966
 4273 Fit       0.007294
 4274 Fit       0.008418
 4275 Fit       0.009655
 4276 Fit       0.011013
 4277 Fit       0.012627
 4278 Fit       0.016229
 4279 Fit       0.007164
 4280 Fit       0.008288
 4281 Fit       0.009461
 4282 Fit       0.010675
 4283 Fit       0.012027
 4284 Fit       0.013735
 4285 Fit       0.014681
 4286 Fit       0.006714
 4287 Fit       0.007779
 4288 Fit       0.008887
 4289 Fit       0.009998
 4290 Fit       0.011176
 4291 Fit       0.012609
 4292 Fit       0.012739
 4293 Fit       0.006404
 4294 Fit       0.007484
 4295 Fit       0.008640
 4296 Fit       0.009800
 4297 Fit       0.011071
 4298 Fit       0.006924
 4299 Fit       0.008124
 4300 Fit       0.009360
 4301 Fit       0.007173
 4302 Fit       0.007464
 4303 Fit       0.006691
 4304 Fit       0.006859
 4305 Fit       0.007088
 4306 Fit       0.006344
 4307 Fit       0.006480
 4308 Fit       0.006769
 4309 Fit       0.005812
 4310 Fit       0.005932
 4311 Fit       0.006161
 4312 Fit       0.005321
 4313 Fit       0.005483
 4314 Fit       0.010783
 4315 Fit       0.016162
 4316 Fit       0.012092
 4317 Fit       0.021191
 4318 Fit       0.017507
 4319 Fit       0.012856
 4320 Fit       0.022132
 4321 Fit       0.018253
 4322 Fit       0.012960
 4323 Fit       0.022195
 4324 Fit       0.018279
 4325 Fit       0.012415
 4326 Fit       0.018087
 4327 Fit       0.011321
 4328 Fit       0.017332
 4329 Fit      -0.007126
 4330 Fit      -0.003664
 4331 Fit      -0.005294
 4332 Fit      -0.002529
 4333 Fit      -0.000529
 4334 Fit       0.001261
 4335 Fit      -0.003774
 4336 Fit      -0.001684
 4337 Fit      -0.000210
 4338 Fit       0.000958
 4339 Fit      -0.002686
 4340 Fit      -0.001031
 4341 Fit      -0.000009
 4342 Fit      -0.005101
 4343 Fit      -0.002070
 4344 Fit      -0.000812
 4345 Fit      -0.003929
 4346 Fit      -0.001910
 4347 Fit      -0.001162
 4348 Fit      -0.003630
 4349 Fit      -0.003217
 4350 Fit      -0.002111
 4351 Fit       0.001195
 4352 Fit       0.000268
 4353 Fit       0.002274
 4354 Fit       0.001548
 4355 Fit       0.000736
 4356 Fit      -0.000078
 4357 Fit       0.002783
 4358 Fit       0.002496
 4359 Fit       0.001960
 4360 Fit       0.001208
 4361 Fit       0.000321
 4362 Fit       0.001643
 4363 Fit       0.002258
 4364 Fit       0.002497
 4365 Fit       0.002380
 4366 Fit       0.001943
 4367 Fit       0.001234
 4368 Fit       0.000338
 4369 Fit       0.001299
 4370 Fit       0.001803
 4371 Fit       0.002046
 4372 Fit       0.001951
 4373 Fit       0.001524
 4374 Fit       0.000812
 4375 Fit      -0.000084
 4376 Fit       0.000761
 4377 Fit       0.001224
 4378 Fit       0.001356
 4379 Fit       0.001063
 4380 Fit       0.000384
 4381 Fit      -0.000532
 4382 Fit       0.000445
 4383 Fit       0.000294
 4384 Fit      -0.000395
 4385 Fit      -0.001461
 4386 Fit      -0.001570
 4387 Fit      -0.001083
 4388 Fit      -0.001176
 4389 Fit      -0.001561
 4390 Fit      -0.004459
 4391 Fit      -0.002840
 4392 Fit      -0.001018
 4393 Fit      -0.000841
 4394 Fit      -0.000789
 4395 Fit      -0.000774
 4396 Fit      -0.000867
 4397 Fit      -0.001313
 4398 Fit      -0.003331
 4399 Fit      -0.002510
 4400 Fit      -0.001559
 4401 Fit      -0.000873
 4402 Fit      -0.000672
 4403 Fit      -0.000710
 4404 Fit      -0.001160
 4405 Fit      -0.001683
 4406 Fit      -0.001394
 4407 Fit      -0.000881
 4408 Fit       0.000311
 4409 Fit       0.000949
 4410 Fit      -0.000067
 4411 Fit       0.000538
 4412 Fit       0.001003
 4413 Fit      -0.000251
 4414 Fit       0.000187
 4415 Fit       0.000620
 4416 Fit      -0.000314
 4417 Fit       0.000058
 4418 Fit       0.000416
 4419 Fit      -0.000523
 4420 Fit      -0.000219
 4421 Fit      -0.002664
 4422 Fit      -0.002507
 4423 Fit      -0.002098
 4424 Fit      -0.002861
 4425 Fit      -0.001502
 4426 Fit      -0.001439
 4427 Fit      -0.001958
 4428 Fit      -0.004397
 4429 Fit      -0.001651
 4430 Fit      -0.000469
 4431 Fit      -0.000613
 4432 Fit      -0.001217
 4433 Fit      -0.002340
 4434 Fit      -0.000160
 4435 Fit      -0.001046
 4436 Fit      -0.001740
 4437 Fit      -0.003355
 4438 Fit      -0.002771
 4439 Fit      -0.003140
 4440 Fit      -0.005170
 4441 Fit      -0.005973
 4442 Fit      -0.001955
 4443 Fit      -0.001704
 4444 Fit      -0.001344
 4445 Fit      -0.000725
 4446 Fit      -0.000611
 4447 Fit      -0.000989
 4448 Fit      -0.002054
 4449 Fit      -0.000911
 4450 Fit      -0.000091
 4451 Fit       0.000329
 4452 Fit       0.000329
 4453 Fit      -0.000068
 4454 Fit      -0.000760
 4455 Fit      -0.001930
 4456 Fit      -0.000537
 4457 Fit       0.000454
 4458 Fit       0.001031
 4459 Fit       0.001192
 4460 Fit       0.000940
 4461 Fit       0.000291
 4462 Fit      -0.001890
 4463 Fit      -0.000269
 4464 Fit       0.000865
 4465 Fit       0.001581
 4466 Fit       0.001917
 4467 Fit       0.001882
 4468 Fit      -0.001774
 4469 Fit      -0.000002
 4470 Fit       0.001242
 4471 Fit       0.002127
 4472 Fit       0.002784
 4473 Fit      -0.001303
 4474 Fit       0.000619
 4475 Fit       0.002076
 4476 Fit      -0.002908
 4477 Fit      -0.002668
 4478 Fit      -0.002203
 4479 Fit      -0.002697
 4480 Fit      -0.003572
 4481 Fit      -0.003678
 4482 Fit      -0.002557
 4483 Fit      -0.001875
 4484 Fit      -0.001589
 4485 Fit      -0.002131
 4486 Fit      -0.003465
 4487 Fit      -0.004672
 4488 Fit      -0.004906
 4489 Fit      -0.001853
 4490 Fit      -0.001254
 4491 Fit      -0.001005
 4492 Fit      -0.001492
 4493 Fit      -0.001075
 4494 Fit      -0.000454
 4495 Fit      -0.000258
 4496 Fit      -0.000048
 -----------------------------------------------------------------
 Leave Link  602 at Fri Jan 17 11:57:36 2014, MaxMem=   235929600 cpu:         1.8

 Test job not archived.
 1\1\GINC-G29\SP\RHF\Gen\C12H17I1O1\KOLAR\17-Jan-2014\0\\# hf/gen pseud
 o=read pop=(mk, readradii) iop(6/33=2,6/41=5,6/42=2)\\na resp\\0,1\C,0
 ,-2.737998,-2.829303,-1.128978\C,0,-2.099055,-2.536277,0.247476\C,0,-1
 .284722,-3.746856,0.727858\C,0,-1.311852,-1.226968,0.216741\C,0,0.0854
 22,-1.208861,0.117724\C,0,0.766118,0.001218,0.057887\C,0,0.086294,1.21
 494,0.101721\C,0,-1.308007,1.239203,0.203345\C,0,-1.989011,0.007673,0.
 251324\O,0,-3.359035,0.081402,0.331947\C,0,-2.102835,2.540258,0.235187
 \C,0,-1.310381,3.738048,0.779585\C,0,-2.682898,2.857824,-1.159739\I,0,
 2.911119,-0.00352,-0.101438\H,0,-1.957132,-2.994182,-1.879813\H,0,-3.3
 64614,-3.728084,-1.085349\H,0,-3.357992,-1.996355,-1.478324\H,0,-2.915
 978,-2.420047,0.981383\H,0,-0.800396,-3.552137,1.690486\H,0,-1.942031,
 -4.615244,0.845638\H,0,-0.509231,-4.023244,0.004497\H,0,0.635023,-2.14
 1606,0.092085\H,0,0.637121,2.1469,0.064968\H,0,-3.723973,-0.80697,0.45
 5936\H,0,-2.952995,2.371573,0.907155\H,0,-1.976268,4.60016,0.89877\H,0
 ,-0.862616,3.519014,1.755423\H,0,-0.507244,4.044604,0.098475\H,0,-3.30
 3975,2.034447,-1.524788\H,0,-3.302889,3.761813,-1.121504\H,0,-1.878294
 ,3.029298,-1.885197\\Version=AM64L-G09RevD.01\State=1-A\HF=-550.326059
 6\RMSD=5.662e-09\Dipole=-0.9444846,-0.669207,0.1223844\Quadrupole=-0.8
 331556,4.8999313,-4.0667757,4.3441613,-1.1039365,-0.359988\PG=C01 [X(C
 12H17I1O1)]\\@


 REALITY IS FOR PEOPLE WHO CAN'T FACE SCIENCE FICTION.
 Job cpu time:       0 days  0 hours  3 minutes  4.3 seconds.
 File lengths (MBytes):  RWF=     29 Int=      0 D2E=      0 Chk=      3 Scr=      1
 Normal termination of Gaussian 09 at Fri Jan 17 11:57:37 2014.
183.84user 0.41system 3:05.46elapsed 99%CPU (0avgtext+0avgdata 603440maxresident)k
8inputs+129224outputs (0major+171519minor)pagefaults 0swaps
