Linux g33 2.6.38.6-client #1 SMP Tue Jun 12 11:27:21 CEST 2012 x86_64 GNU/Linux
Thu Jan 16 22:36:46 CET 2014

 Entering Gaussian System, Link 0=/usr/local/programs/common/gaussian/gaussian09_d01/arch/amd64-pgi_10.4.0-acml/g09/g09
 Initial command:
 /usr/local/programs/common/gaussian/gaussian09_d01/arch/amd64-pgi_10.4.0-acml/g09/l1.exe "/scratch/kolar/g09_26120/Gau-1890.inp" -scrdir="/scratch/kolar/g09_26120/"
 Entering Link 1 = /usr/local/programs/common/gaussian/gaussian09_d01/arch/amd64-pgi_10.4.0-acml/g09/l1.exe PID=      1902.
  
 Copyright (c) 1988,1990,1992,1993,1995,1998,2003,2009,2013,
            Gaussian, Inc.  All Rights Reserved.
  
 This is part of the Gaussian(R) 09 program.  It is based on
 the Gaussian(R) 03 system (copyright 2003, Gaussian, Inc.),
 the Gaussian(R) 98 system (copyright 1998, Gaussian, Inc.),
 the Gaussian(R) 94 system (copyright 1995, Gaussian, Inc.),
 the Gaussian 92(TM) system (copyright 1992, Gaussian, Inc.),
 the Gaussian 90(TM) system (copyright 1990, Gaussian, Inc.),
 the Gaussian 88(TM) system (copyright 1988, Gaussian, Inc.),
 the Gaussian 86(TM) system (copyright 1986, Carnegie Mellon
 University), and the Gaussian 82(TM) system (copyright 1983,
 Carnegie Mellon University). Gaussian is a federally registered
 trademark of Gaussian, Inc.
  
 This software contains proprietary and confidential information,
 including trade secrets, belonging to Gaussian, Inc.
  
 This software is provided under written license and may be
 used, copied, transmitted, or stored only in accord with that
 written license.
  
 The following legend is applicable only to US Government
 contracts under FAR:
  
                    RESTRICTED RIGHTS LEGEND
  
 Use, reproduction and disclosure by the US Government is
 subject to restrictions as set forth in subparagraphs (a)
 and (c) of the Commercial Computer Software - Restricted
 Rights clause in FAR 52.227-19.
  
 Gaussian, Inc.
 340 Quinnipiac St., Bldg. 40, Wallingford CT 06492
  
  
 ---------------------------------------------------------------
 Warning -- This program may not be used in any manner that
 competes with the business of Gaussian, Inc. or will provide
 assistance to any competitor of Gaussian, Inc.  The licensee
 of this program is prohibited from giving any competitor of
 Gaussian, Inc. access to this program.  By using this program,
 the user acknowledges that Gaussian, Inc. is engaged in the
 business of creating and licensing software in the field of
 computational chemistry and represents and warrants to the
 licensee that it is not a competitor of Gaussian, Inc. and that
 it will not use this program in any manner prohibited above.
 ---------------------------------------------------------------
  

 Cite this work as:
 Gaussian 09, Revision D.01,
 M. J. Frisch, G. W. Trucks, H. B. Schlegel, G. E. Scuseria, 
 M. A. Robb, J. R. Cheeseman, G. Scalmani, V. Barone, B. Mennucci, 
 G. A. Petersson, H. Nakatsuji, M. Caricato, X. Li, H. P. Hratchian, 
 A. F. Izmaylov, J. Bloino, G. Zheng, J. L. Sonnenberg, M. Hada, 
 M. Ehara, K. Toyota, R. Fukuda, J. Hasegawa, M. Ishida, T. Nakajima, 
 Y. Honda, O. Kitao, H. Nakai, T. Vreven, J. A. Montgomery, Jr., 
 J. E. Peralta, F. Ogliaro, M. Bearpark, J. J. Heyd, E. Brothers, 
 K. N. Kudin, V. N. Staroverov, T. Keith, R. Kobayashi, J. Normand, 
 K. Raghavachari, A. Rendell, J. C. Burant, S. S. Iyengar, J. Tomasi, 
 M. Cossi, N. Rega, J. M. Millam, M. Klene, J. E. Knox, J. B. Cross, 
 V. Bakken, C. Adamo, J. Jaramillo, R. Gomperts, R. E. Stratmann, 
 O. Yazyev, A. J. Austin, R. Cammi, C. Pomelli, J. W. Ochterski, 
 R. L. Martin, K. Morokuma, V. G. Zakrzewski, G. A. Voth, 
 P. Salvador, J. J. Dannenberg, S. Dapprich, A. D. Daniels, 
 O. Farkas, J. B. Foresman, J. V. Ortiz, J. Cioslowski, 
 and D. J. Fox, Gaussian, Inc., Wallingford CT, 2013.
 
 ******************************************
 Gaussian 09:  AM64L-G09RevD.01 24-Apr-2013
                16-Jan-2014 
 ******************************************
 %mem=1800mb
 -----------------------------------------
 # hf/gen pop=mk iop(6/33=2,6/41=5,6/42=2)
 -----------------------------------------
 1/38=1/1;
 2/12=2,17=6,18=5,40=1/2;
 3/5=7,11=9,16=1,25=1,30=1/1,2,3;
 4//1;
 5/5=2,38=5/2;
 6/7=2,8=2,9=2,10=2,15=8,20=1,28=1,33=2,41=5,42=2/1,2;
 99/5=1,9=1/99;
 -------
 na resp
 -------
 Symbolic Z-matrix:
 Charge =  0 Multiplicity = 1
 6                     6.03106  -0.09387   0.0008 
 6                     4.76416  -0.927     0.00003 
 8                     3.64303  -0.0085   -0.00041 
 6                     2.4219   -0.56538   0.00033 
 8                     2.21034  -1.7609    0.00125 
 6                     1.34318   0.48082  -0.00014 
 6                     0.05842   0.03259   0.00062 
 6                    -1.21583   0.73564   0.00053 
 6                    -1.32313   2.14549   0.00106 
 6                    -2.55483   2.78679   0.0011 
 6                    -3.73274   2.03766   0.00062 
 6                    -3.67018   0.64513   0.00013 
 6                    -2.4328    0.00805   0.00011 
 35                   -2.46428  -1.90706  -0.00054 
 6                     1.75389   1.84876  -0.00148 
 7                     2.08914   2.96409  -0.00254 
 1                     6.07951   0.54506  -0.88636 
 1                     6.07871   0.54462   0.88833 
 1                     6.90556  -0.75351   0.00104 
 1                     4.68721  -1.56792   0.8839 
 1                     4.68814  -1.56759  -0.88416 
 1                    -0.00594  -1.05176   0.00133 
 1                    -0.42141   2.74389   0.00151 
 1                    -2.59391   3.87177   0.00153 
 1                    -4.7009    2.53022   0.00064 
 1                    -4.57692   0.05078  -0.00023 
 
                          Input orientation:                          
 ---------------------------------------------------------------------
 Center     Atomic      Atomic             Coordinates (Angstroms)
 Number     Number       Type             X           Y           Z
 ---------------------------------------------------------------------
      1          6           0        6.031063   -0.093868    0.000804
      2          6           0        4.764160   -0.926999    0.000034
      3          8           0        3.643033   -0.008504   -0.000412
      4          6           0        2.421898   -0.565381    0.000328
      5          8           0        2.210344   -1.760899    0.001249
      6          6           0        1.343182    0.480823   -0.000136
      7          6           0        0.058424    0.032586    0.000622
      8          6           0       -1.215834    0.735637    0.000534
      9          6           0       -1.323134    2.145488    0.001063
     10          6           0       -2.554828    2.786790    0.001096
     11          6           0       -3.732736    2.037656    0.000619
     12          6           0       -3.670178    0.645130    0.000132
     13          6           0       -2.432804    0.008046    0.000109
     14         35           0       -2.464276   -1.907055   -0.000537
     15          6           0        1.753892    1.848761   -0.001477
     16          7           0        2.089136    2.964085   -0.002538
     17          1           0        6.079507    0.545063   -0.886358
     18          1           0        6.078707    0.544622    0.888330
     19          1           0        6.905555   -0.753514    0.001035
     20          1           0        4.687212   -1.567919    0.883895
     21          1           0        4.688139   -1.567594   -0.884164
     22          1           0       -0.005937   -1.051763    0.001328
     23          1           0       -0.421410    2.743889    0.001511
     24          1           0       -2.593906    3.871769    0.001525
     25          1           0       -4.700896    2.530224    0.000636
     26          1           0       -4.576916    0.050776   -0.000227
 ---------------------------------------------------------------------
                    Distance matrix (angstroms):
                    1          2          3          4          5
     1  C    0.000000
     2  C    1.516295   0.000000
     3  O    2.389556   1.449331   0.000000
     4  C    3.639835   2.370012   1.342119   0.000000
     5  O    4.168559   2.686516   2.263512   1.214092   0.000000
     6  C    4.722976   3.699331   2.351331   1.502721   2.403599
     7  C    5.973978   4.802578   3.584845   2.437945   2.801312
     8  C    7.294217   6.206826   4.915520   3.863385   4.239267
     9  C    7.687583   6.818748   5.413178   4.623211   5.267383
    10  C    9.056253   8.207303   6.799055   6.000404   6.586983
    11  C    9.993756   8.999246   7.654328   6.682464   7.053313
    12  C    9.729347   8.579606   7.342363   6.211178   6.353701
    13  C    8.464481   7.257451   6.075860   4.888451   4.968701
    14  Br   8.686681   7.294573   6.395602   5.067029   4.676905
    15  C    4.697659   4.094699   2.649205   2.504859   3.638406
    16  N    4.988975   4.721895   3.354234   3.545119   4.726540
    17  H    1.094366   2.163977   2.650989   3.923952   4.590831
    18  H    1.094368   2.163971   2.651098   3.923379   4.589834
    19  H    1.095385   2.148411   3.346504   4.487602   4.802065
    20  H    2.181424   1.094491   2.074629   2.630099   2.636509
    21  H    2.181394   1.094508   2.074615   2.631084   2.638331
    22  H    6.112523   4.771729   3.795178   2.476076   2.326967
    23  H    7.048920   6.353389   4.908703   4.362989   5.217207
    24  H    9.492964   8.784607   7.345470   6.696760   7.403227
    25  H   11.048113  10.076690   8.721599   7.766400   8.135046
    26  H   10.608965   9.392111   8.220163   7.025884   7.024889
                    6          7          8          9         10
     6  C    0.000000
     7  C    1.360706   0.000000
     8  C    2.571671   1.455340   0.000000
     9  C    3.143303   2.524492   1.413928   0.000000
    10  C    4.529014   3.796673   2.449517   1.388646   0.000000
    11  C    5.309301   4.288729   2.833734   2.412014   1.395947
    12  C    5.016052   3.778582   2.456012   2.785622   2.414687
    13  C    3.805468   2.491349   1.417887   2.408324   2.781422
    14  Br   4.494296   3.182173   2.922744   4.210144   4.694719
    15  C    1.428264   2.484574   3.171486   3.091301   4.409645
    16  N    2.592883   3.566159   3.986078   3.509088   4.647349
    17  H    4.818951   6.107602   7.351523   7.625482   8.964634
    18  H    4.818572   6.106882   7.350850   7.624780   8.963952
    19  H    5.697682   6.892108   8.256787   8.724422  10.101119
    20  H    4.020123   4.976692   6.397863   7.119905   8.496468
    21  H    4.020728   4.977719   6.398786   7.120815   8.497348
    22  H    2.041799   1.086258   2.158391   3.457951   4.607747
    23  H    2.869713   2.753435   2.159673   1.082215   2.133849
    24  H    5.196073   4.666281   3.425552   2.143574   1.085683
    25  H    6.382078   5.374879   3.919974   3.399603   2.161350
    26  H    5.935697   4.635376   3.430147   3.869744   3.402148
                   11         12         13         14         15
    11  C    0.000000
    12  C    1.393931   0.000000
    13  C    2.410216   1.391751   0.000000
    14  Br   4.143638   2.822738   1.915360   0.000000
    15  C    5.489879   5.556012   4.573473   5.647928   0.000000
    16  N    5.895123   6.208644   5.402418   6.667951   1.164619
    17  H    9.964671   9.790415   8.575176   8.932737   4.603649
    18  H    9.964015   9.789778   8.574536   8.932153   4.603972
    19  H   10.998357  10.667818   9.369361   9.440572   5.771609
    20  H    9.201949   8.690489   7.345704   7.213946   4.589330
    21  H    9.202815   8.691351   7.346592   7.214781   4.589164
    22  H    4.840820   4.038082   2.648184   2.602875   3.392646
    23  H    3.385801   3.867723   3.395666   5.079821   2.352276
    24  H    2.158913   3.401406   3.867080   5.780278   4.795406
    25  H    1.086258   2.148478   3.391994   4.969096   6.490661
    26  H    2.158780   1.084173   2.144538   2.880339   6.581176
                   16         17         18         19         20
    16  N    0.000000
    17  H    4.749302   0.000000
    18  H    4.750171   1.774688   0.000000
    19  H    6.084279   1.776548   1.776549   0.000000
    20  H    5.298568   3.088199   2.529646   2.522646   0.000000
    21  H    5.297943   2.529670   3.088182   2.522546   1.768059
    22  H    4.529501   6.353776   6.352803   6.917924   4.803227
    23  H    2.520187   6.919904   6.919158   8.118882   6.743019
    24  H    4.770198   9.331849   9.331160  10.565652   9.131455
    25  H    6.803880  10.997487  10.996838  12.062033  10.281610
    26  H    7.274862  10.704620  10.704005  11.510605   9.445947
                   21         22         23         24         25
    21  H    0.000000
    22  H    4.804636   0.000000
    23  H    6.743945   3.818323   0.000000
    24  H    9.132321   5.562261   2.447826   0.000000
    25  H   10.282459   5.905360   4.284817   2.497829   0.000000
    26  H    9.446783   4.702068   4.951877   4.304918   2.482546
                   26
    26  H    0.000000
 Stoichiometry    C12H10BrNO2
 Framework group  C1[X(C12H10BrNO2)]
 Deg. of freedom    72
 Full point group                 C1      NOp   1
 Largest Abelian subgroup         C1      NOp   1
 Largest concise Abelian subgroup C1      NOp   1
                         Standard orientation:                         
 ---------------------------------------------------------------------
 Center     Atomic      Atomic             Coordinates (Angstroms)
 Number     Number       Type             X           Y           Z
 ---------------------------------------------------------------------
      1          6           0        6.031063   -0.093868    0.000804
      2          6           0        4.764160   -0.926999    0.000034
      3          8           0        3.643033   -0.008504   -0.000412
      4          6           0        2.421898   -0.565381    0.000328
      5          8           0        2.210344   -1.760899    0.001249
      6          6           0        1.343182    0.480823   -0.000136
      7          6           0        0.058424    0.032586    0.000622
      8          6           0       -1.215834    0.735637    0.000534
      9          6           0       -1.323134    2.145488    0.001063
     10          6           0       -2.554828    2.786790    0.001096
     11          6           0       -3.732736    2.037656    0.000619
     12          6           0       -3.670178    0.645130    0.000132
     13          6           0       -2.432804    0.008046    0.000109
     14         35           0       -2.464276   -1.907055   -0.000537
     15          6           0        1.753892    1.848761   -0.001477
     16          7           0        2.089136    2.964085   -0.002538
     17          1           0        6.079507    0.545063   -0.886358
     18          1           0        6.078707    0.544622    0.888330
     19          1           0        6.905555   -0.753514    0.001035
     20          1           0        4.687212   -1.567919    0.883895
     21          1           0        4.688139   -1.567594   -0.884164
     22          1           0       -0.005937   -1.051763    0.001328
     23          1           0       -0.421410    2.743889    0.001511
     24          1           0       -2.593906    3.871769    0.001525
     25          1           0       -4.700896    2.530224    0.000636
     26          1           0       -4.576916    0.050776   -0.000227
 ---------------------------------------------------------------------
 Rotational constants (GHZ):      0.6634358      0.2102080      0.1599493
 General basis read from cards:  (5D, 7F)
 There are   275 symmetry adapted cartesian basis functions of A   symmetry.
 There are   258 symmetry adapted basis functions of A   symmetry.
   258 basis functions,   543 primitive gaussians,   275 cartesian basis functions
    70 alpha electrons       70 beta electrons
       nuclear repulsion energy      1306.9695682571 Hartrees.
 NAtoms=   26 NActive=   26 NUniq=   26 SFac= 1.00D+00 NAtFMM=   60 NAOKFM=F Big=F
 Integral buffers will be    131072 words long.
 Raffenetti 1 integral format.
 Two-electron integral symmetry is turned on.
 One-electron integrals computed using PRISM.
 NBasis=   258 RedAO= T EigKep=  4.08D-04  NBF=   258
 NBsUse=   258 1.00D-06 EigRej= -1.00D+00 NBFU=   258
 ExpMin= 1.43D-01 ExpMax= 5.74D+05 ExpMxC= 5.74D+03 IAcc=2 IRadAn=         4 AccDes= 0.00D+00
 Harris functional with IExCor=  205 and IRadAn=       4 diagonalized for initial guess.
 HarFok:  IExCor=  205 AccDes= 0.00D+00 IRadAn=         4 IDoV= 1 UseB2=F ITyADJ=14
 ICtDFT=  3500011 ScaDFX=  1.000000  1.000000  1.000000  1.000000
 FoFCou: FMM=F IPFlag=           0 FMFlag=      100000 FMFlg1=           0
         NFxFlg=           0 DoJE=T BraDBF=F KetDBF=T FulRan=T
         wScrn=  0.000000 ICntrl=     500 IOpCl=  0 I1Cent=   200000004 NGrid=           0
         NMat0=    1 NMatS0=      1 NMatT0=    0 NMatD0=    1 NMtDS0=    0 NMtDT0=    0
 Petite list used in FoFCou.
 Requested convergence on RMS density matrix=1.00D-08 within 128 cycles.
 Requested convergence on MAX density matrix=1.00D-06.
 Requested convergence on             energy=1.00D-06.
 No special actions if energy rises.
 Integral accuracy reduced to 1.0D-05 until final iterations.
 Initial convergence to 1.0D-05 achieved.  Increase integral accuracy.
 SCF Done:  E(RHF) =  -3233.99770122     A.U. after   17 cycles
            NFock= 17  Conv=0.72D-08     -V/T= 1.9992

 **********************************************************************

            Population analysis using the SCF density.

 **********************************************************************

 Orbital symmetries:
 BldTbl:  Degeneracy threshold= 1.00D-02
       Occupied  (A) (A) (A) (A) (A) (A) (A) (A) (A) (A) (A) (A)
                 (A) (A) (A) (A) (A) (A) (A) (A) (A) (A) (A) (A)
                 (A) (A) (A) (A) (A) (A) (A) (A) (A) (A) (A) (A)
                 (A) (A) (A) (A) (A) (A) (A) (A) (A) (A) (A) (A)
                 (A) (A) (A) (A) (A) (A) (A) (A) (A) (A) (A) (A)
                 (A) (A) (A) (A) (A) (A) (A) (A) (A) (A)
       Virtual   (A) (A) (A) (A) (A) (A) (A) (A) (A) (A) (A) (A)
                 (A) (A) (A) (A) (A) (A) (A) (A) (A) (A) (A) (A)
                 (A) (A) (A) (A) (A) (A) (A) (A) (A) (A) (A) (A)
                 (A) (A) (A) (A) (A) (A) (A) (A) (A) (A) (A) (A)
                 (A) (A) (A) (A) (A) (A) (A) (A) (A) (A) (A) (A)
                 (A) (A) (A) (A) (A) (A) (A) (A) (A) (A) (A) (A)
                 (A) (A) (A) (A) (A) (A) (A) (A) (A) (A) (A) (A)
                 (A) (A) (A) (A) (A) (A) (A) (A) (A) (A) (A) (A)
                 (A) (A) (A) (A) (A) (A) (A) (A) (A) (A) (A) (A)
                 (A) (A) (A) (A) (A) (A) (A) (A) (A) (A) (A) (A)
                 (A) (A) (A) (A) (A) (A) (A) (A) (A) (A) (A) (A)
                 (A) (A) (A) (A) (A) (A) (A) (A) (A) (A) (A) (A)
                 (A) (A) (A) (A) (A) (A) (A) (A) (A) (A) (A) (A)
                 (A) (A) (A) (A) (A) (A) (A) (A) (A) (A) (A) (A)
                 (A) (A) (A) (A) (A) (A) (A) (A) (A) (A) (A) (A)
                 (A) (A) (A) (A) (A) (A) (A) (A)
 The electronic state is 1-A.
 Alpha  occ. eigenvalues -- -489.86162 -64.40535 -58.57218 -58.57042 -58.57028
 Alpha  occ. eigenvalues --  -20.61547 -20.55954 -15.58678 -11.40458 -11.33114
 Alpha  occ. eigenvalues --  -11.30463 -11.29514 -11.29484 -11.28973 -11.28830
 Alpha  occ. eigenvalues --  -11.27455 -11.27120 -11.26879 -11.26235 -11.22567
 Alpha  occ. eigenvalues --   -9.68295  -7.49863  -7.48971  -7.48967  -3.24188
 Alpha  occ. eigenvalues --   -3.23757  -3.23755  -3.22717  -3.22714  -1.46799
 Alpha  occ. eigenvalues --   -1.36626  -1.22376  -1.19916  -1.12842  -1.08314
 Alpha  occ. eigenvalues --   -1.06049  -1.03570  -0.98555  -0.93049  -0.87816
 Alpha  occ. eigenvalues --   -0.84186  -0.83118  -0.80099  -0.75527  -0.71312
 Alpha  occ. eigenvalues --   -0.69258  -0.68709  -0.67024  -0.66321  -0.63214
 Alpha  occ. eigenvalues --   -0.60699  -0.59788  -0.58490  -0.57627  -0.55883
 Alpha  occ. eigenvalues --   -0.55461  -0.55242  -0.54093  -0.52459  -0.51748
 Alpha  occ. eigenvalues --   -0.50724  -0.50308  -0.48250  -0.46474  -0.45161
 Alpha  occ. eigenvalues --   -0.44332  -0.42892  -0.42301  -0.35421  -0.33591
 Alpha virt. eigenvalues --    0.02739   0.11024   0.14894   0.15601   0.19381
 Alpha virt. eigenvalues --    0.19456   0.23983   0.24049   0.27816   0.28539
 Alpha virt. eigenvalues --    0.29746   0.29961   0.30558   0.31470   0.32050
 Alpha virt. eigenvalues --    0.32150   0.34238   0.34259   0.37137   0.38161
 Alpha virt. eigenvalues --    0.40304   0.41211   0.41285   0.44951   0.46014
 Alpha virt. eigenvalues --    0.47141   0.49849   0.55106   0.55517   0.59451
 Alpha virt. eigenvalues --    0.61210   0.62802   0.63149   0.63866   0.64897
 Alpha virt. eigenvalues --    0.65615   0.67108   0.67551   0.70642   0.71966
 Alpha virt. eigenvalues --    0.72483   0.73224   0.73472   0.73811   0.75761
 Alpha virt. eigenvalues --    0.75894   0.77355   0.77820   0.78687   0.79570
 Alpha virt. eigenvalues --    0.81357   0.81438   0.81602   0.82128   0.83497
 Alpha virt. eigenvalues --    0.83739   0.86310   0.86836   0.90464   0.91637
 Alpha virt. eigenvalues --    0.92042   0.93204   0.94954   0.96216   0.96453
 Alpha virt. eigenvalues --    0.99480   1.00670   1.01945   1.03531   1.04705
 Alpha virt. eigenvalues --    1.05422   1.08029   1.08837   1.09853   1.10464
 Alpha virt. eigenvalues --    1.11419   1.12422   1.13019   1.14863   1.16087
 Alpha virt. eigenvalues --    1.17467   1.18394   1.18742   1.20253   1.22893
 Alpha virt. eigenvalues --    1.24194   1.25719   1.26362   1.26961   1.28733
 Alpha virt. eigenvalues --    1.30923   1.33547   1.35051   1.37375   1.39095
 Alpha virt. eigenvalues --    1.40053   1.44293   1.46553   1.46832   1.47450
 Alpha virt. eigenvalues --    1.51314   1.52617   1.54832   1.56153   1.60350
 Alpha virt. eigenvalues --    1.63462   1.63948   1.66799   1.67549   1.68947
 Alpha virt. eigenvalues --    1.69273   1.70570   1.73533   1.74031   1.74521
 Alpha virt. eigenvalues --    1.75822   1.78929   1.79145   1.81012   1.88614
 Alpha virt. eigenvalues --    1.92944   1.95381   1.97492   2.01362   2.02911
 Alpha virt. eigenvalues --    2.05230   2.06574   2.08325   2.10193   2.12739
 Alpha virt. eigenvalues --    2.12928   2.15114   2.16322   2.18856   2.19251
 Alpha virt. eigenvalues --    2.20231   2.24986   2.25820   2.26289   2.28583
 Alpha virt. eigenvalues --    2.29882   2.32982   2.33020   2.35262   2.36363
 Alpha virt. eigenvalues --    2.39872   2.41318   2.41420   2.44196   2.45382
 Alpha virt. eigenvalues --    2.46341   2.46472   2.50069   2.53300   2.54392
 Alpha virt. eigenvalues --    2.59028   2.60008   2.61361   2.62472   2.65948
 Alpha virt. eigenvalues --    2.66241   2.75492   2.76296   2.79741   2.81361
 Alpha virt. eigenvalues --    2.86639   2.90139   2.95180   2.95262   2.96981
 Alpha virt. eigenvalues --    3.00315   3.01767   3.05254   3.07675   3.08385
 Alpha virt. eigenvalues --    3.14033   3.15522   3.17244   3.19477   3.23311
 Alpha virt. eigenvalues --    3.31293   3.36635   3.47001   3.48483   3.65707
 Alpha virt. eigenvalues --    3.72158   3.86062   9.21820
          Condensed to atoms (all electrons):
               1          2          3          4          5          6
     1  C    5.132495   0.339682  -0.043562   0.002120   0.000474   0.000163
     2  C    0.339682   4.830609   0.154578  -0.030718   0.000557   0.004765
     3  O   -0.043562   0.154578   8.504935   0.295605  -0.073802  -0.078119
     4  C    0.002120  -0.030718   0.295605   3.886671   0.587450   0.411212
     5  O    0.000474   0.000557  -0.073802   0.587450   8.158268  -0.089928
     6  C    0.000163   0.004765  -0.078119   0.411212  -0.089928   5.254989
     7  C    0.000000  -0.000076   0.002296  -0.033169  -0.001473   0.573565
     8  C    0.000000   0.000000  -0.000015   0.001516   0.001021  -0.040510
     9  C    0.000000   0.000000   0.000000  -0.000012  -0.000001  -0.009376
    10  C    0.000000   0.000000   0.000000   0.000000   0.000000  -0.000065
    11  C    0.000000   0.000000   0.000000   0.000000   0.000000   0.000020
    12  C    0.000000   0.000000   0.000000   0.000000   0.000000  -0.000106
    13  C    0.000000   0.000000   0.000000  -0.000076  -0.000020   0.003073
    14  Br   0.000000   0.000000   0.000000  -0.000106  -0.000024   0.001781
    15  C   -0.000089  -0.000026  -0.007771  -0.034612   0.001937   0.269194
    16  N   -0.000007   0.000025  -0.002847  -0.001108  -0.000012  -0.079669
    17  H    0.387713  -0.034091   0.000467  -0.000115  -0.000005  -0.000028
    18  H    0.387712  -0.034099   0.000471  -0.000115  -0.000005  -0.000028
    19  H    0.385580  -0.038122   0.002476   0.000014   0.000008   0.000001
    20  H   -0.039260   0.402048  -0.034098  -0.003836   0.003227  -0.000270
    21  H   -0.039276   0.402056  -0.034104  -0.003824   0.003208  -0.000271
    22  H    0.000000  -0.000010   0.000401  -0.003786   0.015448  -0.032810
    23  H    0.000000   0.000000   0.000003   0.000045   0.000000   0.000598
    24  H    0.000000   0.000000   0.000000   0.000000   0.000000   0.000001
    25  H    0.000000   0.000000   0.000000   0.000000   0.000000   0.000000
    26  H    0.000000   0.000000   0.000000   0.000000   0.000000   0.000001
               7          8          9         10         11         12
     1  C    0.000000   0.000000   0.000000   0.000000   0.000000   0.000000
     2  C   -0.000076   0.000000   0.000000   0.000000   0.000000   0.000000
     3  O    0.002296  -0.000015   0.000000   0.000000   0.000000   0.000000
     4  C   -0.033169   0.001516  -0.000012   0.000000   0.000000   0.000000
     5  O   -0.001473   0.001021  -0.000001   0.000000   0.000000   0.000000
     6  C    0.573565  -0.040510  -0.009376  -0.000065   0.000020  -0.000106
     7  C    4.966663   0.365891  -0.038414   0.003849  -0.000349   0.004750
     8  C    0.365891   4.855935   0.532642  -0.037557  -0.025851  -0.043249
     9  C   -0.038414   0.532642   4.962069   0.540578  -0.041396  -0.038438
    10  C    0.003849  -0.037557   0.540578   4.907950   0.536365  -0.041161
    11  C   -0.000349  -0.025851  -0.041396   0.536365   4.891102   0.528062
    12  C    0.004750  -0.043249  -0.038438  -0.041161   0.528062   4.969145
    13  C   -0.044118   0.529845  -0.036735  -0.032652  -0.042311   0.532150
    14  Br  -0.013908  -0.068048   0.002678   0.000069   0.003098  -0.075933
    15  C   -0.041438  -0.005877  -0.007118   0.000203  -0.000002   0.000003
    16  N    0.000484  -0.000574  -0.006130   0.000117  -0.000001   0.000000
    17  H    0.000000   0.000000   0.000000   0.000000   0.000000   0.000000
    18  H    0.000000   0.000000   0.000000   0.000000   0.000000   0.000000
    19  H    0.000000   0.000000   0.000000   0.000000   0.000000   0.000000
    20  H    0.000010   0.000000   0.000000   0.000000   0.000000   0.000000
    21  H    0.000010   0.000000   0.000000   0.000000   0.000000   0.000000
    22  H    0.368366  -0.030245   0.001808  -0.000053  -0.000012   0.000278
    23  H   -0.002479  -0.028901   0.363269  -0.020669   0.002040   0.000157
    24  H   -0.000113   0.001351  -0.025869   0.381582  -0.027454   0.002061
    25  H    0.000005   0.000294   0.002338  -0.026512   0.379952  -0.028209
    26  H   -0.000077   0.001932   0.000079   0.002129  -0.025828   0.382684
              13         14         15         16         17         18
     1  C    0.000000   0.000000  -0.000089  -0.000007   0.387713   0.387712
     2  C    0.000000   0.000000  -0.000026   0.000025  -0.034091  -0.034099
     3  O    0.000000   0.000000  -0.007771  -0.002847   0.000467   0.000471
     4  C   -0.000076  -0.000106  -0.034612  -0.001108  -0.000115  -0.000115
     5  O   -0.000020  -0.000024   0.001937  -0.000012  -0.000005  -0.000005
     6  C    0.003073   0.001781   0.269194  -0.079669  -0.000028  -0.000028
     7  C   -0.044118  -0.013908  -0.041438   0.000484   0.000000   0.000000
     8  C    0.529845  -0.068048  -0.005877  -0.000574   0.000000   0.000000
     9  C   -0.036735   0.002678  -0.007118  -0.006130   0.000000   0.000000
    10  C   -0.032652   0.000069   0.000203   0.000117   0.000000   0.000000
    11  C   -0.042311   0.003098  -0.000002  -0.000001   0.000000   0.000000
    12  C    0.532150  -0.075933   0.000003   0.000000   0.000000   0.000000
    13  C    4.797342   0.310161  -0.000053  -0.000005   0.000000   0.000000
    14  Br   0.310161  34.950169  -0.000001   0.000000   0.000000   0.000000
    15  C   -0.000053  -0.000001   4.570714   0.974220   0.000022   0.000022
    16  N   -0.000005   0.000000   0.974220   6.526868  -0.000002  -0.000002
    17  H    0.000000   0.000000   0.000022  -0.000002   0.508121  -0.026116
    18  H    0.000000   0.000000   0.000022  -0.000002  -0.026116   0.508150
    19  H    0.000000   0.000000   0.000001   0.000000  -0.024573  -0.024572
    20  H    0.000000   0.000000  -0.000020  -0.000002   0.003697  -0.003677
    21  H    0.000000   0.000000  -0.000020  -0.000002  -0.003677   0.003698
    22  H   -0.004062   0.005157   0.002755  -0.000007   0.000000   0.000000
    23  H    0.001856  -0.000071   0.010364   0.007421   0.000000   0.000000
    24  H    0.000384   0.000006  -0.000007  -0.000005   0.000000   0.000000
    25  H    0.001885  -0.000105   0.000000   0.000000   0.000000   0.000000
    26  H   -0.029485  -0.002142   0.000000   0.000000   0.000000   0.000000
              19         20         21         22         23         24
     1  C    0.385580  -0.039260  -0.039276   0.000000   0.000000   0.000000
     2  C   -0.038122   0.402048   0.402056  -0.000010   0.000000   0.000000
     3  O    0.002476  -0.034098  -0.034104   0.000401   0.000003   0.000000
     4  C    0.000014  -0.003836  -0.003824  -0.003786   0.000045   0.000000
     5  O    0.000008   0.003227   0.003208   0.015448   0.000000   0.000000
     6  C    0.000001  -0.000270  -0.000271  -0.032810   0.000598   0.000001
     7  C    0.000000   0.000010   0.000010   0.368366  -0.002479  -0.000113
     8  C    0.000000   0.000000   0.000000  -0.030245  -0.028901   0.001351
     9  C    0.000000   0.000000   0.000000   0.001808   0.363269  -0.025869
    10  C    0.000000   0.000000   0.000000  -0.000053  -0.020669   0.381582
    11  C    0.000000   0.000000   0.000000  -0.000012   0.002040  -0.027454
    12  C    0.000000   0.000000   0.000000   0.000278   0.000157   0.002061
    13  C    0.000000   0.000000   0.000000  -0.004062   0.001856   0.000384
    14  Br   0.000000   0.000000   0.000000   0.005157  -0.000071   0.000006
    15  C    0.000001  -0.000020  -0.000020   0.002755   0.010364  -0.000007
    16  N    0.000000  -0.000002  -0.000002  -0.000007   0.007421  -0.000005
    17  H   -0.024573   0.003697  -0.003677   0.000000   0.000000   0.000000
    18  H   -0.024572  -0.003677   0.003698   0.000000   0.000000   0.000000
    19  H    0.527517  -0.000558  -0.000557   0.000000   0.000000   0.000000
    20  H   -0.000558   0.520085  -0.036679  -0.000003   0.000000   0.000000
    21  H   -0.000557  -0.036679   0.520175  -0.000003   0.000000   0.000000
    22  H    0.000000  -0.000003  -0.000003   0.367130   0.000049   0.000001
    23  H    0.000000   0.000000   0.000000   0.000049   0.387719  -0.000649
    24  H    0.000000   0.000000   0.000000   0.000001  -0.000649   0.438617
    25  H    0.000000   0.000000   0.000000   0.000000  -0.000088  -0.001057
    26  H    0.000000   0.000000   0.000000  -0.000001   0.000008  -0.000089
              25         26
     1  C    0.000000   0.000000
     2  C    0.000000   0.000000
     3  O    0.000000   0.000000
     4  C    0.000000   0.000000
     5  O    0.000000   0.000000
     6  C    0.000000   0.000001
     7  C    0.000005  -0.000077
     8  C    0.000294   0.001932
     9  C    0.002338   0.000079
    10  C   -0.026512   0.002129
    11  C    0.379952  -0.025828
    12  C   -0.028209   0.382684
    13  C    0.001885  -0.029485
    14  Br  -0.000105  -0.002142
    15  C    0.000000   0.000000
    16  N    0.000000   0.000000
    17  H    0.000000   0.000000
    18  H    0.000000   0.000000
    19  H    0.000000   0.000000
    20  H    0.000000   0.000000
    21  H    0.000000   0.000000
    22  H    0.000000  -0.000001
    23  H   -0.000088   0.000008
    24  H   -0.001057  -0.000089
    25  H    0.442163  -0.001251
    26  H   -0.001251   0.429054
 Mulliken charges:
               1
     1  C   -0.513745
     2  C    0.002823
     3  O   -0.686915
     4  C    0.926845
     5  O   -0.606330
     6  C   -0.188182
     7  C   -0.110275
     8  C   -0.009599
     9  C   -0.201970
    10  C   -0.214172
    11  C   -0.177437
    12  C   -0.192194
    13  C    0.012820
    14  Br  -0.112780
    15  C    0.267599
    16  N   -0.418763
    17  H    0.188588
    18  H    0.188562
    19  H    0.172784
    20  H    0.189337
    21  H    0.189267
    22  H    0.309597
    23  H    0.279327
    24  H    0.231241
    25  H    0.230585
    26  H    0.242985
 Sum of Mulliken charges =   0.00000
 Mulliken charges with hydrogens summed into heavy atoms:
               1
     1  C    0.036188
     2  C    0.381428
     3  O   -0.686915
     4  C    0.926845
     5  O   -0.606330
     6  C   -0.188182
     7  C    0.199323
     8  C   -0.009599
     9  C    0.077357
    10  C    0.017069
    11  C    0.053148
    12  C    0.050792
    13  C    0.012820
    14  Br  -0.112780
    15  C    0.267599
    16  N   -0.418763
 DipInt: DoE/N= T F RetVal/Mat= T F Init=T NMatP=  1 IDeriv=0 Min/MaxMlt=  0  4
 Entering OneElI...
 OneElI was handed   235733728 working-precision words.
 Multipole integrals L=0 to 4 MinM= 0 MaxM= 0.
 Requested accuracy = 0.1000D-12
 PrtBox:  NBox=     1 Levels=  1 BoxLen=   38.93 SMaxX=       21.93
          Shift=            8.883406            3.603812            1.674974
 Box      1 Number                   0 centers from      1 to     92:
 ShPair: Thresh= 1.00D-13 NBox=     1 BxSize= 3.89D+01 RnKept= 2.28D+01
         NSMCal=                 4278 NSMKep=                3307
 PrsmSu:  NPrtUS=   1 ThrOK=F IAlg=1 NPAlg=1 LenDen=           0.
 Prism:   IPart=     0 DynPar=F LinDyn=F Incr=          33.
 PRISM was handed   235426027 working-precision words and  3307 shell-pairs
 IPart=  0 NShTot=        3307 NBatch=         141 AvBLen=        23.5
 PrSmSu:  NxtVal=             34.
 Electronic moments (au):
       -140.00000000         -0.90536482          0.02059717          0.00150617
      -4636.68041409      -1454.87945740        -91.04732221        -11.93399528
          0.00420810          0.01571882     -13916.01208796      -1861.90272831
         -0.05267989       2365.56883446        841.75202450         -1.46982712
       -118.52118459        -30.36854645          0.63063377          2.70415551
    -319790.36030852     -31346.49745521       -356.83959063      18475.49550148
        -16.36481841       -590.71865251          1.69532886         -0.12418986
          0.00805943     -35215.63517981      -3895.30926056       -920.79856332
         -1.70189843          5.89471983        221.54235207
 Electronic spatial extent (au):  <R**2>=           6182.6072
 DipInt: DoE/N= F T RetVal/Mat= T F Init=T NMatP=  1 IDeriv=0 Min/MaxMlt=  0  4
 Nuclear    moments (au):
        140.00000000          0.00000000          0.00000000          0.00000000
       4575.39818262       1369.87962529         11.20561652          0.00000000
         -0.00004522         -0.00018860      13887.79247345       1743.57861635
          0.02717169      -2471.88943889       -889.92846669          1.49231689
        114.04794061        -10.74512261         -0.56989438         -2.66498918
     306449.75716313      26615.56324676         31.38967587     -18874.12955432
         16.66172074        554.40668333         -0.99911966          0.30805214
          0.03818348      31845.62436159       1180.15512534         54.96099290
          2.00732629         -5.73105647        -79.96811257
 Total      moments (au):
          0.00000000         -0.90536482          0.02059717          0.00150617
        -61.28223147        -84.99983211        -79.84170569        -11.93399528
          0.00416287          0.01553022        -28.21961451       -118.32411196
         -0.02550820       -106.32060443        -48.17644219          0.02248978
         -4.47324398        -41.11366906          0.06073939          0.03916633
     -13340.60314539      -4730.93420845       -325.44991476       -398.63405284
          0.29690233        -36.31196918          0.69620919          0.18386228
          0.04624290      -3370.01081821      -2715.15413523       -865.83757042
          0.30542786          0.16366337        141.57423949
 Traceless Quadrup. (au):
         14.09235829         -9.62524235         -4.46711593        -11.93399528
          0.00416287          0.01553022
 Charge=              0.0000 electrons
 Dipole moment (field-independent basis, Debye):
    X=             -2.3012    Y=              0.0524    Z=              0.0038  Tot=              2.3018
 Quadrupole moment (field-independent basis, Debye-Ang):
   XX=            -82.4267   YY=           -114.3277   ZZ=           -107.3898
   XY=            -16.0516   XZ=              0.0056   YZ=              0.0209
 Traceless Quadrupole moment (field-independent basis, Debye-Ang):
   XX=             18.9547   YY=            -12.9463   ZZ=             -6.0084
   XY=            -16.0516   XZ=              0.0056   YZ=              0.0209
 Octapole moment (field-independent basis, Debye-Ang**2):
  XXX=            -20.0856  YYY=            -84.2185  ZZZ=             -0.0182  XYY=            -75.6749
  XXY=            -34.2901  XXZ=              0.0160  XZZ=             -3.1839  YZZ=            -29.2631
  YYZ=              0.0432  XYZ=              0.0279
 Hexadecapole moment (field-independent basis, Debye-Ang**3):
 XXXX=          -5024.7105 YYYY=          -1781.8966 ZZZZ=           -122.5800 XXXY=           -150.1447
 XXXZ=              0.1118 YYYX=            -13.6768 YYYZ=              0.2622 ZZZX=              0.0693
 ZZZY=              0.0174 XXYY=          -1269.3076 XXZZ=          -1022.6572 YYZZ=           -326.1159
 XXYZ=              0.1150 YYXZ=              0.0616 ZZXY=             53.3236
 N-N= 1.306969568257D+03 E-N=-1.031798070987D+04  KE= 3.236528305351D+03
 Entering OneElI...
 OneElI was handed   235779831 working-precision words.
 Calculate electrostatic properties
    NBasis =   258  MinDer = 0  MaxDer = 0
    NGrid  =    26  NMatD  =   1
 Requested accuracy = 0.1000D-12
 PrtBox:  NBox=     1 Levels=  1 BoxLen=   32.44 SMaxX=       21.93
          Shift=            8.883406            3.603812            1.674974
 Box      1 Number                   0 centers from      1 to     92:
 ShPair: Thresh= 1.00D-13 NBox=     1 BxSize= 3.24D+01 RnKept= 1.84D+01
         NSMCal=                 4278 NSMKep=                2819
 PrsmSu:  NPrtUS=   1 ThrOK=F IAlg=1 NPAlg=1 LenDen=           0.
 Prism:   IPart=     0 DynPar=F LinDyn=F Incr=         512.
 PRISM was handed   235507193 working-precision words and  2819 shell-pairs
 IPart=  0 NShTot=       73294 NBatch=        2921 AvBLen=        25.1
 PrSmSu:  NxtVal=            513.
 --------------------------------------------------------
       Center         ----      EFG at Nuclei      ----
                      3XX-RR        3YY-RR        3ZZ-RR
 --------------------------------------------------------
     1   Atom       -0.033961     -0.004307      0.038269
     2   Atom       -0.231261     -0.032443      0.263704
     3   Atom       -1.634905      0.398850      1.236056
     4   Atom        0.114313      0.392013     -0.506326
     5   Atom        1.523767     -0.799242     -0.724525
     6   Atom        0.124222     -0.124272      0.000051
     7   Atom        0.246170      0.339871     -0.586041
     8   Atom        0.054309      0.147590     -0.201899
     9   Atom        0.244202      0.168115     -0.412317
    10   Atom        0.175206      0.147661     -0.322866
    11   Atom        0.198115      0.207024     -0.405139
    12   Atom        0.113903      0.177094     -0.290996
    13   Atom        0.403058     -0.252005     -0.151054
    14   Atom        3.510763     -7.047274      3.536511
    15   Atom       -0.135569      0.334231     -0.198661
    16   Atom       -0.367993      0.745771     -0.377778
    17   Atom        0.145165     -0.000285     -0.144880
    18   Atom        0.145188     -0.000074     -0.145114
    19   Atom       -0.138041     -0.016746      0.154787
    20   Atom        0.132826      0.000904     -0.133730
    21   Atom        0.132867      0.001058     -0.133925
    22   Atom        0.128425     -0.277827      0.149403
    23   Atom       -0.166645      0.002842      0.163803
    24   Atom        0.141142     -0.307385      0.166242
    25   Atom       -0.213785      0.051063      0.162722
    26   Atom       -0.174975      0.007176      0.167799
 --------------------------------------------------------
                        XY            XZ            YZ
 --------------------------------------------------------
     1   Atom       -0.033108     -0.000046     -0.000040
     2   Atom        0.368672     -0.000207      0.000065
     3   Atom        0.201062      0.000577      0.000630
     4   Atom       -0.091669     -0.000092     -0.000628
     5   Atom       -0.434166     -0.000383      0.000156
     6   Atom       -0.008611     -0.000002      0.000108
     7   Atom        0.035324     -0.000327     -0.000638
     8   Atom        0.001500      0.000038      0.000141
     9   Atom        0.003676      0.000119      0.000271
    10   Atom       -0.001620      0.000084      0.000184
    11   Atom        0.025686      0.000106      0.000223
    12   Atom        0.020531      0.000081      0.000166
    13   Atom       -0.015458      0.000131     -0.000039
    14   Atom       -0.458579     -0.000524     -0.003527
    15   Atom        0.161710     -0.000136     -0.000529
    16   Atom        0.342682     -0.000327     -0.001090
    17   Atom       -0.016417      0.013849      0.211233
    18   Atom       -0.016218     -0.013593     -0.211175
    19   Atom        0.210805     -0.000080      0.000052
    20   Atom       -0.005208      0.026579      0.204879
    21   Atom       -0.005008     -0.026308     -0.204832
    22   Atom       -0.033282      0.000019      0.000288
    23   Atom       -0.197694     -0.000164     -0.000120
    24   Atom        0.016857      0.000001     -0.000188
    25   Atom        0.181810      0.000004     -0.000011
    26   Atom       -0.204190     -0.000128     -0.000091
 --------------------------------------------------------


 ---------------------------------------------------------------------------------
              Nuclear Quadrupole Coupling Constant in Principal Axis System
 ---------------------------------------------------------------------------------

       Atom             a.u.   MegaHertz   Gauss  10(-4) cm-1        Axes

              Baa    -7.0672   519.747   185.459   173.369  0.0433  0.9991  0.0003
    14 Br(79) Bbb     3.5306  -259.656   -92.652   -86.612  0.9971 -0.0432  0.0628
              Bcc     3.5365  -260.091   -92.807   -86.757 -0.0628  0.0024  0.9980
 
              Baa    -0.4650     2.233     0.797     0.745  0.9622 -0.2723  0.0002
    16 N(14)  Bbb    -0.3778     1.814     0.647     0.605  0.0001  0.0010  1.0000
              Bcc     0.8428    -4.048    -1.444    -1.350  0.2723  0.9622 -0.0009
 

 ---------------------------------------------------------------------------------

 No NMR shielding tensors so no spin-rotation constants.
 Leave Link  601 at Thu Jan 16 22:40:41 2014, MaxMem=   235929600 cpu:         0.4
 FitSet:  NAtFit=    26 NAtPot=    26 NAtFrz=     0 MDM=    30 TotChg=   0.00000
 Merz-Kollman atomic radii used.
 Atom Element Radius
    1     6    1.50
    2     6    1.50
    3     8    1.40
    4     6    1.50
    5     8    1.40
    6     6    1.50
    7     6    1.50
    8     6    1.50
    9     6    1.50
   10     6    1.50
   11     6    1.50
   12     6    1.50
   13     6    1.50
   14    35    2.30
   15     6    1.50
   16     7    1.50
   17     1    1.20
   18     1    1.20
   19     1    1.20
   20     1    1.20
   21     1    1.20
   22     1    1.20
   23     1    1.20
   24     1    1.20
   25     1    1.20
   26     1    1.20
 Generate VDW surfaces: Layer= 5 Dens= 2 Start= 1.400 Inc= 0.179

 **********************************************************************

            Electrostatic Properties Using The SCF Density

 **********************************************************************

       Atomic Center    1 is at   6.031063 -0.093868  0.000804
       Atomic Center    2 is at   4.764160 -0.926999  0.000034
       Atomic Center    3 is at   3.643033 -0.008504 -0.000412
       Atomic Center    4 is at   2.421898 -0.565381  0.000328
       Atomic Center    5 is at   2.210344 -1.760899  0.001249
       Atomic Center    6 is at   1.343182  0.480823 -0.000136
       Atomic Center    7 is at   0.058424  0.032586  0.000622
       Atomic Center    8 is at  -1.215834  0.735637  0.000534
       Atomic Center    9 is at  -1.323134  2.145488  0.001063
       Atomic Center   10 is at  -2.554828  2.786790  0.001096
       Atomic Center   11 is at  -3.732736  2.037656  0.000619
       Atomic Center   12 is at  -3.670178  0.645130  0.000132
       Atomic Center   13 is at  -2.432804  0.008046  0.000109
       Atomic Center   14 is at  -2.464276 -1.907055 -0.000537
       Atomic Center   15 is at   1.753892  1.848761 -0.001477
       Atomic Center   16 is at   2.089136  2.964085 -0.002538
       Atomic Center   17 is at   6.079507  0.545063 -0.886358
       Atomic Center   18 is at   6.078707  0.544622  0.888330
       Atomic Center   19 is at   6.905555 -0.753514  0.001035
       Atomic Center   20 is at   4.687212 -1.567919  0.883895
       Atomic Center   21 is at   4.688139 -1.567594 -0.884164
       Atomic Center   22 is at  -0.005937 -1.051763  0.001328
       Atomic Center   23 is at  -0.421410  2.743889  0.001511
       Atomic Center   24 is at  -2.593906  3.871769  0.001525
       Atomic Center   25 is at  -4.700896  2.530224  0.000636
       Atomic Center   26 is at  -4.576916  0.050776 -0.000227
      ESP Fit Center   27 is at   5.671942 -0.715884  1.974158
      ESP Fit Center   28 is at   6.390184 -0.715884  1.974158
      ESP Fit Center   29 is at   6.591813 -1.321738  1.609497
      ESP Fit Center   30 is at   7.959505  0.653215  0.365465
      ESP Fit Center   31 is at   7.559405  1.299399  0.365465
      ESP Fit Center   32 is at   4.784757  1.556508  0.365465
      ESP Fit Center   33 is at   7.959505  0.653215 -0.363857
      ESP Fit Center   34 is at   7.559405  1.299399 -0.363857
      ESP Fit Center   35 is at   4.784757  1.556508 -0.363857
      ESP Fit Center   36 is at   6.591813 -1.321738 -1.607889
      ESP Fit Center   37 is at   5.671942 -0.715884 -1.972551
      ESP Fit Center   38 is at   6.390184 -0.715884 -1.972551
      ESP Fit Center   39 is at   4.405039 -0.304983  1.973388
      ESP Fit Center   40 is at   6.292502 -2.320266  0.364695
      ESP Fit Center   41 is at   6.292502 -2.320266 -0.364627
      ESP Fit Center   42 is at   4.405039 -0.304983 -1.973321
      ESP Fit Center   43 is at   3.643033 -0.008504  1.959588
      ESP Fit Center   44 is at   4.018063  0.641067  1.810392
      ESP Fit Center   45 is at   3.268003  0.641067  1.810392
      ESP Fit Center   46 is at   4.335998  1.191746  1.385517
      ESP Fit Center   47 is at   3.643033  1.377425  1.385517
      ESP Fit Center   48 is at   4.202602  1.713673  0.749647
      ESP Fit Center   49 is at   4.516680  1.746016 -0.000412
      ESP Fit Center   50 is at   4.202602  1.713673 -0.750472
      ESP Fit Center   51 is at   4.335998  1.191746 -1.386341
      ESP Fit Center   52 is at   3.643033  1.377425 -1.386341
      ESP Fit Center   53 is at   4.018063  0.641067 -1.811216
      ESP Fit Center   54 is at   3.268003  0.641067 -1.811216
      ESP Fit Center   55 is at   3.643033 -0.008504 -1.960412
      ESP Fit Center   56 is at   2.421898 -0.565381  2.100328
      ESP Fit Center   57 is at   3.140140 -0.565381  1.973682
      ESP Fit Center   58 is at   2.781019  0.056635  1.973682
      ESP Fit Center   59 is at   2.062777  0.056635  1.973682
      ESP Fit Center   60 is at   1.703656 -0.565381  1.973682
      ESP Fit Center   61 is at   2.062777 -1.187397  1.973682
      ESP Fit Center   62 is at   2.781019 -1.187397  1.973682
      ESP Fit Center   63 is at   1.126723 -0.945679  1.609021
      ESP Fit Center   64 is at   1.126723 -0.945679 -1.608365
      ESP Fit Center   65 is at   3.140140 -0.565381 -1.973027
      ESP Fit Center   66 is at   2.781019  0.056635 -1.973027
      ESP Fit Center   67 is at   2.062777  0.056635 -1.973027
      ESP Fit Center   68 is at   1.703656 -0.565381 -1.973027
      ESP Fit Center   69 is at   2.062777 -1.187397 -1.973027
      ESP Fit Center   70 is at   2.781019 -1.187397 -1.973027
      ESP Fit Center   71 is at   2.421898 -0.565381 -2.099672
      ESP Fit Center   72 is at   2.210344 -1.760899  1.961249
      ESP Fit Center   73 is at   2.960404 -1.760899  1.812053
      ESP Fit Center   74 is at   1.460285 -1.760899  1.812053
      ESP Fit Center   75 is at   1.835314 -2.410470  1.812053
      ESP Fit Center   76 is at   2.585374 -2.410470  1.812053
      ESP Fit Center   77 is at   0.824415 -1.760899  1.387178
      ESP Fit Center   78 is at   1.010094 -2.453864  1.387178
      ESP Fit Center   79 is at   1.517379 -2.961149  1.387178
      ESP Fit Center   80 is at   2.210344 -3.146828  1.387178
      ESP Fit Center   81 is at   2.903309 -2.961149  1.387178
      ESP Fit Center   82 is at   0.745373 -2.825263  0.751308
      ESP Fit Center   83 is at   1.304942 -3.329101  0.751308
      ESP Fit Center   84 is at   2.021064 -3.561783  0.751308
      ESP Fit Center   85 is at   2.769913 -3.483076  0.751308
      ESP Fit Center   86 is at   3.422008 -3.106589  0.751308
      ESP Fit Center   87 is at   1.029180 -3.325013  0.001249
      ESP Fit Center   88 is at   1.673965 -3.646077  0.001249
      ESP Fit Center   89 is at   2.391190 -3.712538  0.001249
      ESP Fit Center   90 is at   3.083991 -3.515419  0.001249
      ESP Fit Center   91 is at   3.658802 -3.081343  0.001249
      ESP Fit Center   92 is at   0.745373 -2.825263 -0.748811
      ESP Fit Center   93 is at   1.304942 -3.329101 -0.748811
      ESP Fit Center   94 is at   2.021064 -3.561783 -0.748811
      ESP Fit Center   95 is at   2.769913 -3.483076 -0.748811
      ESP Fit Center   96 is at   3.422008 -3.106589 -0.748811
      ESP Fit Center   97 is at   0.824415 -1.760899 -1.384680
      ESP Fit Center   98 is at   1.010094 -2.453864 -1.384680
      ESP Fit Center   99 is at   1.517379 -2.961149 -1.384680
      ESP Fit Center  100 is at   2.210344 -3.146828 -1.384680
      ESP Fit Center  101 is at   2.903309 -2.961149 -1.384680
      ESP Fit Center  102 is at   2.960404 -1.760899 -1.809555
      ESP Fit Center  103 is at   1.460285 -1.760899 -1.809555
      ESP Fit Center  104 is at   1.835314 -2.410470 -1.809555
      ESP Fit Center  105 is at   2.585374 -2.410470 -1.809555
      ESP Fit Center  106 is at   2.210344 -1.760899 -1.958751
      ESP Fit Center  107 is at   1.343182  0.480823  2.099864
      ESP Fit Center  108 is at   2.061424  0.480823  1.973218
      ESP Fit Center  109 is at   1.702303  1.102839  1.973218
      ESP Fit Center  110 is at   0.984061  1.102839  1.973218
      ESP Fit Center  111 is at   0.624940  0.480823  1.973218
      ESP Fit Center  112 is at   0.984061 -0.141193  1.973218
      ESP Fit Center  113 is at   1.702303 -0.141193  1.973218
      ESP Fit Center  114 is at   2.061424  0.480823 -1.973491
      ESP Fit Center  115 is at   1.702303  1.102839 -1.973491
      ESP Fit Center  116 is at   0.984061  1.102839 -1.973491
      ESP Fit Center  117 is at   0.624940  0.480823 -1.973491
      ESP Fit Center  118 is at   0.984061 -0.141193 -1.973491
      ESP Fit Center  119 is at   1.702303 -0.141193 -1.973491
      ESP Fit Center  120 is at   1.343182  0.480823 -2.100136
      ESP Fit Center  121 is at   0.058424  0.032586  2.100622
      ESP Fit Center  122 is at   0.776666  0.032586  1.973976
      ESP Fit Center  123 is at   0.417545  0.654602  1.973976
      ESP Fit Center  124 is at  -0.300697  0.654602  1.973976
      ESP Fit Center  125 is at  -0.659818  0.032586  1.973976
      ESP Fit Center  126 is at   0.417545 -0.589430  1.973976
      ESP Fit Center  127 is at   0.619174 -1.195284  1.609315
      ESP Fit Center  128 is at   0.619174 -1.195284 -1.608071
      ESP Fit Center  129 is at   0.776666  0.032586 -1.972733
      ESP Fit Center  130 is at   0.417545  0.654602 -1.972733
      ESP Fit Center  131 is at  -0.300697  0.654602 -1.972733
      ESP Fit Center  132 is at  -0.659818  0.032586 -1.972733
      ESP Fit Center  133 is at   0.417545 -0.589430 -1.972733
      ESP Fit Center  134 is at   0.058424  0.032586 -2.099378
      ESP Fit Center  135 is at  -1.215834  0.735637  2.100534
      ESP Fit Center  136 is at  -0.497592  0.735637  1.973888
      ESP Fit Center  137 is at  -0.856713  1.357653  1.973888
      ESP Fit Center  138 is at  -1.574955  1.357653  1.973888
      ESP Fit Center  139 is at  -1.934076  0.735637  1.973888
      ESP Fit Center  140 is at  -0.856713  0.113621  1.973888
      ESP Fit Center  141 is at  -0.080265  1.465423  1.609227
      ESP Fit Center  142 is at  -0.080265  1.465423 -1.608159
      ESP Fit Center  143 is at  -0.497592  0.735637 -1.972821
      ESP Fit Center  144 is at  -0.856713  1.357653 -1.972821
      ESP Fit Center  145 is at  -1.574955  1.357653 -1.972821
      ESP Fit Center  146 is at  -1.934076  0.735637 -1.972821
      ESP Fit Center  147 is at  -0.856713  0.113621 -1.972821
      ESP Fit Center  148 is at  -1.215834  0.735637 -2.099466
      ESP Fit Center  149 is at  -1.323134  2.145488  2.101063
      ESP Fit Center  150 is at  -0.604892  2.145488  1.974417
      ESP Fit Center  151 is at  -0.964013  2.767504  1.974417
      ESP Fit Center  152 is at  -1.682255  2.767504  1.974417
      ESP Fit Center  153 is at  -2.041376  2.145488  1.974417
      ESP Fit Center  154 is at  -1.682255  1.523472  1.974417
      ESP Fit Center  155 is at  -0.964013  1.523472  1.974417
      ESP Fit Center  156 is at   0.026720  2.145488  1.609756
      ESP Fit Center  157 is at  -0.762384  3.373358  1.609756
      ESP Fit Center  158 is at   0.026720  2.145488 -1.607630
      ESP Fit Center  159 is at  -0.762384  3.373358 -1.607630
      ESP Fit Center  160 is at  -0.604892  2.145488 -1.972292
      ESP Fit Center  161 is at  -0.964013  2.767504 -1.972292
      ESP Fit Center  162 is at  -1.682255  2.767504 -1.972292
      ESP Fit Center  163 is at  -2.041376  2.145488 -1.972292
      ESP Fit Center  164 is at  -1.682255  1.523472 -1.972292
      ESP Fit Center  165 is at  -0.964013  1.523472 -1.972292
      ESP Fit Center  166 is at  -1.323134  2.145488 -2.098937
      ESP Fit Center  167 is at  -2.554828  2.786790  2.101096
      ESP Fit Center  168 is at  -1.836586  2.786790  1.974450
      ESP Fit Center  169 is at  -2.195707  3.408806  1.974450
      ESP Fit Center  170 is at  -2.913949  3.408806  1.974450
      ESP Fit Center  171 is at  -3.273070  2.786790  1.974450
      ESP Fit Center  172 is at  -2.913949  2.164774  1.974450
      ESP Fit Center  173 is at  -2.195707  2.164774  1.974450
      ESP Fit Center  174 is at  -1.419259  3.516576  1.609789
      ESP Fit Center  175 is at  -1.994078  4.014660  1.609789
      ESP Fit Center  176 is at  -3.438794  3.806941  1.609789
      ESP Fit Center  177 is at  -4.026149  3.855767  1.051096
      ESP Fit Center  178 is at  -4.026149  3.855767 -1.048904
      ESP Fit Center  179 is at  -1.419259  3.516576 -1.607597
      ESP Fit Center  180 is at  -1.994078  4.014660 -1.607597
      ESP Fit Center  181 is at  -3.438794  3.806941 -1.607597
      ESP Fit Center  182 is at  -1.836586  2.786790 -1.972259
      ESP Fit Center  183 is at  -2.195707  3.408806 -1.972259
      ESP Fit Center  184 is at  -2.913949  3.408806 -1.972259
      ESP Fit Center  185 is at  -3.273070  2.786790 -1.972259
      ESP Fit Center  186 is at  -2.913949  2.164774 -1.972259
      ESP Fit Center  187 is at  -2.195707  2.164774 -1.972259
      ESP Fit Center  188 is at  -2.554828  2.786790 -2.098904
      ESP Fit Center  189 is at  -3.732736  2.037656  2.100619
      ESP Fit Center  190 is at  -3.014494  2.037656  1.973973
      ESP Fit Center  191 is at  -3.373615  2.659672  1.973973
      ESP Fit Center  192 is at  -4.091857  2.659672  1.973973
      ESP Fit Center  193 is at  -4.450978  2.037656  1.973973
      ESP Fit Center  194 is at  -4.091857  1.415640  1.973973
      ESP Fit Center  195 is at  -3.373615  1.415640  1.973973
      ESP Fit Center  196 is at  -3.924840  3.373770  1.609312
      ESP Fit Center  197 is at  -4.616702  3.057807  1.609312
      ESP Fit Center  198 is at  -5.027911  1.657358  1.609312
      ESP Fit Center  199 is at  -3.924840  3.373770 -1.608074
      ESP Fit Center  200 is at  -4.616702  3.057807 -1.608074
      ESP Fit Center  201 is at  -5.027911  1.657358 -1.608074
      ESP Fit Center  202 is at  -3.014494  2.037656 -1.972736
      ESP Fit Center  203 is at  -3.373615  2.659672 -1.972736
      ESP Fit Center  204 is at  -4.091857  2.659672 -1.972736
      ESP Fit Center  205 is at  -4.450978  2.037656 -1.972736
      ESP Fit Center  206 is at  -4.091857  1.415640 -1.972736
      ESP Fit Center  207 is at  -3.373615  1.415640 -1.972736
      ESP Fit Center  208 is at  -3.732736  2.037656 -2.099381
      ESP Fit Center  209 is at  -3.670178  0.645130  2.100132
      ESP Fit Center  210 is at  -2.951936  0.645130  1.973486
      ESP Fit Center  211 is at  -3.311057  1.267146  1.973486
      ESP Fit Center  212 is at  -4.029299  1.267146  1.973486
      ESP Fit Center  213 is at  -4.388420  0.645130  1.973486
      ESP Fit Center  214 is at  -2.534609  1.374916  1.608825
      ESP Fit Center  215 is at  -4.965353  1.025428  1.608825
      ESP Fit Center  216 is at  -2.534609  1.374916 -1.608561
      ESP Fit Center  217 is at  -4.965353  1.025428 -1.608561
      ESP Fit Center  218 is at  -2.951936  0.645130 -1.973223
      ESP Fit Center  219 is at  -3.311057  1.267146 -1.973223
      ESP Fit Center  220 is at  -4.029299  1.267146 -1.973223
      ESP Fit Center  221 is at  -4.388420  0.645130 -1.973223
      ESP Fit Center  222 is at  -3.670178  0.645130 -2.099868
      ESP Fit Center  223 is at  -2.073683  0.630062  1.973463
      ESP Fit Center  224 is at  -2.791925  0.630062  1.973463
      ESP Fit Center  225 is at  -2.073683  0.630062 -1.973246
      ESP Fit Center  226 is at  -2.791925  0.630062 -1.973246
      ESP Fit Center  227 is at  -2.464276 -1.907055  3.219463
      ESP Fit Center  228 is at  -1.747759 -1.907055  3.138731
      ESP Fit Center  229 is at  -2.106017 -1.286533  3.138731
      ESP Fit Center  230 is at  -2.822535 -1.286533  3.138731
      ESP Fit Center  231 is at  -3.180793 -1.907055  3.138731
      ESP Fit Center  232 is at  -2.822535 -2.527577  3.138731
      ESP Fit Center  233 is at  -2.106017 -2.527577  3.138731
      ESP Fit Center  234 is at  -1.067170 -1.907055  2.900583
      ESP Fit Center  235 is at  -1.254347 -1.208502  2.900583
      ESP Fit Center  236 is at  -1.765723 -0.697126  2.900583
      ESP Fit Center  237 is at  -2.464276 -0.509949  2.900583
      ESP Fit Center  238 is at  -3.162829 -0.697126  2.900583
      ESP Fit Center  239 is at  -3.674205 -1.208502  2.900583
      ESP Fit Center  240 is at  -3.861382 -1.907055  2.900583
      ESP Fit Center  241 is at  -3.674205 -2.605608  2.900583
      ESP Fit Center  242 is at  -3.162829 -3.116984  2.900583
      ESP Fit Center  243 is at  -2.464276 -3.304161  2.900583
      ESP Fit Center  244 is at  -1.765723 -3.116984  2.900583
      ESP Fit Center  245 is at  -1.254347 -2.605608  2.900583
      ESP Fit Center  246 is at  -0.456639 -1.907055  2.516960
      ESP Fit Center  247 is at  -0.592210 -1.181813  2.516960
      ESP Fit Center  248 is at  -0.980614 -0.554519  2.516960
      ESP Fit Center  249 is at  -1.569395 -0.109892  2.516960
      ESP Fit Center  250 is at  -2.279035  0.092018  2.516960
      ESP Fit Center  251 is at  -3.013692  0.023942  2.516960
      ESP Fit Center  252 is at  -3.674148 -0.304926  2.516960
      ESP Fit Center  253 is at  -4.171203 -0.850170  2.516960
      ESP Fit Center  254 is at  -4.437729 -1.538153  2.516960
      ESP Fit Center  255 is at  -4.437729 -2.275957  2.516960
      ESP Fit Center  256 is at  -4.171203 -2.963940  2.516960
      ESP Fit Center  257 is at  -3.674148 -3.509184  2.516960
      ESP Fit Center  258 is at  -3.013692 -3.838052  2.516960
      ESP Fit Center  259 is at  -2.279035 -3.906128  2.516960
      ESP Fit Center  260 is at  -1.569395 -3.704218  2.516960
      ESP Fit Center  261 is at  -0.980614 -3.259592  2.516960
      ESP Fit Center  262 is at  -0.592210 -2.632297  2.516960
      ESP Fit Center  263 is at   0.053221 -1.907055  2.007100
      ESP Fit Center  264 is at  -0.058624 -1.165010  2.007100
      ESP Fit Center  265 is at  -0.384222 -0.488898  2.007100
      ESP Fit Center  266 is at  -0.894642  0.061204  2.007100
      ESP Fit Center  267 is at  -3.024472  0.547323  2.007100
      ESP Fit Center  268 is at  -4.309732 -0.194722  2.007100
      ESP Fit Center  269 is at  -4.732463 -0.814754  2.007100
      ESP Fit Center  270 is at  -4.953655 -1.531842  2.007100
      ESP Fit Center  271 is at  -4.953655 -2.282269  2.007100
      ESP Fit Center  272 is at  -4.732463 -2.999356  2.007100
      ESP Fit Center  273 is at  -4.309732 -3.619388  2.007100
      ESP Fit Center  274 is at  -3.723025 -4.087272  2.007100
      ESP Fit Center  275 is at  -3.024472 -4.361434  2.007100
      ESP Fit Center  276 is at  -2.276143 -4.417513  2.007100
      ESP Fit Center  277 is at  -1.544531 -4.250527  2.007100
      ESP Fit Center  278 is at  -0.894642 -3.875314  2.007100
      ESP Fit Center  279 is at  -0.384222 -3.325212  2.007100
      ESP Fit Center  280 is at  -0.058624 -2.649101  2.007100
      ESP Fit Center  281 is at   0.436844 -1.907055  1.396569
      ESP Fit Center  282 is at  -5.161669 -0.839082  1.396569
      ESP Fit Center  283 is at  -5.342519 -1.543448  1.396569
      ESP Fit Center  284 is at  -5.342519 -2.270662  1.396569
      ESP Fit Center  285 is at  -5.161669 -2.975029  1.396569
      ESP Fit Center  286 is at  -4.811331 -3.612291  1.396569
      ESP Fit Center  287 is at  -4.313519 -4.142406  1.396569
      ESP Fit Center  288 is at  -3.699513 -4.532067  1.396569
      ESP Fit Center  289 is at  -3.007892 -4.756788  1.396569
      ESP Fit Center  290 is at  -2.282113 -4.802450  1.396569
      ESP Fit Center  291 is at  -1.567781 -4.666184  1.396569
      ESP Fit Center  292 is at  -0.909778 -4.356552  1.396569
      ESP Fit Center  293 is at  -0.349451 -3.893008  1.396569
      ESP Fit Center  294 is at   0.077995 -3.304680  1.396569
      ESP Fit Center  295 is at   0.345700 -2.628534  1.396569
      ESP Fit Center  296 is at  -5.582317 -1.542608  0.715980
      ESP Fit Center  297 is at  -5.582317 -2.271502  0.715980
      ESP Fit Center  298 is at  -5.414223 -2.980748  0.715980
      ESP Fit Center  299 is at  -5.087096 -3.632111  0.715980
      ESP Fit Center  300 is at  -4.618572 -4.190476  0.715980
      ESP Fit Center  301 is at  -4.033910 -4.625741  0.715980
      ESP Fit Center  302 is at  -3.364628 -4.914441  0.715980
      ESP Fit Center  303 is at  -2.646808 -5.041012  0.715980
      ESP Fit Center  304 is at  -1.919148 -4.998630  0.715980
      ESP Fit Center  305 is at  -1.220875 -4.789581  0.715980
      ESP Fit Center  306 is at  -0.589635 -4.425135  0.715980
      ESP Fit Center  307 is at  -0.059457 -3.924938  0.715980
      ESP Fit Center  308 is at   0.341076 -3.315956  0.715980
      ESP Fit Center  309 is at   0.590373 -2.631020  0.715980
      ESP Fit Center  310 is at  -5.684276 -1.907055 -0.000537
      ESP Fit Center  311 is at  -5.603544 -2.623573 -0.000537
      ESP Fit Center  312 is at  -5.365396 -3.304161 -0.000537
      ESP Fit Center  313 is at  -4.981773 -3.914692 -0.000537
      ESP Fit Center  314 is at  -4.471913 -4.424553 -0.000537
      ESP Fit Center  315 is at  -3.861382 -4.808175 -0.000537
      ESP Fit Center  316 is at  -3.180793 -5.046323 -0.000537
      ESP Fit Center  317 is at  -2.464276 -5.127055 -0.000537
      ESP Fit Center  318 is at  -1.747759 -5.046323 -0.000537
      ESP Fit Center  319 is at  -1.067170 -4.808175 -0.000537
      ESP Fit Center  320 is at  -0.456639 -4.424553 -0.000537
      ESP Fit Center  321 is at   0.053221 -3.914692 -0.000537
      ESP Fit Center  322 is at   0.436844 -3.304161 -0.000537
      ESP Fit Center  323 is at  -5.582317 -1.542608 -0.717055
      ESP Fit Center  324 is at  -5.582317 -2.271502 -0.717055
      ESP Fit Center  325 is at  -5.414223 -2.980748 -0.717055
      ESP Fit Center  326 is at  -5.087096 -3.632111 -0.717055
      ESP Fit Center  327 is at  -4.618572 -4.190476 -0.717055
      ESP Fit Center  328 is at  -4.033910 -4.625741 -0.717055
      ESP Fit Center  329 is at  -3.364628 -4.914441 -0.717055
      ESP Fit Center  330 is at  -2.646808 -5.041012 -0.717055
      ESP Fit Center  331 is at  -1.919148 -4.998630 -0.717055
      ESP Fit Center  332 is at  -1.220875 -4.789581 -0.717055
      ESP Fit Center  333 is at  -0.589635 -4.425135 -0.717055
      ESP Fit Center  334 is at  -0.059457 -3.924938 -0.717055
      ESP Fit Center  335 is at   0.341076 -3.315956 -0.717055
      ESP Fit Center  336 is at   0.590373 -2.631020 -0.717055
      ESP Fit Center  337 is at   0.436844 -1.907055 -1.397643
      ESP Fit Center  338 is at  -5.161669 -0.839082 -1.397643
      ESP Fit Center  339 is at  -5.342519 -1.543448 -1.397643
      ESP Fit Center  340 is at  -5.342519 -2.270662 -1.397643
      ESP Fit Center  341 is at  -5.161669 -2.975029 -1.397643
      ESP Fit Center  342 is at  -4.811331 -3.612291 -1.397643
      ESP Fit Center  343 is at  -4.313519 -4.142406 -1.397643
      ESP Fit Center  344 is at  -3.699513 -4.532067 -1.397643
      ESP Fit Center  345 is at  -3.007892 -4.756788 -1.397643
      ESP Fit Center  346 is at  -2.282113 -4.802450 -1.397643
      ESP Fit Center  347 is at  -1.567781 -4.666184 -1.397643
      ESP Fit Center  348 is at  -0.909778 -4.356552 -1.397643
      ESP Fit Center  349 is at  -0.349451 -3.893008 -1.397643
      ESP Fit Center  350 is at   0.077995 -3.304680 -1.397643
      ESP Fit Center  351 is at   0.345700 -2.628534 -1.397643
      ESP Fit Center  352 is at   0.053221 -1.907055 -2.008174
      ESP Fit Center  353 is at  -0.058624 -1.165010 -2.008174
      ESP Fit Center  354 is at  -0.384222 -0.488898 -2.008174
      ESP Fit Center  355 is at  -0.894642  0.061204 -2.008174
      ESP Fit Center  356 is at  -2.276143  0.603403 -2.008174
      ESP Fit Center  357 is at  -3.024472  0.547323 -2.008174
      ESP Fit Center  358 is at  -4.309732 -0.194722 -2.008174
      ESP Fit Center  359 is at  -4.732463 -0.814754 -2.008174
      ESP Fit Center  360 is at  -4.953655 -1.531842 -2.008174
      ESP Fit Center  361 is at  -4.953655 -2.282269 -2.008174
      ESP Fit Center  362 is at  -4.732463 -2.999356 -2.008174
      ESP Fit Center  363 is at  -4.309732 -3.619388 -2.008174
      ESP Fit Center  364 is at  -3.723025 -4.087272 -2.008174
      ESP Fit Center  365 is at  -3.024472 -4.361434 -2.008174
      ESP Fit Center  366 is at  -2.276143 -4.417513 -2.008174
      ESP Fit Center  367 is at  -1.544531 -4.250527 -2.008174
      ESP Fit Center  368 is at  -0.894642 -3.875314 -2.008174
      ESP Fit Center  369 is at  -0.384222 -3.325212 -2.008174
      ESP Fit Center  370 is at  -0.058624 -2.649101 -2.008174
      ESP Fit Center  371 is at  -0.456639 -1.907055 -2.518034
      ESP Fit Center  372 is at  -0.592210 -1.181813 -2.518034
      ESP Fit Center  373 is at  -0.980614 -0.554519 -2.518034
      ESP Fit Center  374 is at  -1.569395 -0.109892 -2.518034
      ESP Fit Center  375 is at  -2.279035  0.092018 -2.518034
      ESP Fit Center  376 is at  -3.013692  0.023942 -2.518034
      ESP Fit Center  377 is at  -3.674148 -0.304926 -2.518034
      ESP Fit Center  378 is at  -4.171203 -0.850170 -2.518034
      ESP Fit Center  379 is at  -4.437729 -1.538153 -2.518034
      ESP Fit Center  380 is at  -4.437729 -2.275957 -2.518034
      ESP Fit Center  381 is at  -4.171203 -2.963940 -2.518034
      ESP Fit Center  382 is at  -3.674148 -3.509184 -2.518034
      ESP Fit Center  383 is at  -3.013692 -3.838052 -2.518034
      ESP Fit Center  384 is at  -2.279035 -3.906128 -2.518034
      ESP Fit Center  385 is at  -1.569395 -3.704218 -2.518034
      ESP Fit Center  386 is at  -0.980614 -3.259592 -2.518034
      ESP Fit Center  387 is at  -0.592210 -2.632297 -2.518034
      ESP Fit Center  388 is at  -1.067170 -1.907055 -2.901657
      ESP Fit Center  389 is at  -1.254347 -1.208502 -2.901657
      ESP Fit Center  390 is at  -1.765723 -0.697126 -2.901657
      ESP Fit Center  391 is at  -2.464276 -0.509949 -2.901657
      ESP Fit Center  392 is at  -3.162829 -0.697126 -2.901657
      ESP Fit Center  393 is at  -3.674205 -1.208502 -2.901657
      ESP Fit Center  394 is at  -3.861382 -1.907055 -2.901657
      ESP Fit Center  395 is at  -3.674205 -2.605608 -2.901657
      ESP Fit Center  396 is at  -3.162829 -3.116984 -2.901657
      ESP Fit Center  397 is at  -2.464276 -3.304161 -2.901657
      ESP Fit Center  398 is at  -1.765723 -3.116984 -2.901657
      ESP Fit Center  399 is at  -1.254347 -2.605608 -2.901657
      ESP Fit Center  400 is at  -1.747759 -1.907055 -3.139805
      ESP Fit Center  401 is at  -2.106017 -1.286533 -3.139805
      ESP Fit Center  402 is at  -2.822535 -1.286533 -3.139805
      ESP Fit Center  403 is at  -3.180793 -1.907055 -3.139805
      ESP Fit Center  404 is at  -2.822535 -2.527577 -3.139805
      ESP Fit Center  405 is at  -2.106017 -2.527577 -3.139805
      ESP Fit Center  406 is at  -2.464276 -1.907055 -3.220537
      ESP Fit Center  407 is at   1.753892  1.848761  2.098523
      ESP Fit Center  408 is at   2.472134  1.848761  1.971877
      ESP Fit Center  409 is at   1.394771  2.470777  1.971877
      ESP Fit Center  410 is at   1.035650  1.848761  1.971877
      ESP Fit Center  411 is at   1.394771  1.226745  1.971877
      ESP Fit Center  412 is at   2.113013  1.226745  1.971877
      ESP Fit Center  413 is at   3.103746  1.848761  1.607216
      ESP Fit Center  414 is at   0.458717  2.229059  1.607216
      ESP Fit Center  415 is at   2.889461  1.118975  1.607216
      ESP Fit Center  416 is at   3.572545  1.848761  1.048523
      ESP Fit Center  417 is at   3.572545  1.848761 -1.051477
      ESP Fit Center  418 is at   3.103746  1.848761 -1.610170
      ESP Fit Center  419 is at   0.458717  2.229059 -1.610170
      ESP Fit Center  420 is at   2.889461  1.118975 -1.610170
      ESP Fit Center  421 is at   2.472134  1.848761 -1.974832
      ESP Fit Center  422 is at   1.394771  2.470777 -1.974832
      ESP Fit Center  423 is at   1.035650  1.848761 -1.974832
      ESP Fit Center  424 is at   1.394771  1.226745 -1.974832
      ESP Fit Center  425 is at   2.113013  1.226745 -1.974832
      ESP Fit Center  426 is at   1.753892  1.848761 -2.101477
      ESP Fit Center  427 is at   2.089136  2.964085  2.097462
      ESP Fit Center  428 is at   2.807378  2.964085  1.970816
      ESP Fit Center  429 is at   2.448257  3.586101  1.970816
      ESP Fit Center  430 is at   1.730015  3.586101  1.970816
      ESP Fit Center  431 is at   1.370894  2.964085  1.970816
      ESP Fit Center  432 is at   2.448257  2.342069  1.970816
      ESP Fit Center  433 is at   3.438990  2.964085  1.606155
      ESP Fit Center  434 is at   3.224705  3.693871  1.606155
      ESP Fit Center  435 is at   2.649886  4.191955  1.606155
      ESP Fit Center  436 is at   1.897032  4.300199  1.606155
      ESP Fit Center  437 is at   1.205170  3.984237  1.606155
      ESP Fit Center  438 is at   0.793961  3.344383  1.606155
      ESP Fit Center  439 is at   3.224705  2.234299  1.606155
      ESP Fit Center  440 is at   3.907789  2.964085  1.047462
      ESP Fit Center  441 is at   3.750558  3.703798  1.047462
      ESP Fit Center  442 is at   3.306053  4.315608  1.047462
      ESP Fit Center  443 is at   2.651131  4.693727  1.047462
      ESP Fit Center  444 is at   1.899035  4.772776  1.047462
      ESP Fit Center  445 is at   1.179809  4.539085  1.047462
      ESP Fit Center  446 is at   0.617815  4.033063  1.047462
      ESP Fit Center  447 is at   3.750558  2.224372  1.047462
      ESP Fit Center  448 is at   4.157232  2.964085  0.362123
      ESP Fit Center  449 is at   4.017578  3.711167  0.362123
      ESP Fit Center  450 is at   3.617478  4.357352  0.362123
      ESP Fit Center  451 is at   3.010966  4.815369  0.362123
      ESP Fit Center  452 is at   2.279956  5.023359  0.362123
      ESP Fit Center  453 is at   1.523175  4.953233  0.362123
      ESP Fit Center  454 is at   0.842830  4.614461  0.362123
      ESP Fit Center  455 is at   4.017578  2.217002  0.362123
      ESP Fit Center  456 is at   4.157232  2.964085 -0.367199
      ESP Fit Center  457 is at   4.017578  3.711167 -0.367199
      ESP Fit Center  458 is at   3.617478  4.357352 -0.367199
      ESP Fit Center  459 is at   3.010966  4.815369 -0.367199
      ESP Fit Center  460 is at   2.279956  5.023359 -0.367199
      ESP Fit Center  461 is at   1.523175  4.953233 -0.367199
      ESP Fit Center  462 is at   0.842830  4.614461 -0.367199
      ESP Fit Center  463 is at   4.017578  2.217002 -0.367199
      ESP Fit Center  464 is at   3.907789  2.964085 -1.052538
      ESP Fit Center  465 is at   3.750558  3.703798 -1.052538
      ESP Fit Center  466 is at   3.306053  4.315608 -1.052538
      ESP Fit Center  467 is at   2.651131  4.693727 -1.052538
      ESP Fit Center  468 is at   1.899035  4.772776 -1.052538
      ESP Fit Center  469 is at   1.179809  4.539085 -1.052538
      ESP Fit Center  470 is at   0.617815  4.033063 -1.052538
      ESP Fit Center  471 is at   3.750558  2.224372 -1.052538
      ESP Fit Center  472 is at   3.438990  2.964085 -1.611231
      ESP Fit Center  473 is at   3.224705  3.693871 -1.611231
      ESP Fit Center  474 is at   2.649886  4.191955 -1.611231
      ESP Fit Center  475 is at   1.897032  4.300199 -1.611231
      ESP Fit Center  476 is at   1.205170  3.984237 -1.611231
      ESP Fit Center  477 is at   0.793961  3.344383 -1.611231
      ESP Fit Center  478 is at   3.224705  2.234299 -1.611231
      ESP Fit Center  479 is at   2.807378  2.964085 -1.975893
      ESP Fit Center  480 is at   2.448257  3.586101 -1.975893
      ESP Fit Center  481 is at   1.730015  3.586101 -1.975893
      ESP Fit Center  482 is at   1.370894  2.964085 -1.975893
      ESP Fit Center  483 is at   2.448257  2.342069 -1.975893
      ESP Fit Center  484 is at   2.089136  2.964085 -2.102538
      ESP Fit Center  485 is at   7.529777  1.306223 -0.512523
      ESP Fit Center  486 is at   7.009928  1.893011 -0.512523
      ESP Fit Center  487 is at   6.276932  2.171000 -0.512523
      ESP Fit Center  488 is at   5.498707  2.076506 -0.512523
      ESP Fit Center  489 is at   4.853537  1.631178 -0.512523
      ESP Fit Center  490 is at   7.717386  0.545063 -1.260193
      ESP Fit Center  491 is at   7.529777  1.306223 -1.260193
      ESP Fit Center  492 is at   7.009928  1.893011 -1.260193
      ESP Fit Center  493 is at   6.276932  2.171000 -1.260193
      ESP Fit Center  494 is at   5.498707  2.076506 -1.260193
      ESP Fit Center  495 is at   4.853537  1.631178 -1.260193
      ESP Fit Center  496 is at   7.392984  0.545063 -1.933821
      ESP Fit Center  497 is at   7.142132  1.317105 -1.933821
      ESP Fit Center  498 is at   6.485394  1.794254 -1.933821
      ESP Fit Center  499 is at   5.673620  1.794254 -1.933821
      ESP Fit Center  500 is at   5.016882  1.317105 -1.933821
      ESP Fit Center  501 is at   4.766030  0.545063 -1.933821
      ESP Fit Center  502 is at   7.142132 -0.226979 -1.933821
      ESP Fit Center  503 is at   6.808432  0.545063 -2.399986
      ESP Fit Center  504 is at   6.443969  1.176330 -2.399986
      ESP Fit Center  505 is at   5.715045  1.176330 -2.399986
      ESP Fit Center  506 is at   5.350582  0.545063 -2.399986
      ESP Fit Center  507 is at   5.715045 -0.086204 -2.399986
      ESP Fit Center  508 is at   6.443969 -0.086204 -2.399986
      ESP Fit Center  509 is at   6.079507  0.545063 -2.566358
      ESP Fit Center  510 is at   6.078707  0.544622  2.568330
      ESP Fit Center  511 is at   6.807632  0.544622  2.401958
      ESP Fit Center  512 is at   6.443169  1.175889  2.401958
      ESP Fit Center  513 is at   5.714245  1.175889  2.401958
      ESP Fit Center  514 is at   5.349782  0.544622  2.401958
      ESP Fit Center  515 is at   5.714245 -0.086645  2.401958
      ESP Fit Center  516 is at   6.443169 -0.086645  2.401958
      ESP Fit Center  517 is at   7.392184  0.544622  1.935793
      ESP Fit Center  518 is at   7.141332  1.316664  1.935793
      ESP Fit Center  519 is at   6.484594  1.793813  1.935793
      ESP Fit Center  520 is at   5.672820  1.793813  1.935793
      ESP Fit Center  521 is at   5.016082  1.316664  1.935793
      ESP Fit Center  522 is at   4.765230  0.544622  1.935793
      ESP Fit Center  523 is at   7.141332 -0.227420  1.935793
      ESP Fit Center  524 is at   7.716586  0.544622  1.262165
      ESP Fit Center  525 is at   7.528977  1.305782  1.262165
      ESP Fit Center  526 is at   7.009128  1.892570  1.262165
      ESP Fit Center  527 is at   6.276132  2.170559  1.262165
      ESP Fit Center  528 is at   5.497907  2.076065  1.262165
      ESP Fit Center  529 is at   4.852737  1.630737  1.262165
      ESP Fit Center  530 is at   7.528977  1.305782  0.514495
      ESP Fit Center  531 is at   7.009128  1.892570  0.514495
      ESP Fit Center  532 is at   6.276132  2.170559  0.514495
      ESP Fit Center  533 is at   5.497907  2.076065  0.514495
      ESP Fit Center  534 is at   4.852737  1.630737  0.514495
      ESP Fit Center  535 is at   7.634480 -0.753514  1.514663
      ESP Fit Center  536 is at   7.270017 -1.384781  1.514663
      ESP Fit Center  537 is at   8.219032 -0.753514  1.048498
      ESP Fit Center  538 is at   7.968180  0.018528  1.048498
      ESP Fit Center  539 is at   6.499668 -2.002705  1.048498
      ESP Fit Center  540 is at   7.311442 -2.002705  1.048498
      ESP Fit Center  541 is at   7.968180 -1.525556  1.048498
      ESP Fit Center  542 is at   8.543434 -0.753514  0.374870
      ESP Fit Center  543 is at   8.355825  0.007646  0.374870
      ESP Fit Center  544 is at   6.324755 -2.284957  0.374870
      ESP Fit Center  545 is at   7.102980 -2.379451  0.374870
      ESP Fit Center  546 is at   7.835976 -2.101462  0.374870
      ESP Fit Center  547 is at   8.355825 -1.514674  0.374870
      ESP Fit Center  548 is at   8.543434 -0.753514 -0.372800
      ESP Fit Center  549 is at   8.355825  0.007646 -0.372800
      ESP Fit Center  550 is at   6.324755 -2.284957 -0.372800
      ESP Fit Center  551 is at   7.102980 -2.379451 -0.372800
      ESP Fit Center  552 is at   7.835976 -2.101462 -0.372800
      ESP Fit Center  553 is at   8.355825 -1.514674 -0.372800
      ESP Fit Center  554 is at   8.219032 -0.753514 -1.046428
      ESP Fit Center  555 is at   7.968180  0.018528 -1.046428
      ESP Fit Center  556 is at   6.499668 -2.002705 -1.046428
[...]
 3460 Fit      -0.005352
 3461 Fit      -0.006275
 3462 Fit      -0.006793
 3463 Fit      -0.006437
 3464 Fit      -0.007212
 3465 Fit      -0.003308
 3466 Fit      -0.000592
 3467 Fit       0.000326
 3468 Fit       0.005437
 3469 Fit       0.006273
 3470 Fit       0.006092
 3471 Fit       0.005178
 3472 Fit       0.003922
 3473 Fit       0.002651
 3474 Fit       0.001550
 3475 Fit       0.000686
 3476 Fit       0.000041
 3477 Fit      -0.000446
 3478 Fit      -0.000856
 3479 Fit      -0.001278
 3480 Fit      -0.001788
 3481 Fit      -0.002451
 3482 Fit      -0.003311
 3483 Fit      -0.004396
 3484 Fit      -0.005714
 3485 Fit      -0.007231
 3486 Fit      -0.008787
 3487 Fit      -0.009924
 3488 Fit      -0.009701
 3489 Fit       0.009776
 3490 Fit       0.008762
 3491 Fit       0.007131
 3492 Fit       0.005350
 3493 Fit       0.003723
 3494 Fit       0.002388
 3495 Fit       0.001371
 3496 Fit       0.000633
 3497 Fit       0.000107
 3498 Fit      -0.000291
 3499 Fit      -0.000646
 3500 Fit      -0.001041
 3501 Fit      -0.001545
 3502 Fit      -0.002222
 3503 Fit      -0.003122
 3504 Fit      -0.004297
 3505 Fit      -0.005805
 3506 Fit      -0.007724
 3507 Fit      -0.010136
 3508 Fit      -0.013017
 3509 Fit      -0.015842
 3510 Fit       0.012852
 3511 Fit       0.010400
 3512 Fit       0.007894
 3513 Fit       0.005673
 3514 Fit       0.003873
 3515 Fit       0.002501
 3516 Fit       0.001505
 3517 Fit       0.000809
 3518 Fit       0.000326
 3519 Fit      -0.000031
 3520 Fit      -0.000349
 3521 Fit      -0.000706
 3522 Fit      -0.001173
 3523 Fit      -0.001811
 3524 Fit      -0.002677
 3525 Fit      -0.003833
 3526 Fit      -0.005360
 3527 Fit      -0.007395
 3528 Fit      -0.010168
 3529 Fit      -0.014063
 3530 Fit       0.010964
 3531 Fit       0.007903
 3532 Fit       0.005477
 3533 Fit       0.003650
 3534 Fit       0.002333
 3535 Fit       0.001418
 3536 Fit       0.000802
 3537 Fit       0.000383
 3538 Fit       0.000066
 3539 Fit      -0.000239
 3540 Fit      -0.000611
 3541 Fit      -0.001123
 3542 Fit      -0.001839
 3543 Fit      -0.002822
 3544 Fit      -0.004153
 3545 Fit      -0.005955
 3546 Fit      -0.008453
 3547 Fit      -0.012088
 3548 Fit      -0.017753
 3549 Fit       0.014027
 3550 Fit       0.010172
 3551 Fit       0.007139
 3552 Fit       0.004858
 3553 Fit       0.003201
 3554 Fit       0.002039
 3555 Fit       0.001251
 3556 Fit       0.000728
 3557 Fit       0.000368
 3558 Fit       0.000078
 3559 Fit      -0.000227
 3560 Fit      -0.000625
 3561 Fit      -0.001184
 3562 Fit      -0.001966
 3563 Fit      -0.003041
 3564 Fit      -0.004500
 3565 Fit      -0.006499
 3566 Fit      -0.009335
 3567 Fit      -0.013621
 3568 Fit      -0.020712
 3569 Fit       0.014026
 3570 Fit       0.010171
 3571 Fit       0.007138
 3572 Fit       0.004857
 3573 Fit       0.003201
 3574 Fit       0.002039
 3575 Fit       0.001251
 3576 Fit       0.000728
 3577 Fit       0.000368
 3578 Fit       0.000079
 3579 Fit      -0.000227
 3580 Fit      -0.000625
 3581 Fit      -0.001183
 3582 Fit      -0.001966
 3583 Fit      -0.003040
 3584 Fit      -0.004499
 3585 Fit      -0.006498
 3586 Fit      -0.009333
 3587 Fit      -0.013617
 3588 Fit      -0.020704
 3589 Fit       0.010962
 3590 Fit       0.007901
 3591 Fit       0.005476
 3592 Fit       0.003650
 3593 Fit       0.002332
 3594 Fit       0.001418
 3595 Fit       0.000802
 3596 Fit       0.000384
 3597 Fit       0.000067
 3598 Fit      -0.000238
 3599 Fit      -0.000610
 3600 Fit      -0.001122
 3601 Fit      -0.001837
 3602 Fit      -0.002821
 3603 Fit      -0.004151
 3604 Fit      -0.005951
 3605 Fit      -0.008448
 3606 Fit      -0.012078
 3607 Fit      -0.017734
 3608 Fit       0.012846
 3609 Fit       0.010396
 3610 Fit       0.007891
 3611 Fit       0.005671
 3612 Fit       0.003871
 3613 Fit       0.002500
 3614 Fit       0.001505
 3615 Fit       0.000809
 3616 Fit       0.000327
 3617 Fit      -0.000031
 3618 Fit      -0.000348
 3619 Fit      -0.000705
 3620 Fit      -0.001171
 3621 Fit      -0.001809
 3622 Fit      -0.002675
 3623 Fit      -0.003829
 3624 Fit      -0.005356
 3625 Fit      -0.007388
 3626 Fit      -0.010156
 3627 Fit      -0.014041
 3628 Fit       0.009769
 3629 Fit       0.008757
 3630 Fit       0.007127
 3631 Fit       0.005347
 3632 Fit       0.003721
 3633 Fit       0.002387
 3634 Fit       0.001370
 3635 Fit       0.000633
 3636 Fit       0.000107
 3637 Fit      -0.000290
 3638 Fit      -0.000645
 3639 Fit      -0.001039
 3640 Fit      -0.001544
 3641 Fit      -0.002220
 3642 Fit      -0.003119
 3643 Fit      -0.004293
 3644 Fit      -0.005799
 3645 Fit      -0.007714
 3646 Fit      -0.010120
 3647 Fit      -0.012988
 3648 Fit      -0.015794
 3649 Fit      -0.007185
 3650 Fit      -0.003299
 3651 Fit      -0.000604
 3652 Fit       0.000291
 3653 Fit      -0.001028
 3654 Fit       0.005431
 3655 Fit       0.006267
 3656 Fit       0.006087
 3657 Fit       0.005173
 3658 Fit       0.003919
 3659 Fit       0.002648
 3660 Fit       0.001549
 3661 Fit       0.000685
 3662 Fit       0.000041
 3663 Fit      -0.000445
 3664 Fit      -0.000856
 3665 Fit      -0.001276
 3666 Fit      -0.001786
 3667 Fit      -0.002448
 3668 Fit      -0.003308
 3669 Fit      -0.004392
 3670 Fit      -0.005708
 3671 Fit      -0.007221
 3672 Fit      -0.008771
 3673 Fit      -0.009899
 3674 Fit      -0.009670
 3675 Fit      -0.004943
 3676 Fit      -0.002895
 3677 Fit      -0.001324
 3678 Fit      -0.000566
 3679 Fit      -0.000373
 3680 Fit      -0.000519
 3681 Fit      -0.000649
 3682 Fit      -0.000411
 3683 Fit       0.000307
 3684 Fit       0.001435
 3685 Fit       0.002684
 3686 Fit       0.003582
 3687 Fit       0.003813
 3688 Fit       0.003393
 3689 Fit       0.002566
 3690 Fit       0.001612
 3691 Fit       0.000729
 3692 Fit       0.000003
 3693 Fit      -0.000569
 3694 Fit      -0.001042
 3695 Fit      -0.001496
 3696 Fit      -0.002008
 3697 Fit      -0.002639
 3698 Fit      -0.003420
 3699 Fit      -0.004344
 3700 Fit      -0.005346
 3701 Fit      -0.006267
 3702 Fit      -0.006782
 3703 Fit      -0.006425
 3704 Fit      -0.003832
 3705 Fit      -0.002569
 3706 Fit      -0.001554
 3707 Fit      -0.001004
 3708 Fit      -0.000784
 3709 Fit      -0.000610
 3710 Fit      -0.000227
 3711 Fit       0.000433
 3712 Fit       0.001229
 3713 Fit       0.001851
 3714 Fit       0.002014
 3715 Fit       0.001680
 3716 Fit       0.001026
 3717 Fit       0.000280
 3718 Fit      -0.000405
 3719 Fit      -0.000985
 3720 Fit      -0.001498
 3721 Fit      -0.002013
 3722 Fit      -0.002595
 3723 Fit      -0.003270
 3724 Fit      -0.003999
 3725 Fit      -0.004658
 3726 Fit      -0.005011
 3727 Fit      -0.004769
 3728 Fit      -0.003188
 3729 Fit      -0.002296
 3730 Fit      -0.001563
 3731 Fit      -0.001097
 3732 Fit      -0.000709
 3733 Fit      -0.000217
 3734 Fit       0.000327
 3735 Fit       0.000662
 3736 Fit       0.000573
 3737 Fit       0.000104
 3738 Fit      -0.000531
 3739 Fit      -0.001159
 3740 Fit      -0.001739
 3741 Fit      -0.002313
 3742 Fit      -0.002915
 3743 Fit      -0.003496
 3744 Fit      -0.003878
 3745 Fit      -0.003810
 3746 Fit      -0.002725
 3747 Fit      -0.002026
 3748 Fit      -0.001407
 3749 Fit      -0.000900
 3750 Fit      -0.000478
 3751 Fit      -0.000355
 3752 Fit      -0.000674
 3753 Fit      -0.001257
 3754 Fit      -0.001888
 3755 Fit      -0.002492
 3756 Fit      -0.002983
 3757 Fit      -0.003123
 3758 Fit      -0.002306
 3759 Fit      -0.001671
 3760 Fit      -0.001201
 3761 Fit      -0.001319
 3762 Fit      -0.001928
 3763 Fit      -0.002441
 3764 Fit      -0.001852
 3765 Fit      -0.005649
 3766 Fit      -0.007760
 3767 Fit      -0.007843
 3768 Fit      -0.003459
 3769 Fit      -0.001929
 3770 Fit      -0.003260
 3771 Fit      -0.010040
 3772 Fit      -0.004435
 3773 Fit      -0.001074
 3774 Fit      -0.004813
 3775 Fit      -0.012646
 3776 Fit      -0.012693
 3777 Fit      -0.010095
 3778 Fit      -0.004510
 3779 Fit      -0.001135
 3780 Fit      -0.004864
 3781 Fit      -0.007819
 3782 Fit      -0.007913
 3783 Fit      -0.003518
 3784 Fit      -0.001976
 3785 Fit      -0.003311
 3786 Fit      -0.005708
 3787 Fit      -0.012464
 3788 Fit      -0.014378
 3789 Fit      -0.015569
 3790 Fit      -0.013466
 3791 Fit      -0.010075
 3792 Fit      -0.010905
 3793 Fit      -0.015902
 3794 Fit      -0.017767
 3795 Fit      -0.018170
 3796 Fit      -0.016831
 3797 Fit      -0.013913
 3798 Fit      -0.010272
 3799 Fit      -0.007071
 3800 Fit      -0.012897
 3801 Fit      -0.017050
 3802 Fit      -0.019068
 3803 Fit      -0.020244
 3804 Fit      -0.020287
 3805 Fit      -0.018987
 3806 Fit      -0.016294
 3807 Fit      -0.012447
 3808 Fit      -0.008196
 3809 Fit      -0.014526
 3810 Fit      -0.017825
 3811 Fit      -0.019945
 3812 Fit      -0.021484
 3813 Fit      -0.022196
 3814 Fit      -0.021871
 3815 Fit      -0.020333
 3816 Fit      -0.017469
 3817 Fit      -0.013269
 3818 Fit      -0.008012
 3819 Fit      -0.015669
 3820 Fit      -0.018403
 3821 Fit      -0.020471
 3822 Fit      -0.022146
 3823 Fit      -0.023237
 3824 Fit      -0.023571
 3825 Fit      -0.022984
 3826 Fit      -0.021322
 3827 Fit      -0.018444
 3828 Fit      -0.014190
 3829 Fit      -0.008397
 3830 Fit      -0.019071
 3831 Fit      -0.020903
 3832 Fit      -0.022587
 3833 Fit      -0.023819
 3834 Fit      -0.024404
 3835 Fit      -0.024172
 3836 Fit      -0.022969
 3837 Fit      -0.020637
 3838 Fit      -0.016978
 3839 Fit      -0.011669
 3840 Fit      -0.004142
 3841 Fit      -0.021065
 3842 Fit      -0.022707
 3843 Fit      -0.023974
 3844 Fit      -0.024653
 3845 Fit      -0.024577
 3846 Fit      -0.023592
 3847 Fit      -0.021548
 3848 Fit      -0.018258
 3849 Fit      -0.013412
 3850 Fit      -0.006414
 3851 Fit      -0.019070
 3852 Fit      -0.020907
 3853 Fit      -0.022593
 3854 Fit      -0.023825
 3855 Fit      -0.024411
 3856 Fit      -0.024180
 3857 Fit      -0.022978
 3858 Fit      -0.020648
 3859 Fit      -0.016994
 3860 Fit      -0.011692
 3861 Fit      -0.004181
 3862 Fit      -0.018410
 3863 Fit      -0.020481
 3864 Fit      -0.022158
 3865 Fit      -0.023250
 3866 Fit      -0.023586
 3867 Fit      -0.023000
 3868 Fit      -0.021342
 3869 Fit      -0.018468
 3870 Fit      -0.014224
 3871 Fit      -0.008450
 3872 Fit      -0.017842
 3873 Fit      -0.019963
 3874 Fit      -0.021503
 3875 Fit      -0.022216
 3876 Fit      -0.021894
 3877 Fit      -0.020361
 3878 Fit      -0.017504
 3879 Fit      -0.013317
 3880 Fit      -0.008084
 3881 Fit      -0.015684
 3882 Fit      -0.017076
 3883 Fit      -0.019093
 3884 Fit      -0.020271
 3885 Fit      -0.020316
 3886 Fit      -0.019021
 3887 Fit      -0.016336
 3888 Fit      -0.012504
 3889 Fit      -0.008272
 3890 Fit      -0.014553
 3891 Fit      -0.015936
 3892 Fit      -0.017799
 3893 Fit      -0.018205
 3894 Fit      -0.016873
 3895 Fit      -0.013965
 3896 Fit      -0.010337
 3897 Fit      -0.007145
 3898 Fit      -0.012936
 3899 Fit      -0.014419
 3900 Fit      -0.015611
 3901 Fit      -0.013517
 3902 Fit      -0.010136
 3903 Fit      -0.010955
 3904 Fit      -0.012514
 3905 Fit      -0.004605
 3906 Fit      -0.008929
 3907 Fit      -0.015513
 3908 Fit       0.000561
 3909 Fit      -0.001206
 3910 Fit      -0.003747
 3911 Fit      -0.007521
 3912 Fit      -0.013000
 3913 Fit       0.002115
 3914 Fit       0.000906
 3915 Fit      -0.000703
 3916 Fit      -0.002999
 3917 Fit      -0.006219
 3918 Fit      -0.010346
 3919 Fit      -0.014489
 3920 Fit       0.003184
 3921 Fit       0.002138
 3922 Fit       0.000819
 3923 Fit      -0.001047
 3924 Fit      -0.003571
 3925 Fit      -0.006358
 3926 Fit      -0.008027
 3927 Fit       0.003148
 3928 Fit       0.001950
 3929 Fit       0.000307
 3930 Fit      -0.001678
 3931 Fit      -0.002860
 3932 Fit      -0.001565
 3933 Fit       0.001938
 3934 Fit       0.004213
 3935 Fit       0.002954
 3936 Fit       0.001520
 3937 Fit       0.000389
 3938 Fit       0.001549
 3939 Fit       0.003713
 3940 Fit       0.003937
 3941 Fit       0.002463
 3942 Fit       0.002477
 3943 Fit       0.002963
 3944 Fit       0.001536
 3945 Fit       0.000412
 3946 Fit       0.001570
 3947 Fit       0.003723
 3948 Fit       0.003945
 3949 Fit       0.003155
 3950 Fit       0.001959
 3951 Fit       0.000323
 3952 Fit      -0.001652
 3953 Fit      -0.002824
 3954 Fit      -0.001527
 3955 Fit       0.001962
 3956 Fit       0.004217
 3957 Fit       0.003188
 3958 Fit       0.002144
 3959 Fit       0.000828
 3960 Fit      -0.001032
 3961 Fit      -0.003546
 3962 Fit      -0.006319
 3963 Fit      -0.007972
 3964 Fit       0.002118
 3965 Fit       0.000912
 3966 Fit      -0.000695
 3967 Fit      -0.002986
 3968 Fit      -0.006197
 3969 Fit      -0.010308
 3970 Fit      -0.014427
 3971 Fit       0.000564
 3972 Fit      -0.001202
 3973 Fit      -0.003740
 3974 Fit      -0.007508
 3975 Fit      -0.012975
 3976 Fit      -0.004603
 3977 Fit      -0.008926
 3978 Fit      -0.015505
 3979 Fit       0.007363
 3980 Fit       0.006181
 3981 Fit       0.005162
 3982 Fit       0.009353
 3983 Fit       0.007904
 3984 Fit       0.007012
 3985 Fit       0.006151
 3986 Fit       0.005333
 3987 Fit       0.004271
 3988 Fit       0.009553
 3989 Fit       0.008399
 3990 Fit       0.007692
 3991 Fit       0.007041
 3992 Fit       0.006272
 3993 Fit       0.005455
 3994 Fit       0.004335
 3995 Fit       0.009233
 3996 Fit       0.008388
 3997 Fit       0.007798
 3998 Fit       0.007185
 3999 Fit       0.006417
 4000 Fit       0.005454
 4001 Fit       0.004335
 4002 Fit       0.009234
 4003 Fit       0.008389
 4004 Fit       0.007798
 4005 Fit       0.007185
 4006 Fit       0.006417
 4007 Fit       0.005332
 4008 Fit       0.004270
 4009 Fit       0.009558
 4010 Fit       0.008402
 4011 Fit       0.007693
 4012 Fit       0.007042
 4013 Fit       0.006271
 4014 Fit       0.005161
 4015 Fit       0.009360
 4016 Fit       0.007907
 4017 Fit       0.007013
 4018 Fit       0.006151
 4019 Fit       0.007367
 4020 Fit       0.006182
 4021 Fit       0.003635
 4022 Fit       0.005215
 4023 Fit       0.004518
 4024 Fit       0.003062
 4025 Fit       0.001784
 4026 Fit       0.001975
 4027 Fit       0.004093
 4028 Fit       0.006600
 4029 Fit       0.002216
 4030 Fit       0.001023
 4031 Fit      -0.001865
 4032 Fit      -0.001684
 4033 Fit       0.001145
 4034 Fit       0.004058
 4035 Fit       0.005951
 4036 Fit      -0.008044
 4037 Fit      -0.003752
 4038 Fit       0.000515
 4039 Fit       0.003854
 4040 Fit       0.006191
 4041 Fit       0.007557
 4042 Fit      -0.006662
 4043 Fit      -0.001127
 4044 Fit       0.002921
 4045 Fit       0.005881
 4046 Fit       0.008031
 4047 Fit      -0.008147
 4048 Fit      -0.001280
 4049 Fit       0.003459
 4050 Fit       0.006962
 4051 Fit      -0.010789
 4052 Fit      -0.002090
 4053 Fit      -0.010769
 4054 Fit      -0.002078
 4055 Fit      -0.008123
 4056 Fit      -0.001266
 4057 Fit       0.003467
 4058 Fit       0.006965
 4059 Fit      -0.006633
 4060 Fit      -0.001111
 4061 Fit       0.002930
 4062 Fit       0.005885
 4063 Fit       0.008030
 4064 Fit      -0.008000
 4065 Fit      -0.003725
 4066 Fit       0.000530
 4067 Fit       0.003861
 4068 Fit       0.006193
 4069 Fit       0.007555
 4070 Fit       0.006595
 4071 Fit       0.002198
 4072 Fit       0.001030
 4073 Fit      -0.001840
 4074 Fit      -0.001660
 4075 Fit       0.001159
 4076 Fit       0.004064
 4077 Fit       0.005951
 4078 Fit       0.005211
 4079 Fit       0.004508
 4080 Fit       0.003054
 4081 Fit       0.001789
 4082 Fit       0.001984
 4083 Fit       0.004096
 4084 Fit       0.003634
 4085 Fit       0.001154
 4086 Fit      -0.000830
 4087 Fit      -0.000846
 4088 Fit       0.001116
 4089 Fit       0.007064
 4090 Fit       0.009202
 4091 Fit       0.005583
 4092 Fit       0.007962
 4093 Fit       0.010086
 4094 Fit       0.011841
 4095 Fit       0.013450
 4096 Fit       0.004049
 4097 Fit       0.006525
 4098 Fit       0.008951
 4099 Fit       0.010985
 4100 Fit       0.012707
 4101 Fit       0.014383
 4102 Fit       0.016485
 4103 Fit       0.003147
 4104 Fit       0.005987
 4105 Fit       0.008712
 4106 Fit       0.010945
 4107 Fit       0.012790
 4108 Fit       0.014526
 4109 Fit       0.016645
 4110 Fit       0.003134
 4111 Fit       0.005980
 4112 Fit       0.008708
 4113 Fit       0.010942
 4114 Fit       0.012788
 4115 Fit       0.014525
 4116 Fit       0.016644
 4117 Fit       0.004020
 4118 Fit       0.006507
 4119 Fit       0.008939
 4120 Fit       0.010977
 4121 Fit       0.012701
 4122 Fit       0.014379
 4123 Fit       0.016483
 4124 Fit       0.005553
 4125 Fit       0.007942
 4126 Fit       0.010072
 4127 Fit       0.011832
 4128 Fit       0.013444
 4129 Fit       0.007040
 4130 Fit       0.009186
 4131 Fit       0.013823
 4132 Fit       0.014016
 4133 Fit       0.015576
 4134 Fit       0.015667
 4135 Fit       0.015782
 4136 Fit       0.015882
 4137 Fit       0.016073
 4138 Fit       0.017209
 4139 Fit       0.016886
 4140 Fit       0.016875
 4141 Fit       0.016977
 4142 Fit       0.017202
 4143 Fit       0.017773
 4144 Fit       0.018439
 4145 Fit       0.017631
 4146 Fit       0.017449
 4147 Fit       0.017498
 4148 Fit       0.017687
 4149 Fit       0.018170
 4150 Fit       0.019457
 4151 Fit       0.018437
 4152 Fit       0.017630
 4153 Fit       0.017449
 4154 Fit       0.017498
 4155 Fit       0.017687
 4156 Fit       0.018171
 4157 Fit       0.019459
 4158 Fit       0.017203
 4159 Fit       0.016882
 4160 Fit       0.016873
 4161 Fit       0.016976
 4162 Fit       0.017203
 4163 Fit       0.017776
 4164 Fit       0.015569
 4165 Fit       0.015663
 4166 Fit       0.015780
 4167 Fit       0.015881
 4168 Fit       0.016075
 4169 Fit       0.013817
 4170 Fit       0.014014
 4171 Fit       0.017231
 4172 Fit       0.015068
 4173 Fit       0.020177
 4174 Fit       0.017035
 4175 Fit       0.014911
 4176 Fit       0.020175
 4177 Fit       0.017034
 4178 Fit       0.014910
 4179 Fit       0.017227
 4180 Fit       0.015067
 -----------------------------------------------------------------
 Leave Link  602 at Thu Jan 16 22:40:43 2014, MaxMem=   235929600 cpu:         1.8

 Test job not archived.
 1\1\GINC-G33\SP\RHF\Gen\C12H10Br1N1O2\KOLAR\16-Jan-2014\0\\# hf/gen po
 p=mk iop(6/33=2,6/41=5,6/42=2)\\na resp\\0,1\C,0,6.031063,-0.093868,0.
 000804\C,0,4.76416,-0.926999,0.000034\O,0,3.643033,-0.008504,-0.000412
 \C,0,2.421898,-0.565381,0.000328\O,0,2.210344,-1.760899,0.001249\C,0,1
 .343182,0.480823,-0.000136\C,0,0.058424,0.032586,0.000622\C,0,-1.21583
 4,0.735637,0.000534\C,0,-1.323134,2.145488,0.001063\C,0,-2.554828,2.78
 679,0.001096\C,0,-3.732736,2.037656,0.000619\C,0,-3.670178,0.64513,0.0
 00132\C,0,-2.432804,0.008046,0.000109\Br,0,-2.464276,-1.907055,-0.0005
 37\C,0,1.753892,1.848761,-0.001477\N,0,2.089136,2.964085,-0.002538\H,0
 ,6.079507,0.545063,-0.886358\H,0,6.078707,0.544622,0.88833\H,0,6.90555
 5,-0.753514,0.001035\H,0,4.687212,-1.567919,0.883895\H,0,4.688139,-1.5
 67594,-0.884164\H,0,-0.005937,-1.051763,0.001328\H,0,-0.42141,2.743889
 ,0.001511\H,0,-2.593906,3.871769,0.001525\H,0,-4.700896,2.530224,0.000
 636\H,0,-4.576916,0.050776,-0.000227\\Version=AM64L-G09RevD.01\State=1
 -A\HF=-3233.9977012\RMSD=7.205e-09\Dipole=-0.9053648,0.0205972,0.00150
 62\Quadrupole=14.0923578,-9.6252419,-4.4671159,-11.9339957,0.0041629,0
 .0155302\PG=C01 [X(C12H10Br1N1O2)]\\@


 MAN IS A SINGULAR CREATURE.  HE HAS A SET OF GIFTS
 WHICH MAKE HIM UNIQUE AMONG THE ANIMALS: SO THAT, 
 UNLIKE THEM, HE IS NOT A FIGURE IN THE LANDSCAPE --
 HE IS A SHAPER OF THE LANDSCAPE.

                       -- JACOB BRONOWSKI
 Job cpu time:       0 days  0 hours  3 minutes 55.9 seconds.
 File lengths (MBytes):  RWF=     38 Int=      0 D2E=      0 Chk=      3 Scr=      1
 Normal termination of Gaussian 09 at Thu Jan 16 22:40:43 2014.
235.61user 0.35system 3:56.39elapsed 99%CPU (0avgtext+0avgdata 603440maxresident)k
40inputs+191856outputs (0major+172994minor)pagefaults 0swaps
