Linux g54 2.6.38.6-client #1 SMP Tue Jun 12 11:27:21 CEST 2012 x86_64 GNU/Linux
Thu Jan 16 22:36:46 CET 2014

 Entering Gaussian System, Link 0=/usr/local/programs/common/gaussian/gaussian09_d01/arch/amd64-pgi_10.4.0-acml/g09/g09
 Initial command:
 /usr/local/programs/common/gaussian/gaussian09_d01/arch/amd64-pgi_10.4.0-acml/g09/l1.exe "/scratch/kolar/g09_25721/Gau-1758.inp" -scrdir="/scratch/kolar/g09_25721/"
 Entering Link 1 = /usr/local/programs/common/gaussian/gaussian09_d01/arch/amd64-pgi_10.4.0-acml/g09/l1.exe PID=      1763.
  
 Copyright (c) 1988,1990,1992,1993,1995,1998,2003,2009,2013,
            Gaussian, Inc.  All Rights Reserved.
  
 This is part of the Gaussian(R) 09 program.  It is based on
 the Gaussian(R) 03 system (copyright 2003, Gaussian, Inc.),
 the Gaussian(R) 98 system (copyright 1998, Gaussian, Inc.),
 the Gaussian(R) 94 system (copyright 1995, Gaussian, Inc.),
 the Gaussian 92(TM) system (copyright 1992, Gaussian, Inc.),
 the Gaussian 90(TM) system (copyright 1990, Gaussian, Inc.),
 the Gaussian 88(TM) system (copyright 1988, Gaussian, Inc.),
 the Gaussian 86(TM) system (copyright 1986, Carnegie Mellon
 University), and the Gaussian 82(TM) system (copyright 1983,
 Carnegie Mellon University). Gaussian is a federally registered
 trademark of Gaussian, Inc.
  
 This software contains proprietary and confidential information,
 including trade secrets, belonging to Gaussian, Inc.
  
 This software is provided under written license and may be
 used, copied, transmitted, or stored only in accord with that
 written license.
  
 The following legend is applicable only to US Government
 contracts under FAR:
  
                    RESTRICTED RIGHTS LEGEND
  
 Use, reproduction and disclosure by the US Government is
 subject to restrictions as set forth in subparagraphs (a)
 and (c) of the Commercial Computer Software - Restricted
 Rights clause in FAR 52.227-19.
  
 Gaussian, Inc.
 340 Quinnipiac St., Bldg. 40, Wallingford CT 06492
  
  
 ---------------------------------------------------------------
 Warning -- This program may not be used in any manner that
 competes with the business of Gaussian, Inc. or will provide
 assistance to any competitor of Gaussian, Inc.  The licensee
 of this program is prohibited from giving any competitor of
 Gaussian, Inc. access to this program.  By using this program,
 the user acknowledges that Gaussian, Inc. is engaged in the
 business of creating and licensing software in the field of
 computational chemistry and represents and warrants to the
 licensee that it is not a competitor of Gaussian, Inc. and that
 it will not use this program in any manner prohibited above.
 ---------------------------------------------------------------
  

 Cite this work as:
 Gaussian 09, Revision D.01,
 M. J. Frisch, G. W. Trucks, H. B. Schlegel, G. E. Scuseria, 
 M. A. Robb, J. R. Cheeseman, G. Scalmani, V. Barone, B. Mennucci, 
 G. A. Petersson, H. Nakatsuji, M. Caricato, X. Li, H. P. Hratchian, 
 A. F. Izmaylov, J. Bloino, G. Zheng, J. L. Sonnenberg, M. Hada, 
 M. Ehara, K. Toyota, R. Fukuda, J. Hasegawa, M. Ishida, T. Nakajima, 
 Y. Honda, O. Kitao, H. Nakai, T. Vreven, J. A. Montgomery, Jr., 
 J. E. Peralta, F. Ogliaro, M. Bearpark, J. J. Heyd, E. Brothers, 
 K. N. Kudin, V. N. Staroverov, T. Keith, R. Kobayashi, J. Normand, 
 K. Raghavachari, A. Rendell, J. C. Burant, S. S. Iyengar, J. Tomasi, 
 M. Cossi, N. Rega, J. M. Millam, M. Klene, J. E. Knox, J. B. Cross, 
 V. Bakken, C. Adamo, J. Jaramillo, R. Gomperts, R. E. Stratmann, 
 O. Yazyev, A. J. Austin, R. Cammi, C. Pomelli, J. W. Ochterski, 
 R. L. Martin, K. Morokuma, V. G. Zakrzewski, G. A. Voth, 
 P. Salvador, J. J. Dannenberg, S. Dapprich, A. D. Daniels, 
 O. Farkas, J. B. Foresman, J. V. Ortiz, J. Cioslowski, 
 and D. J. Fox, Gaussian, Inc., Wallingford CT, 2013.
 
 ******************************************
 Gaussian 09:  AM64L-G09RevD.01 24-Apr-2013
                16-Jan-2014 
 ******************************************
 %mem=1800mb
 -----------------------------------------
 # hf/gen pop=mk iop(6/33=2,6/41=5,6/42=2)
 -----------------------------------------
 1/38=1/1;
 2/12=2,17=6,18=5,40=1/2;
 3/5=7,11=9,16=1,25=1,30=1/1,2,3;
 4//1;
 5/5=2,38=5/2;
 6/7=2,8=2,9=2,10=2,15=8,20=1,28=1,33=2,41=5,42=2/1,2;
 99/5=1,9=1/99;
 -------
 na resp
 -------
 Symbolic Z-matrix:
 Charge =  0 Multiplicity = 1
 7                    -0.61159  -1.85716  -0.00018 
 6                    -0.95851  -0.57178  -0.00013 
 7                     0.14034   0.27034  -0.00018 
 6                     1.23695  -0.55877  -0.00005 
 6                     0.74951  -1.8537   -0.00013 
 6                    -0.01053   1.64996  -0.00019 
 6                    -1.28986   2.12231  -0.00013 
 7                    -2.41796   1.35113  -0.00005 
 6                    -2.26039   0.03603  -0.00005 
 7                    -3.33277  -0.79036  -0.00032 
 6                    -4.69965  -0.3082    0.00049 
 35                    2.98561   0.10704   0.00013 
 1                    -4.90379   0.30399  -0.8854 
 1                    -5.37066  -1.16992   0.00218 
 1                    -4.90185   0.30607   0.88535 
 1                    -3.1368   -1.78083   0.00011 
 1                     1.33082  -2.76541  -0.00011 
 1                     0.88796   2.2508   -0.00021 
 1                    -1.45332   3.19632  -0.0001 
 
                          Input orientation:                          
 ---------------------------------------------------------------------
 Center     Atomic      Atomic             Coordinates (Angstroms)
 Number     Number       Type             X           Y           Z
 ---------------------------------------------------------------------
      1          7           0       -0.611590   -1.857155   -0.000184
      2          6           0       -0.958512   -0.571778   -0.000129
      3          7           0        0.140343    0.270335   -0.000181
      4          6           0        1.236952   -0.558772   -0.000045
      5          6           0        0.749510   -1.853697   -0.000131
      6          6           0       -0.010531    1.649957   -0.000190
      7          6           0       -1.289864    2.122308   -0.000132
      8          7           0       -2.417961    1.351130   -0.000051
      9          6           0       -2.260390    0.036025   -0.000050
     10          7           0       -3.332768   -0.790355   -0.000323
     11          6           0       -4.699647   -0.308198    0.000486
     12         35           0        2.985611    0.107035    0.000129
     13          1           0       -4.903788    0.303985   -0.885404
     14          1           0       -5.370665   -1.169916    0.002183
     15          1           0       -4.901851    0.306073    0.885351
     16          1           0       -3.136805   -1.780828    0.000114
     17          1           0        1.330818   -2.765408   -0.000113
     18          1           0        0.887960    2.250797   -0.000210
     19          1           0       -1.453317    3.196318   -0.000103
 ---------------------------------------------------------------------
                    Distance matrix (angstroms):
                    1          2          3          4          5
     1  N    0.000000
     2  C    1.331371   0.000000
     3  N    2.256461   1.384426   0.000000
     4  C    2.258961   2.195503   1.374762   0.000000
     5  C    1.361104   2.135569   2.209660   1.383629   0.000000
     6  C    3.558245   2.415528   1.387847   2.536671   3.585143
     7  C    4.036853   2.714386   2.339935   3.684154   4.468519
     8  N    3.681857   2.414035   2.777236   4.123847   4.505973
     9  C    2.510512   1.436771   2.412140   3.547560   3.553948
    10  N    2.922819   2.384296   3.631468   4.575584   4.218494
    11  C    4.371668   3.750409   4.874444   5.941885   5.664087
    12  Br   4.098524   4.002111   2.849950   1.871125   2.973990
    13  H    4.886420   4.137134   5.121329   6.263936   6.115479
    14  H    4.808440   4.452513   5.696098   6.635820   6.158255
    15  H    4.885700   4.135773   5.119489   6.262331   6.114455
    16  H    2.526368   2.491337   3.866131   4.541274   3.886998
    17  H    2.144265   3.170654   3.260823   2.208632   1.081266
    18  H    4.373090   3.372890   2.116875   2.831161   4.106828
    19  H    5.123094   3.800445   3.331836   4.619334   5.509546
                    6          7          8          9         10
     6  C    0.000000
     7  C    1.363748   0.000000
     8  N    2.425905   1.366499   0.000000
     9  C    2.768870   2.300978   1.324511   0.000000
    10  N    4.122182   3.557677   2.328697   1.353846   0.000000
    11  C    5.081553   4.187360   2.821252   2.463425   1.449425
    12  Br   3.370085   4.726628   5.544940   5.246482   6.381788
    13  H    5.151622   4.141310   2.838961   2.800573   2.109278
    14  H    6.056627   5.243251   3.882543   3.335882   2.072944
    15  H    5.149293   4.138749   2.836510   2.798960   2.109169
    16  H    4.641538   4.318062   3.213393   2.017191   1.009672
    17  H    4.614614   5.545966   5.567695   4.554646   5.064570
    18  H    1.080877   2.181611   3.426152   3.849328   5.202226
    19  H    2.114915   1.086377   2.082128   3.261720   4.407482
                   11         12         13         14         15
    11  C    0.000000
    12  Br   7.696467   0.000000
    13  H    1.096012   7.941384   0.000000
    14  H    1.092166   8.453281   1.782742   0.000000
    15  H    1.095993   7.939477   1.770757   1.782783   0.000000
    16  H    2.147351   6.406872   2.872772   2.315890   2.873010
    17  H    6.511865   3.315007   7.005371   6.888793   7.004585
    18  H    6.145715   2.999309   6.173977   7.132438   6.171554
    19  H    4.777059   5.408119   4.588583   5.865971   4.585840
                   16         17         18         19
    16  H    0.000000
    17  H    4.574828   0.000000
    18  H    5.696730   5.035716   0.000000
    19  H    5.254152   6.579786   2.524993   0.000000
 Stoichiometry    C7H7BrN4
 Framework group  C1[X(C7H7BrN4)]
 Deg. of freedom    51
 Full point group                 C1      NOp   1
 Largest Abelian subgroup         C1      NOp   1
 Largest concise Abelian subgroup C1      NOp   1
                         Standard orientation:                         
 ---------------------------------------------------------------------
 Center     Atomic      Atomic             Coordinates (Angstroms)
 Number     Number       Type             X           Y           Z
 ---------------------------------------------------------------------
      1          7           0        0.611590   -1.857155    0.000184
      2          6           0        0.958512   -0.571778    0.000129
      3          7           0       -0.140343    0.270335    0.000181
      4          6           0       -1.236952   -0.558772    0.000045
      5          6           0       -0.749510   -1.853697    0.000131
      6          6           0        0.010531    1.649957    0.000190
      7          6           0        1.289864    2.122308    0.000132
      8          7           0        2.417961    1.351130    0.000051
      9          6           0        2.260390    0.036025    0.000050
     10          7           0        3.332768   -0.790355    0.000323
     11          6           0        4.699647   -0.308198   -0.000486
     12         35           0       -2.985611    0.107035   -0.000129
     13          1           0        4.903788    0.303985    0.885404
     14          1           0        5.370665   -1.169916   -0.002183
     15          1           0        4.901851    0.306073   -0.885351
     16          1           0        3.136805   -1.780828   -0.000114
     17          1           0       -1.330818   -2.765408    0.000113
     18          1           0       -0.887960    2.250797    0.000210
     19          1           0        1.453317    3.196318    0.000103
 ---------------------------------------------------------------------
 Rotational constants (GHZ):      2.0153565      0.3574145      0.3041539
 General basis read from cards:  (5D, 7F)
 There are   209 symmetry adapted cartesian basis functions of A   symmetry.
 There are   196 symmetry adapted basis functions of A   symmetry.
   196 basis functions,   419 primitive gaussians,   209 cartesian basis functions
    56 alpha electrons       56 beta electrons
       nuclear repulsion energy       938.8073727193 Hartrees.
 NAtoms=   19 NActive=   19 NUniq=   19 SFac= 1.00D+00 NAtFMM=   60 NAOKFM=F Big=F
 Integral buffers will be    131072 words long.
 Raffenetti 1 integral format.
 Two-electron integral symmetry is turned on.
 One-electron integrals computed using PRISM.
 NBasis=   196 RedAO= T EigKep=  1.10D-03  NBF=   196
 NBsUse=   196 1.00D-06 EigRej= -1.00D+00 NBFU=   196
 ExpMin= 1.43D-01 ExpMax= 5.74D+05 ExpMxC= 5.74D+03 IAcc=2 IRadAn=         4 AccDes= 0.00D+00
 Harris functional with IExCor=  205 and IRadAn=       4 diagonalized for initial guess.
 HarFok:  IExCor=  205 AccDes= 0.00D+00 IRadAn=         4 IDoV= 1 UseB2=F ITyADJ=14
 ICtDFT=  3500011 ScaDFX=  1.000000  1.000000  1.000000  1.000000
 FoFCou: FMM=F IPFlag=           0 FMFlag=      100000 FMFlg1=           0
         NFxFlg=           0 DoJE=T BraDBF=F KetDBF=T FulRan=T
         wScrn=  0.000000 ICntrl=     500 IOpCl=  0 I1Cent=   200000004 NGrid=           0
         NMat0=    1 NMatS0=      1 NMatT0=    0 NMatD0=    1 NMtDS0=    0 NMtDT0=    0
 Petite list used in FoFCou.
 Keep R1 ints in memory in canonical form, NReq=191153271.
 Requested convergence on RMS density matrix=1.00D-08 within 128 cycles.
 Requested convergence on MAX density matrix=1.00D-06.
 Requested convergence on             energy=1.00D-06.
 No special actions if energy rises.
 SCF Done:  E(RHF) =  -3056.51366555     A.U. after   14 cycles
            NFock= 14  Conv=0.97D-08     -V/T= 1.9991

 **********************************************************************

            Population analysis using the SCF density.

 **********************************************************************

 Orbital symmetries:
 BldTbl:  Degeneracy threshold= 1.00D-02
       Occupied  (A) (A) (A) (A) (A) (A) (A) (A) (A) (A) (A) (A)
                 (A) (A) (A) (A) (A) (A) (A) (A) (A) (A) (A) (A)
                 (A) (A) (A) (A) (A) (A) (A) (A) (A) (A) (A) (A)
                 (A) (A) (A) (A) (A) (A) (A) (A) (A) (A) (A) (A)
                 (A) (A) (A) (A) (A) (A) (A) (A)
       Virtual   (A) (A) (A) (A) (A) (A) (A) (A) (A) (A) (A) (A)
                 (A) (A) (A) (A) (A) (A) (A) (A) (A) (A) (A) (A)
                 (A) (A) (A) (A) (A) (A) (A) (A) (A) (A) (A) (A)
                 (A) (A) (A) (A) (A) (A) (A) (A) (A) (A) (A) (A)
                 (A) (A) (A) (A) (A) (A) (A) (A) (A) (A) (A) (A)
                 (A) (A) (A) (A) (A) (A) (A) (A) (A) (A) (A) (A)
                 (A) (A) (A) (A) (A) (A) (A) (A) (A) (A) (A) (A)
                 (A) (A) (A) (A) (A) (A) (A) (A) (A) (A) (A) (A)
                 (A) (A) (A) (A) (A) (A) (A) (A) (A) (A) (A) (A)
                 (A) (A) (A) (A) (A) (A) (A) (A) (A) (A) (A) (A)
                 (A) (A) (A) (A) (A) (A) (A) (A) (A) (A) (A) (A)
                 (A) (A) (A) (A) (A) (A) (A) (A)
 The electronic state is 1-A.
 Alpha  occ. eigenvalues -- -489.86922 -64.41288 -58.57981 -58.57792 -58.57781
 Alpha  occ. eigenvalues --  -15.67202 -15.58686 -15.57271 -15.55982 -11.34127
 Alpha  occ. eigenvalues --  -11.32626 -11.31643 -11.27907 -11.27767 -11.27520
 Alpha  occ. eigenvalues --  -11.26041  -9.69054  -7.50656  -7.49729  -7.49693
 Alpha  occ. eigenvalues --   -3.24997  -3.24548  -3.24518  -3.23437  -3.23437
 Alpha  occ. eigenvalues --   -1.38641  -1.29016  -1.23408  -1.18992  -1.08615
 Alpha  occ. eigenvalues --   -1.03385  -0.99831  -0.94287  -0.88014  -0.86190
 Alpha  occ. eigenvalues --   -0.80738  -0.75503  -0.71500  -0.67218  -0.65663
 Alpha  occ. eigenvalues --   -0.65586  -0.62622  -0.61199  -0.60063  -0.58336
 Alpha  occ. eigenvalues --   -0.56238  -0.54674  -0.52195  -0.48031  -0.46701
 Alpha  occ. eigenvalues --   -0.45539  -0.43402  -0.42673  -0.40092  -0.32281
 Alpha  occ. eigenvalues --   -0.29128
 Alpha virt. eigenvalues --    0.10758   0.14110   0.16776   0.21749   0.23915
 Alpha virt. eigenvalues --    0.26169   0.27262   0.28941   0.30857   0.31901
 Alpha virt. eigenvalues --    0.32276   0.33976   0.35997   0.37145   0.38070
 Alpha virt. eigenvalues --    0.40591   0.44279   0.48379   0.52535   0.52953
 Alpha virt. eigenvalues --    0.55507   0.58214   0.62004   0.62212   0.63373
 Alpha virt. eigenvalues --    0.64448   0.64698   0.66388   0.67946   0.68188
 Alpha virt. eigenvalues --    0.72042   0.73022   0.73578   0.74950   0.76698
 Alpha virt. eigenvalues --    0.77511   0.78984   0.79150   0.81033   0.82768
 Alpha virt. eigenvalues --    0.82912   0.85314   0.85951   0.87755   0.93163
 Alpha virt. eigenvalues --    0.94580   0.95456   0.97225   0.97479   0.99216
 Alpha virt. eigenvalues --    1.02339   1.03430   1.04389   1.06006   1.07452
 Alpha virt. eigenvalues --    1.09229   1.11434   1.12387   1.13201   1.14980
 Alpha virt. eigenvalues --    1.15330   1.16490   1.17537   1.20594   1.21835
 Alpha virt. eigenvalues --    1.22526   1.24732   1.24949   1.28942   1.32792
 Alpha virt. eigenvalues --    1.37228   1.39105   1.40160   1.44980   1.45023
 Alpha virt. eigenvalues --    1.53613   1.56597   1.56893   1.56978   1.62459
 Alpha virt. eigenvalues --    1.63881   1.66342   1.70315   1.72927   1.73810
 Alpha virt. eigenvalues --    1.76184   1.77102   1.79982   1.80706   1.85336
 Alpha virt. eigenvalues --    1.91255   1.96516   1.99040   2.08365   2.12180
 Alpha virt. eigenvalues --    2.13651   2.16594   2.18055   2.21953   2.24726
 Alpha virt. eigenvalues --    2.25676   2.28793   2.32627   2.35122   2.39074
 Alpha virt. eigenvalues --    2.40118   2.43017   2.44144   2.45931   2.49823
 Alpha virt. eigenvalues --    2.50134   2.54953   2.55697   2.57601   2.58054
 Alpha virt. eigenvalues --    2.59643   2.60628   2.72570   2.72902   2.76387
 Alpha virt. eigenvalues --    2.78087   2.83971   2.85924   2.91749   2.96428
 Alpha virt. eigenvalues --    2.97225   2.97576   3.01954   3.05117   3.08093
 Alpha virt. eigenvalues --    3.11936   3.15837   3.18264   3.29605   3.35486
 Alpha virt. eigenvalues --    3.37071   3.43386   3.68980   3.84772   9.15647
          Condensed to atoms (all electrons):
               1          2          3          4          5          6
     1  N    6.861130   0.520315  -0.123722  -0.072338   0.455972   0.004726
     2  C    0.520315   4.562669   0.330805  -0.095258  -0.128391  -0.031330
     3  N   -0.123722   0.330805   7.168808   0.336691  -0.069828   0.244009
     4  C   -0.072338  -0.095258   0.336691   4.754343   0.604045  -0.037089
     5  C    0.455972  -0.128391  -0.069828   0.604045   4.803858   0.003056
     6  C    0.004726  -0.031330   0.244009  -0.037089   0.003056   4.950074
     7  C   -0.000115  -0.014458  -0.043019   0.001595  -0.000173   0.612727
     8  N    0.003407  -0.063100  -0.022401   0.000139  -0.000354  -0.061549
     9  C   -0.042731   0.450182  -0.030082   0.002498   0.002219  -0.019069
    10  N   -0.002894  -0.091973   0.003011  -0.000117   0.000128  -0.000012
    11  C   -0.000028   0.003383  -0.000061   0.000002   0.000003   0.000040
    12  Br   0.003299   0.004507  -0.059466   0.291308  -0.048694  -0.002815
    13  H   -0.000005   0.000023   0.000002   0.000000   0.000000  -0.000002
    14  H   -0.000005   0.000018   0.000000   0.000000   0.000000   0.000000
    15  H   -0.000005   0.000025   0.000002   0.000000   0.000000  -0.000002
    16  H    0.009707  -0.004286   0.000337   0.000015   0.000017  -0.000014
    17  H   -0.028352   0.004559   0.002147  -0.035902   0.391752  -0.000044
    18  H   -0.000126   0.001351  -0.035291  -0.002183   0.000019   0.381399
    19  H    0.000005  -0.000032   0.002355  -0.000064   0.000001  -0.048088
               7          8          9         10         11         12
     1  N   -0.000115   0.003407  -0.042731  -0.002894  -0.000028   0.003299
     2  C   -0.014458  -0.063100   0.450182  -0.091973   0.003383   0.004507
     3  N   -0.043019  -0.022401  -0.030082   0.003011  -0.000061  -0.059466
     4  C    0.001595   0.000139   0.002498  -0.000117   0.000002   0.291308
     5  C   -0.000173  -0.000354   0.002219   0.000128   0.000003  -0.048694
     6  C    0.612727  -0.061549  -0.019069  -0.000012   0.000040  -0.002815
     7  C    4.692633   0.411807  -0.068579   0.003120  -0.000231   0.000120
     8  N    0.411807   6.940369   0.554637  -0.084537  -0.002049  -0.000005
     9  C   -0.068579   0.554637   4.244705   0.317088  -0.037354  -0.000104
    10  N    0.003120  -0.084537   0.317088   7.283615   0.213765   0.000000
    11  C   -0.000231  -0.002049  -0.037354   0.213765   4.905033   0.000000
    12  Br   0.000120  -0.000005  -0.000104   0.000000   0.000000  34.909319
    13  H   -0.000126   0.002372  -0.001970  -0.046003   0.401446   0.000000
    14  H    0.000010   0.000386   0.003852  -0.035100   0.394441   0.000000
    15  H   -0.000126   0.002382  -0.001966  -0.045992   0.401447   0.000000
    16  H   -0.000141   0.002028  -0.030665   0.332556  -0.020007   0.000000
    17  H    0.000002   0.000001  -0.000014  -0.000001   0.000000   0.002033
    18  H   -0.018528   0.002293   0.000150   0.000009   0.000000   0.004119
    19  H    0.403579  -0.037872   0.003138  -0.000029  -0.000017  -0.000001
              13         14         15         16         17         18
     1  N   -0.000005  -0.000005  -0.000005   0.009707  -0.028352  -0.000126
     2  C    0.000023   0.000018   0.000025  -0.004286   0.004559   0.001351
     3  N    0.000002   0.000000   0.000002   0.000337   0.002147  -0.035291
     4  C    0.000000   0.000000   0.000000   0.000015  -0.035902  -0.002183
     5  C    0.000000   0.000000   0.000000   0.000017   0.391752   0.000019
     6  C   -0.000002   0.000000  -0.000002  -0.000014  -0.000044   0.381399
     7  C   -0.000126   0.000010  -0.000126  -0.000141   0.000002  -0.018528
     8  N    0.002372   0.000386   0.002382   0.002028   0.000001   0.002293
     9  C   -0.001970   0.003852  -0.001966  -0.030665  -0.000014   0.000150
    10  N   -0.046003  -0.035100  -0.045992   0.332556  -0.000001   0.000009
    11  C    0.401446   0.394441   0.401447  -0.020007   0.000000   0.000000
    12  Br   0.000000   0.000000   0.000000   0.000000   0.002033   0.004119
    13  H    0.517057  -0.027314  -0.037452   0.001671   0.000000   0.000000
    14  H   -0.027314   0.521012  -0.027273  -0.004608   0.000000   0.000000
    15  H   -0.037452  -0.027273   0.516914   0.001670   0.000000   0.000000
    16  H    0.001671  -0.004608   0.001670   0.286946  -0.000009   0.000000
    17  H    0.000000   0.000000   0.000000  -0.000009   0.429316  -0.000001
    18  H    0.000000   0.000000   0.000000   0.000000  -0.000001   0.414444
    19  H   -0.000002   0.000000  -0.000002   0.000003   0.000000   0.000698
              19
     1  N    0.000005
     2  C   -0.000032
     3  N    0.002355
     4  C   -0.000064
     5  C    0.000001
     6  C   -0.048088
     7  C    0.403579
     8  N   -0.037872
     9  C    0.003138
    10  N   -0.000029
    11  C   -0.000017
    12  Br  -0.000001
    13  H   -0.000002
    14  H    0.000000
    15  H   -0.000002
    16  H    0.000003
    17  H    0.000000
    18  H    0.000698
    19  H    0.459604
 Mulliken charges:
               1
     1  N   -0.588240
     2  C    0.550992
     3  N   -0.704297
     4  C    0.252317
     5  C   -0.013631
     6  C    0.003983
     7  C    0.019903
     8  N   -0.647955
     9  C    0.654065
    10  N   -0.846633
    11  C   -0.259811
    12  Br  -0.103619
    13  H    0.190302
    14  H    0.174581
    15  H    0.190377
    16  H    0.424780
    17  H    0.234514
    18  H    0.251648
    19  H    0.216725
 Sum of Mulliken charges =   0.00000
 Mulliken charges with hydrogens summed into heavy atoms:
               1
     1  N   -0.588240
     2  C    0.550992
     3  N   -0.704297
     4  C    0.252317
     5  C    0.220883
     6  C    0.255631
     7  C    0.236627
     8  N   -0.647955
     9  C    0.654065
    10  N   -0.421853
    11  C    0.295448
    12  Br  -0.103619
 DipInt: DoE/N= T F RetVal/Mat= T F Init=T NMatP=  1 IDeriv=0 Min/MaxMlt=  0  4
 Entering OneElI...
 OneElI was handed   235815223 working-precision words.
 Multipole integrals L=0 to 4 MinM= 0 MaxM= 0.
 Requested accuracy = 0.1000D-12
 ShPair: Thresh= 1.00D-13 NBox=     0 BxSize= 0.00D+00 RnKept= 1.60D+01
         NSMCal=                 2485 NSMKep=                2196
 PrsmSu:  NPrtUS=   1 ThrOK=F IAlg=1 NPAlg=1 LenDen=           0.
 Prism:   IPart=     0 DynPar=F LinDyn=F Incr=          21.
 PRISM was handed   235606720 working-precision words and  2196 shell-pairs
 IPart=  0 NShTot=        2196 NBatch=         121 AvBLen=        18.1
 PrSmSu:  NxtVal=             22.
 Electronic moments (au):
       -112.00000000          0.12214172          0.07394196         -0.00082465
      -2611.82357082       -552.18937603        -69.01943839         -3.66455225
         -0.00609582          0.00178570      -3748.38370551       -174.57663234
         -0.00841774       -721.32563178        260.04454825          0.74836832
        -92.87562223         -2.42087783         -0.10635940         -0.04784158
    -123079.89543203      -8798.34640659       -264.55272855       5709.79316199
          3.55317962      -1852.43517005         -0.05667459          0.00956484
          0.01551389      -5726.01393881      -1884.06094632       -405.82888600
         -0.37780917          0.10866740        -40.00556747
 Electronic spatial extent (au):  <R**2>=           3233.0324
 DipInt: DoE/N= F T RetVal/Mat= T F Init=T NMatP=  1 IDeriv=0 Min/MaxMlt=  0  4
 Nuclear    moments (au):
        112.00000000          0.00000000          0.00000000          0.00000000
       2557.14031657        493.70849653          5.59869851          0.00000000
          0.00007418         -0.00000952       3685.01457940        193.10649305
          0.00084500        669.35686013       -294.51851843         -0.79530420
         51.87180559          3.22714689          0.09788490          0.05938072
     116030.87837673       6990.46542734         15.67254041      -6088.56541661
         -3.82934611       1841.53488170          0.07790519          0.02497279
         -0.01799313       4131.96318175        480.59184634          1.86036920
          0.46258269         -0.15929401         29.89942370
 Total      moments (au):
          0.00000000          0.12214172          0.07394196         -0.00082465
        -54.68325425        -58.48087950        -63.42073988         -3.66455225
         -0.00602164          0.00177618        -63.36912610         18.52986071
         -0.00757274        -51.96877165        -34.47397018         -0.04693588
        -41.00381664          0.80626906         -0.00847450          0.01153915
      -7049.01705529      -1807.88097925       -248.88018814       -378.77225461
         -0.27616649        -10.90028835          0.02123060          0.03453763
         -0.00247924      -1594.05075706      -1403.46909997       -403.96851680
          0.08477352         -0.05062661        -10.10614376
 Traceless Quadrup. (au):
          4.17837029          0.38074504         -4.55911533         -3.66455225
         -0.00602164          0.00177618
 Charge=              0.0000 electrons
 Dipole moment (field-independent basis, Debye):
    X=              0.3105    Y=              0.1879    Z=             -0.0021  Tot=              0.3629
 Quadrupole moment (field-independent basis, Debye-Ang):
   XX=            -73.5508   YY=            -78.6588   ZZ=            -85.3031
   XY=             -4.9289   XZ=             -0.0081   YZ=              0.0024
 Traceless Quadrupole moment (field-independent basis, Debye-Ang):
   XX=              5.6201   YY=              0.5121   ZZ=             -6.1322
   XY=             -4.9289   XZ=             -0.0081   YZ=              0.0024
 Octapole moment (field-independent basis, Debye-Ang**2):
  XXX=            -45.1037  YYY=             13.1888  ZZZ=             -0.0054  XYY=            -36.9894
  XXY=            -24.5372  XXZ=             -0.0334  XZZ=            -29.1849  YZZ=              0.5739
  YYZ=             -0.0060  XYZ=              0.0082
 Hexadecapole moment (field-independent basis, Debye-Ang**3):
 XXXX=          -2654.9977 YYYY=           -680.9346 ZZZZ=            -93.7402 XXXY=           -142.6638
 XXXZ=             -0.1040 YYYX=             -4.1056 YYYZ=              0.0080 ZZZX=              0.0130
 ZZZY=             -0.0009 XXYY=           -600.3959 XXZZ=           -528.6137 YYZZ=           -152.1539
 XXYZ=              0.0319 YYXZ=             -0.0191 ZZXY=             -3.8065
 N-N= 9.388073727193D+02 E-N=-9.165191213010D+03  KE= 3.059316509417D+03
 Entering OneElI...
 OneElI was handed   235841762 working-precision words.
 Calculate electrostatic properties
    NBasis =   196  MinDer = 0  MaxDer = 0
    NGrid  =    19  NMatD  =   1
 Requested accuracy = 0.1000D-12
 ShPair: Thresh= 1.00D-13 NBox=     0 BxSize= 0.00D+00 RnKept= 1.60D+01
         NSMCal=                 2485 NSMKep=                1968
 PrsmSu:  NPrtUS=   1 ThrOK=F IAlg=1 NPAlg=1 LenDen=           0.
 Prism:   IPart=     0 DynPar=F LinDyn=F Incr=         373.
 PRISM was handed   235652992 working-precision words and  1968 shell-pairs
 IPart=  0 NShTot=       37392 NBatch=        1970 AvBLen=        19.0
 PrSmSu:  NxtVal=            374.
 --------------------------------------------------------
       Center         ----      EFG at Nuclei      ----
                      3XX-RR        3YY-RR        3ZZ-RR
 --------------------------------------------------------
     1   Atom        0.048842      0.365605     -0.414448
     2   Atom        0.029129      0.052779     -0.081908
     3   Atom       -0.196363     -0.135493      0.331856
     4   Atom       -0.320836      0.133430      0.187406
     5   Atom        0.045114      0.165781     -0.210895
     6   Atom        0.249811     -0.238704     -0.011107
     7   Atom        0.130643      0.181516     -0.312159
     8   Atom        0.630849     -0.313850     -0.316999
     9   Atom        0.159703      0.255673     -0.415376
    10   Atom       -0.593971     -0.477430      1.071402
    11   Atom       -0.266752      0.109854      0.156898
    12   Atom       -6.063622      2.233458      3.830163
    13   Atom        0.119214      0.018430     -0.137644
    14   Atom       -0.029807     -0.131731      0.161538
    15   Atom        0.119480      0.017509     -0.136989
    16   Atom        0.136158     -0.376726      0.240567
    17   Atom        0.011087     -0.180446      0.169359
    18   Atom       -0.169993     -0.008932      0.178925
    19   Atom        0.131334     -0.295404      0.164070
 --------------------------------------------------------
                        XY            XZ            YZ
 --------------------------------------------------------
     1   Atom       -0.628949      0.000027      0.000011
     2   Atom        0.186302      0.000039     -0.000009
     3   Atom       -0.044790     -0.000038     -0.000070
     4   Atom       -0.043789     -0.000066     -0.000029
     5   Atom        0.056235     -0.000012      0.000009
     6   Atom       -0.038074     -0.000020     -0.000003
     7   Atom        0.079774     -0.000016     -0.000001
     8   Atom        0.530264      0.000069     -0.000103
     9   Atom        0.041337     -0.000045      0.000013
    10   Atom        0.042103      0.000192     -0.000028
    11   Atom       -0.115034      0.000330      0.000001
    12   Atom        3.612331     -0.001119      0.000390
    13   Atom       -0.051044     -0.063706     -0.198701
    14   Atom        0.209371      0.000442     -0.000556
    15   Atom       -0.050787      0.063036      0.199180
    16   Atom       -0.092477     -0.000036     -0.000271
    17   Atom       -0.209500     -0.000007     -0.000005
    18   Atom        0.208038      0.000008     -0.000006
    19   Atom       -0.062720      0.000004      0.000010
 --------------------------------------------------------


 ---------------------------------------------------------------------------------
              Nuclear Quadrupole Coupling Constant in Principal Axis System
 ---------------------------------------------------------------------------------

       Atom             a.u.   MegaHertz   Gauss  10(-4) cm-1        Axes

              Baa    -0.4414     2.120     0.756     0.707  0.7887  0.6147 -0.0010
     1 N(14)  Bbb    -0.4144     1.990     0.710     0.664  0.0008  0.0006  1.0000
              Bcc     0.8558    -4.110    -1.467    -1.371 -0.6147  0.7887  0.0000
 
              Baa    -0.2201     1.057     0.377     0.353  0.8837  0.4680  0.0001
     3 N(14)  Bbb    -0.1118     0.537     0.192     0.179 -0.4680  0.8837  0.0001
              Bcc     0.3319    -1.594    -0.569    -0.532 -0.0001 -0.0001  1.0000
 
              Baa    -0.5516     2.649     0.945     0.884 -0.4092  0.9125  0.0005
     8 N(14)  Bbb    -0.3170     1.522     0.543     0.508  0.0002 -0.0005  1.0000
              Bcc     0.8686    -4.172    -1.489    -1.392  0.9125  0.4092  0.0000
 
              Baa    -0.6076     2.918     1.041     0.973  0.9515 -0.3078 -0.0001
    10 N(14)  Bbb    -0.4638     2.228     0.795     0.743  0.3078  0.9515  0.0000
              Bcc     1.0714    -5.146    -1.836    -1.716  0.0001  0.0000  1.0000
 
              Baa    -7.4159   545.397   194.611   181.925  0.9365 -0.3506  0.0001
    12 Br(79) Bbb     3.5858  -263.711   -94.099   -87.965  0.3506  0.9365  0.0001
              Bcc     3.8302  -281.685  -100.512   -93.960 -0.0001 -0.0001  1.0000
 

 ---------------------------------------------------------------------------------

 No NMR shielding tensors so no spin-rotation constants.
 Leave Link  601 at Thu Jan 16 22:37:16 2014, MaxMem=   235929600 cpu:         0.3
 FitSet:  NAtFit=    19 NAtPot=    19 NAtFrz=     0 MDM=    23 TotChg=   0.00000
 Merz-Kollman atomic radii used.
 Atom Element Radius
    1     7    1.50
    2     6    1.50
    3     7    1.50
    4     6    1.50
    5     6    1.50
    6     6    1.50
    7     6    1.50
    8     7    1.50
    9     6    1.50
   10     7    1.50
   11     6    1.50
   12    35    2.30
   13     1    1.20
   14     1    1.20
   15     1    1.20
   16     1    1.20
   17     1    1.20
   18     1    1.20
   19     1    1.20
 Generate VDW surfaces: Layer= 5 Dens= 2 Start= 1.400 Inc= 0.179

 **********************************************************************

            Electrostatic Properties Using The SCF Density

 **********************************************************************

       Atomic Center    1 is at   0.611590 -1.857155  0.000184
       Atomic Center    2 is at   0.958512 -0.571778  0.000129
       Atomic Center    3 is at  -0.140343  0.270335  0.000181
       Atomic Center    4 is at  -1.236952 -0.558772  0.000045
       Atomic Center    5 is at  -0.749510 -1.853697  0.000131
       Atomic Center    6 is at   0.010531  1.649957  0.000190
       Atomic Center    7 is at   1.289864  2.122308  0.000132
       Atomic Center    8 is at   2.417961  1.351130  0.000051
       Atomic Center    9 is at   2.260390  0.036025  0.000050
       Atomic Center   10 is at   3.332768 -0.790355  0.000323
       Atomic Center   11 is at   4.699647 -0.308198 -0.000486
       Atomic Center   12 is at  -2.985611  0.107035 -0.000129
       Atomic Center   13 is at   4.903788  0.303985  0.885404
       Atomic Center   14 is at   5.370665 -1.169916 -0.002183
       Atomic Center   15 is at   4.901851  0.306073 -0.885351
       Atomic Center   16 is at   3.136805 -1.780828 -0.000114
       Atomic Center   17 is at  -1.330818 -2.765408  0.000113
       Atomic Center   18 is at  -0.887960  2.250797  0.000210
       Atomic Center   19 is at   1.453317  3.196318  0.000103
      ESP Fit Center   20 is at   0.611590 -1.857155  2.100184
      ESP Fit Center   21 is at   1.329832 -1.857155  1.973539
      ESP Fit Center   22 is at   0.252469 -1.235139  1.973539
      ESP Fit Center   23 is at   0.252469 -2.479171  1.973539
      ESP Fit Center   24 is at   0.970711 -2.479171  1.973539
      ESP Fit Center   25 is at   1.961444 -1.857155  1.608877
      ESP Fit Center   26 is at   0.419486 -3.193269  1.608877
      ESP Fit Center   27 is at   1.172340 -3.085025  1.608877
      ESP Fit Center   28 is at   1.747160 -2.586941  1.608877
      ESP Fit Center   29 is at   0.421489 -3.665846  1.050184
      ESP Fit Center   30 is at   1.173585 -3.586797  1.050184
      ESP Fit Center   31 is at   1.828507 -3.208678  1.050184
      ESP Fit Center   32 is at   0.045629 -3.846303  0.364845
      ESP Fit Center   33 is at   0.802410 -3.916429  0.364845
      ESP Fit Center   34 is at   1.533420 -3.708439  0.364845
      ESP Fit Center   35 is at   2.139932 -3.250422  0.364845
      ESP Fit Center   36 is at   0.045629 -3.846303 -0.364477
      ESP Fit Center   37 is at   0.802410 -3.916429 -0.364477
      ESP Fit Center   38 is at   1.533420 -3.708439 -0.364477
      ESP Fit Center   39 is at   2.139932 -3.250422 -0.364477
      ESP Fit Center   40 is at   0.421489 -3.665846 -1.049816
      ESP Fit Center   41 is at   1.173585 -3.586797 -1.049816
      ESP Fit Center   42 is at   1.828507 -3.208678 -1.049816
      ESP Fit Center   43 is at   1.961444 -1.857155 -1.608509
      ESP Fit Center   44 is at   0.419486 -3.193269 -1.608509
      ESP Fit Center   45 is at   1.172340 -3.085025 -1.608509
      ESP Fit Center   46 is at   1.747160 -2.586941 -1.608509
      ESP Fit Center   47 is at   1.329832 -1.857155 -1.973170
      ESP Fit Center   48 is at   0.252469 -1.235139 -1.973170
      ESP Fit Center   49 is at   0.252469 -2.479171 -1.973170
      ESP Fit Center   50 is at   0.970711 -2.479171 -1.973170
      ESP Fit Center   51 is at   0.611590 -1.857155 -2.099816
      ESP Fit Center   52 is at   0.958512 -0.571778  2.100129
      ESP Fit Center   53 is at   1.676754 -0.571778  1.973484
      ESP Fit Center   54 is at   1.317633  0.050238  1.973484
      ESP Fit Center   55 is at   0.599391  0.050238  1.973484
      ESP Fit Center   56 is at   0.240270 -0.571778  1.973484
      ESP Fit Center   57 is at   1.317633 -1.193794  1.973484
      ESP Fit Center   58 is at   1.676754 -0.571778 -1.973225
      ESP Fit Center   59 is at   1.317633  0.050238 -1.973225
      ESP Fit Center   60 is at   0.599391  0.050238 -1.973225
      ESP Fit Center   61 is at   0.240270 -0.571778 -1.973225
      ESP Fit Center   62 is at   1.317633 -1.193794 -1.973225
      ESP Fit Center   63 is at   0.958512 -0.571778 -2.099871
      ESP Fit Center   64 is at  -0.140343  0.270335  2.100181
      ESP Fit Center   65 is at   0.577899  0.270335  1.973536
      ESP Fit Center   66 is at   0.218778  0.892351  1.973536
      ESP Fit Center   67 is at  -0.499464  0.892351  1.973536
      ESP Fit Center   68 is at   0.218778 -0.351681  1.973536
      ESP Fit Center   69 is at   0.577899  0.270335 -1.973173
      ESP Fit Center   70 is at   0.218778  0.892351 -1.973173
      ESP Fit Center   71 is at  -0.499464  0.892351 -1.973173
      ESP Fit Center   72 is at   0.218778 -0.351681 -1.973173
      ESP Fit Center   73 is at  -0.140343  0.270335 -2.099819
      ESP Fit Center   74 is at  -0.518710 -0.558772  1.973400
      ESP Fit Center   75 is at  -0.518710 -0.558772 -1.973309
      ESP Fit Center   76 is at  -0.749510 -1.853697  2.100131
      ESP Fit Center   77 is at  -0.390389 -1.231681  1.973486
      ESP Fit Center   78 is at  -1.108631 -2.475713  1.973486
      ESP Fit Center   79 is at  -0.390389 -2.475713  1.973486
      ESP Fit Center   80 is at  -0.941614 -3.189811  1.608824
      ESP Fit Center   81 is at  -0.188760 -3.081567  1.608824
      ESP Fit Center   82 is at  -0.187515 -3.583339  1.050131
      ESP Fit Center   83 is at  -0.187515 -3.583339 -1.049869
      ESP Fit Center   84 is at  -0.941614 -3.189811 -1.608562
      ESP Fit Center   85 is at  -0.188760 -3.081567 -1.608562
      ESP Fit Center   86 is at  -0.390389 -1.231681 -1.973223
      ESP Fit Center   87 is at  -1.108631 -2.475713 -1.973223
      ESP Fit Center   88 is at  -0.390389 -2.475713 -1.973223
      ESP Fit Center   89 is at  -0.749510 -1.853697 -2.099869
      ESP Fit Center   90 is at   0.010531  1.649957  2.100190
      ESP Fit Center   91 is at   0.728773  1.649957  1.973545
      ESP Fit Center   92 is at   0.369652  2.271973  1.973545
      ESP Fit Center   93 is at  -0.348590  2.271973  1.973545
      ESP Fit Center   94 is at  -0.707711  1.649957  1.973545
      ESP Fit Center   95 is at  -0.348590  1.027941  1.973545
      ESP Fit Center   96 is at   0.369652  1.027941  1.973545
      ESP Fit Center   97 is at  -0.181573  2.986071  1.608883
      ESP Fit Center   98 is at  -0.179570  3.458648  1.050190
      ESP Fit Center   99 is at  -0.179570  3.458648 -1.049810
      ESP Fit Center  100 is at  -0.181573  2.986071 -1.608503
      ESP Fit Center  101 is at   0.728773  1.649957 -1.973164
      ESP Fit Center  102 is at   0.369652  2.271973 -1.973164
      ESP Fit Center  103 is at  -0.348590  2.271973 -1.973164
      ESP Fit Center  104 is at  -0.707711  1.649957 -1.973164
      ESP Fit Center  105 is at  -0.348590  1.027941 -1.973164
      ESP Fit Center  106 is at   0.369652  1.027941 -1.973164
      ESP Fit Center  107 is at   0.010531  1.649957 -2.099810
      ESP Fit Center  108 is at   1.289864  2.122308  2.100132
      ESP Fit Center  109 is at   2.008106  2.122308  1.973487
      ESP Fit Center  110 is at   1.648985  2.744324  1.973487
      ESP Fit Center  111 is at   0.930743  2.744324  1.973487
      ESP Fit Center  112 is at   0.571622  2.122308  1.973487
      ESP Fit Center  113 is at   0.930743  1.500292  1.973487
      ESP Fit Center  114 is at   1.648985  1.500292  1.973487
      ESP Fit Center  115 is at   2.425434  2.852094  1.608825
      ESP Fit Center  116 is at   0.405898  3.142460  1.608825
      ESP Fit Center  117 is at   2.425434  2.852094 -1.608561
      ESP Fit Center  118 is at   0.405898  3.142460 -1.608561
      ESP Fit Center  119 is at   2.008106  2.122308 -1.973222
      ESP Fit Center  120 is at   1.648985  2.744324 -1.973222
      ESP Fit Center  121 is at   0.930743  2.744324 -1.973222
      ESP Fit Center  122 is at   0.571622  2.122308 -1.973222
      ESP Fit Center  123 is at   0.930743  1.500292 -1.973222
      ESP Fit Center  124 is at   1.648985  1.500292 -1.973222
      ESP Fit Center  125 is at   1.289864  2.122308 -2.099868
      ESP Fit Center  126 is at   2.417961  1.351130  2.100051
      ESP Fit Center  127 is at   3.136203  1.351130  1.973406
      ESP Fit Center  128 is at   2.777082  1.973146  1.973406
      ESP Fit Center  129 is at   2.058840  1.973146  1.973406
      ESP Fit Center  130 is at   1.699719  1.351130  1.973406
      ESP Fit Center  131 is at   2.058840  0.729114  1.973406
      ESP Fit Center  132 is at   2.777082  0.729114  1.973406
      ESP Fit Center  133 is at   3.767815  1.351130  1.608744
      ESP Fit Center  134 is at   3.553531  2.080916  1.608744
      ESP Fit Center  135 is at   2.978711  2.579000  1.608744
      ESP Fit Center  136 is at   4.079384  2.090843  1.050051
      ESP Fit Center  137 is at   3.634878  2.702653  1.050051
      ESP Fit Center  138 is at   2.979956  3.080772  1.050051
      ESP Fit Center  139 is at   4.346403  2.098213  0.364712
      ESP Fit Center  140 is at   3.946303  2.744397  0.364712
      ESP Fit Center  141 is at   3.339791  3.202414  0.364712
      ESP Fit Center  142 is at   4.346403  2.098213 -0.364610
      ESP Fit Center  143 is at   3.946303  2.744397 -0.364610
      ESP Fit Center  144 is at   3.339791  3.202414 -0.364610
      ESP Fit Center  145 is at   4.079384  2.090843 -1.049949
      ESP Fit Center  146 is at   3.634878  2.702653 -1.049949
      ESP Fit Center  147 is at   2.979956  3.080772 -1.049949
      ESP Fit Center  148 is at   3.767815  1.351130 -1.608642
      ESP Fit Center  149 is at   3.553531  2.080916 -1.608642
      ESP Fit Center  150 is at   2.978711  2.579000 -1.608642
      ESP Fit Center  151 is at   3.136203  1.351130 -1.973303
      ESP Fit Center  152 is at   2.777082  1.973146 -1.973303
      ESP Fit Center  153 is at   2.058840  1.973146 -1.973303
      ESP Fit Center  154 is at   1.699719  1.351130 -1.973303
      ESP Fit Center  155 is at   2.058840  0.729114 -1.973303
      ESP Fit Center  156 is at   2.777082  0.729114 -1.973303
      ESP Fit Center  157 is at   2.417961  1.351130 -2.099949
      ESP Fit Center  158 is at   2.260390  0.036025  2.100050
      ESP Fit Center  159 is at   2.978632  0.036025  1.973405
      ESP Fit Center  160 is at   2.619511  0.658041  1.973405
      ESP Fit Center  161 is at   1.901269  0.658041  1.973405
      ESP Fit Center  162 is at   1.542148  0.036025  1.973405
      ESP Fit Center  163 is at   1.901269 -0.585991  1.973405
      ESP Fit Center  164 is at   2.619511 -0.585991  1.973405
      ESP Fit Center  165 is at   2.978632  0.036025 -1.973304
      ESP Fit Center  166 is at   2.619511  0.658041 -1.973304
      ESP Fit Center  167 is at   1.901269  0.658041 -1.973304
      ESP Fit Center  168 is at   1.542148  0.036025 -1.973304
      ESP Fit Center  169 is at   1.901269 -0.585991 -1.973304
      ESP Fit Center  170 is at   2.619511 -0.585991 -1.973304
      ESP Fit Center  171 is at   2.260390  0.036025 -2.099950
      ESP Fit Center  172 is at   3.332768 -0.790355  2.100323
      ESP Fit Center  173 is at   4.051010 -0.790355  1.973678
      ESP Fit Center  174 is at   3.691889 -0.168339  1.973678
      ESP Fit Center  175 is at   2.973647 -0.168339  1.973678
      ESP Fit Center  176 is at   2.614526 -0.790355  1.973678
      ESP Fit Center  177 is at   2.973647 -1.412371  1.973678
      ESP Fit Center  178 is at   3.691889 -1.412371  1.973678
      ESP Fit Center  179 is at   2.448802 -1.810507  1.609016
      ESP Fit Center  180 is at   3.893518 -2.018225  1.609016
      ESP Fit Center  181 is at   2.448802 -1.810507 -1.608370
      ESP Fit Center  182 is at   3.893518 -2.018225 -1.608370
      ESP Fit Center  183 is at   4.051010 -0.790355 -1.973031
      ESP Fit Center  184 is at   3.691889 -0.168339 -1.973031
      ESP Fit Center  185 is at   2.973647 -0.168339 -1.973031
      ESP Fit Center  186 is at   2.614526 -0.790355 -1.973031
      ESP Fit Center  187 is at   2.973647 -1.412371 -1.973031
      ESP Fit Center  188 is at   3.691889 -1.412371 -1.973031
      ESP Fit Center  189 is at   3.332768 -0.790355 -2.099677
      ESP Fit Center  190 is at   4.340526 -0.930214  1.972869
      ESP Fit Center  191 is at   4.507543 -1.644312  1.608207
      ESP Fit Center  192 is at   5.835217 -1.037984  1.608207
      ESP Fit Center  193 is at   6.518300 -0.308198  1.049514
      ESP Fit Center  194 is at   6.767743 -0.308198  0.364175
      ESP Fit Center  195 is at   6.628089  0.438885  0.364175
      ESP Fit Center  196 is at   6.767743 -0.308198 -0.365147
      ESP Fit Center  197 is at   6.628089  0.438885 -0.365147
      ESP Fit Center  198 is at   6.518300 -0.308198 -1.050486
      ESP Fit Center  199 is at   4.507543 -1.644312 -1.609179
      ESP Fit Center  200 is at   4.340526 -0.930214 -1.973840
      ESP Fit Center  201 is at  -2.985611  0.107035  3.219871
      ESP Fit Center  202 is at  -2.269093  0.107035  3.139139
      ESP Fit Center  203 is at  -2.627352  0.727557  3.139139
      ESP Fit Center  204 is at  -3.343870  0.727557  3.139139
      ESP Fit Center  205 is at  -3.702128  0.107035  3.139139
      ESP Fit Center  206 is at  -3.343870 -0.513487  3.139139
      ESP Fit Center  207 is at  -2.627352 -0.513487  3.139139
      ESP Fit Center  208 is at  -1.588505  0.107035  2.900991
      ESP Fit Center  209 is at  -1.775682  0.805588  2.900991
      ESP Fit Center  210 is at  -2.287058  1.316964  2.900991
      ESP Fit Center  211 is at  -2.985611  1.504141  2.900991
      ESP Fit Center  212 is at  -3.684164  1.316964  2.900991
      ESP Fit Center  213 is at  -4.195540  0.805588  2.900991
      ESP Fit Center  214 is at  -4.382717  0.107035  2.900991
      ESP Fit Center  215 is at  -4.195540 -0.591518  2.900991
      ESP Fit Center  216 is at  -3.684164 -1.102894  2.900991
      ESP Fit Center  217 is at  -2.985611 -1.290071  2.900991
      ESP Fit Center  218 is at  -2.287058 -1.102894  2.900991
      ESP Fit Center  219 is at  -1.775682 -0.591518  2.900991
      ESP Fit Center  220 is at  -0.977974  0.107035  2.517368
      ESP Fit Center  221 is at  -1.113545  0.832277  2.517368
      ESP Fit Center  222 is at  -1.501949  1.459571  2.517368
      ESP Fit Center  223 is at  -2.090730  1.904198  2.517368
      ESP Fit Center  224 is at  -2.800369  2.106108  2.517368
      ESP Fit Center  225 is at  -3.535027  2.038032  2.517368
      ESP Fit Center  226 is at  -4.195483  1.709164  2.517368
      ESP Fit Center  227 is at  -4.692538  1.163920  2.517368
      ESP Fit Center  228 is at  -4.959064  0.475937  2.517368
      ESP Fit Center  229 is at  -4.959064 -0.261867  2.517368
      ESP Fit Center  230 is at  -4.692538 -0.949850  2.517368
      ESP Fit Center  231 is at  -4.195483 -1.495094  2.517368
      ESP Fit Center  232 is at  -3.535027 -1.823962  2.517368
      ESP Fit Center  233 is at  -2.800369 -1.892038  2.517368
      ESP Fit Center  234 is at  -2.090730 -1.690128  2.517368
      ESP Fit Center  235 is at  -1.501949 -1.245501  2.517368
      ESP Fit Center  236 is at  -1.113545 -0.618207  2.517368
      ESP Fit Center  237 is at  -0.579959  0.849080  2.007508
      ESP Fit Center  238 is at  -0.905557  1.525192  2.007508
      ESP Fit Center  239 is at  -1.415977  2.075294  2.007508
      ESP Fit Center  240 is at  -2.065866  2.450507  2.007508
      ESP Fit Center  241 is at  -2.797478  2.617493  2.007508
      ESP Fit Center  242 is at  -3.545807  2.561413  2.007508
      ESP Fit Center  243 is at  -4.244360  2.287252  2.007508
      ESP Fit Center  244 is at  -4.831067  1.819368  2.007508
      ESP Fit Center  245 is at  -5.253798  1.199336  2.007508
      ESP Fit Center  246 is at  -5.474990  0.482248  2.007508
      ESP Fit Center  247 is at  -5.474990 -0.268179  2.007508
      ESP Fit Center  248 is at  -5.253798 -0.985266  2.007508
      ESP Fit Center  249 is at  -4.831067 -1.605298  2.007508
      ESP Fit Center  250 is at  -4.244360 -2.073182  2.007508
      ESP Fit Center  251 is at  -3.545807 -2.347343  2.007508
      ESP Fit Center  252 is at  -2.797478 -2.403423  2.007508
      ESP Fit Center  253 is at  -2.065866 -2.236437  2.007508
      ESP Fit Center  254 is at  -1.415977 -1.861224  2.007508
      ESP Fit Center  255 is at  -0.579959 -0.635010  2.007508
      ESP Fit Center  256 is at  -2.089116  2.866164  1.396977
      ESP Fit Center  257 is at  -2.803448  3.002430  1.396977
      ESP Fit Center  258 is at  -3.529227  2.956768  1.396977
      ESP Fit Center  259 is at  -4.220848  2.732047  1.396977
      ESP Fit Center  260 is at  -4.834854  2.342386  1.396977
      ESP Fit Center  261 is at  -5.332666  1.812270  1.396977
      ESP Fit Center  262 is at  -5.683004  1.175008  1.396977
      ESP Fit Center  263 is at  -5.863854  0.470642  1.396977
      ESP Fit Center  264 is at  -5.863854 -0.256572  1.396977
      ESP Fit Center  265 is at  -5.683004 -0.960938  1.396977
      ESP Fit Center  266 is at  -5.332666 -1.598200  1.396977
      ESP Fit Center  267 is at  -4.834854 -2.128316  1.396977
      ESP Fit Center  268 is at  -4.220848 -2.517977  1.396977
      ESP Fit Center  269 is at  -3.529227 -2.742698  1.396977
      ESP Fit Center  270 is at  -2.803448 -2.788360  1.396977
      ESP Fit Center  271 is at  -2.440483  3.198610  0.716389
      ESP Fit Center  272 is at  -3.168143  3.240992  0.716389
      ESP Fit Center  273 is at  -3.885963  3.114421  0.716389
      ESP Fit Center  274 is at  -4.555245  2.825721  0.716389
      ESP Fit Center  275 is at  -5.139907  2.390456  0.716389
      ESP Fit Center  276 is at  -5.608431  1.832091  0.716389
      ESP Fit Center  277 is at  -5.935558  1.180728  0.716389
      ESP Fit Center  278 is at  -6.103652  0.471482  0.716389
      ESP Fit Center  279 is at  -6.103652 -0.257412  0.716389
      ESP Fit Center  280 is at  -5.935558 -0.966658  0.716389
      ESP Fit Center  281 is at  -5.608431 -1.618021  0.716389
      ESP Fit Center  282 is at  -5.139907 -2.176386  0.716389
      ESP Fit Center  283 is at  -4.555245 -2.611651  0.716389
      ESP Fit Center  284 is at  -3.885963 -2.900351  0.716389
      ESP Fit Center  285 is at  -3.168143 -3.026922  0.716389
      ESP Fit Center  286 is at  -2.269093  3.246303 -0.000129
      ESP Fit Center  287 is at  -2.985611  3.327035 -0.000129
      ESP Fit Center  288 is at  -3.702128  3.246303 -0.000129
      ESP Fit Center  289 is at  -4.382717  3.008155 -0.000129
      ESP Fit Center  290 is at  -4.993248  2.624532 -0.000129
      ESP Fit Center  291 is at  -5.503108  2.114672 -0.000129
      ESP Fit Center  292 is at  -5.886731  1.504141 -0.000129
      ESP Fit Center  293 is at  -6.124879  0.823552 -0.000129
      ESP Fit Center  294 is at  -6.205611  0.107035 -0.000129
      ESP Fit Center  295 is at  -6.124879 -0.609482 -0.000129
      ESP Fit Center  296 is at  -5.886731 -1.290071 -0.000129
      ESP Fit Center  297 is at  -5.503108 -1.900602 -0.000129
      ESP Fit Center  298 is at  -4.993248 -2.410462 -0.000129
      ESP Fit Center  299 is at  -4.382717 -2.794085 -0.000129
      ESP Fit Center  300 is at  -3.702128 -3.032233 -0.000129
      ESP Fit Center  301 is at  -2.985611 -3.112965 -0.000129
      ESP Fit Center  302 is at  -2.440483  3.198610 -0.716646
      ESP Fit Center  303 is at  -3.168143  3.240992 -0.716646
      ESP Fit Center  304 is at  -3.885963  3.114421 -0.716646
      ESP Fit Center  305 is at  -4.555245  2.825721 -0.716646
      ESP Fit Center  306 is at  -5.139907  2.390456 -0.716646
      ESP Fit Center  307 is at  -5.608431  1.832091 -0.716646
      ESP Fit Center  308 is at  -5.935558  1.180728 -0.716646
      ESP Fit Center  309 is at  -6.103652  0.471482 -0.716646
      ESP Fit Center  310 is at  -6.103652 -0.257412 -0.716646
      ESP Fit Center  311 is at  -5.935558 -0.966658 -0.716646
      ESP Fit Center  312 is at  -5.608431 -1.618021 -0.716646
      ESP Fit Center  313 is at  -5.139907 -2.176386 -0.716646
      ESP Fit Center  314 is at  -4.555245 -2.611651 -0.716646
      ESP Fit Center  315 is at  -3.885963 -2.900351 -0.716646
      ESP Fit Center  316 is at  -3.168143 -3.026922 -0.716646
      ESP Fit Center  317 is at  -2.089116  2.866164 -1.397235
      ESP Fit Center  318 is at  -2.803448  3.002430 -1.397235
      ESP Fit Center  319 is at  -3.529227  2.956768 -1.397235
      ESP Fit Center  320 is at  -4.220848  2.732047 -1.397235
      ESP Fit Center  321 is at  -4.834854  2.342386 -1.397235
      ESP Fit Center  322 is at  -5.332666  1.812270 -1.397235
      ESP Fit Center  323 is at  -5.683004  1.175008 -1.397235
      ESP Fit Center  324 is at  -5.863854  0.470642 -1.397235
      ESP Fit Center  325 is at  -5.863854 -0.256572 -1.397235
      ESP Fit Center  326 is at  -5.683004 -0.960938 -1.397235
      ESP Fit Center  327 is at  -5.332666 -1.598200 -1.397235
      ESP Fit Center  328 is at  -4.834854 -2.128316 -1.397235
      ESP Fit Center  329 is at  -4.220848 -2.517977 -1.397235
      ESP Fit Center  330 is at  -3.529227 -2.742698 -1.397235
      ESP Fit Center  331 is at  -2.803448 -2.788360 -1.397235
      ESP Fit Center  332 is at  -0.579959  0.849080 -2.007766
      ESP Fit Center  333 is at  -0.905557  1.525192 -2.007766
      ESP Fit Center  334 is at  -1.415977  2.075294 -2.007766
      ESP Fit Center  335 is at  -2.065866  2.450507 -2.007766
      ESP Fit Center  336 is at  -2.797478  2.617493 -2.007766
      ESP Fit Center  337 is at  -3.545807  2.561413 -2.007766
      ESP Fit Center  338 is at  -4.244360  2.287252 -2.007766
      ESP Fit Center  339 is at  -4.831067  1.819368 -2.007766
      ESP Fit Center  340 is at  -5.253798  1.199336 -2.007766
      ESP Fit Center  341 is at  -5.474990  0.482248 -2.007766
      ESP Fit Center  342 is at  -5.474990 -0.268179 -2.007766
      ESP Fit Center  343 is at  -5.253798 -0.985266 -2.007766
      ESP Fit Center  344 is at  -4.831067 -1.605298 -2.007766
      ESP Fit Center  345 is at  -4.244360 -2.073182 -2.007766
      ESP Fit Center  346 is at  -3.545807 -2.347343 -2.007766
      ESP Fit Center  347 is at  -2.797478 -2.403423 -2.007766
      ESP Fit Center  348 is at  -2.065866 -2.236437 -2.007766
      ESP Fit Center  349 is at  -1.415977 -1.861224 -2.007766
      ESP Fit Center  350 is at  -0.579959 -0.635010 -2.007766
      ESP Fit Center  351 is at  -0.977974  0.107035 -2.517626
      ESP Fit Center  352 is at  -1.113545  0.832277 -2.517626
      ESP Fit Center  353 is at  -1.501949  1.459571 -2.517626
      ESP Fit Center  354 is at  -2.090730  1.904198 -2.517626
      ESP Fit Center  355 is at  -2.800369  2.106108 -2.517626
      ESP Fit Center  356 is at  -3.535027  2.038032 -2.517626
      ESP Fit Center  357 is at  -4.195483  1.709164 -2.517626
      ESP Fit Center  358 is at  -4.692538  1.163920 -2.517626
      ESP Fit Center  359 is at  -4.959064  0.475937 -2.517626
      ESP Fit Center  360 is at  -4.959064 -0.261867 -2.517626
      ESP Fit Center  361 is at  -4.692538 -0.949850 -2.517626
      ESP Fit Center  362 is at  -4.195483 -1.495094 -2.517626
      ESP Fit Center  363 is at  -3.535027 -1.823962 -2.517626
      ESP Fit Center  364 is at  -2.800369 -1.892038 -2.517626
      ESP Fit Center  365 is at  -2.090730 -1.690128 -2.517626
      ESP Fit Center  366 is at  -1.501949 -1.245501 -2.517626
      ESP Fit Center  367 is at  -1.113545 -0.618207 -2.517626
      ESP Fit Center  368 is at  -1.588505  0.107035 -2.901249
      ESP Fit Center  369 is at  -1.775682  0.805588 -2.901249
      ESP Fit Center  370 is at  -2.287058  1.316964 -2.901249
      ESP Fit Center  371 is at  -2.985611  1.504141 -2.901249
      ESP Fit Center  372 is at  -3.684164  1.316964 -2.901249
      ESP Fit Center  373 is at  -4.195540  0.805588 -2.901249
      ESP Fit Center  374 is at  -4.382717  0.107035 -2.901249
      ESP Fit Center  375 is at  -4.195540 -0.591518 -2.901249
      ESP Fit Center  376 is at  -3.684164 -1.102894 -2.901249
      ESP Fit Center  377 is at  -2.985611 -1.290071 -2.901249
      ESP Fit Center  378 is at  -2.287058 -1.102894 -2.901249
      ESP Fit Center  379 is at  -1.775682 -0.591518 -2.901249
      ESP Fit Center  380 is at  -2.269093  0.107035 -3.139397
      ESP Fit Center  381 is at  -2.627352  0.727557 -3.139397
      ESP Fit Center  382 is at  -3.343870  0.727557 -3.139397
      ESP Fit Center  383 is at  -3.702128  0.107035 -3.139397
      ESP Fit Center  384 is at  -3.343870 -0.513487 -3.139397
      ESP Fit Center  385 is at  -2.627352 -0.513487 -3.139397
      ESP Fit Center  386 is at  -2.985611  0.107035 -3.220129
      ESP Fit Center  387 is at   4.903788  0.303985  2.565404
      ESP Fit Center  388 is at   5.632713  0.303985  2.399032
      ESP Fit Center  389 is at   5.268250  0.935252  2.399032
      ESP Fit Center  390 is at   4.539326  0.935252  2.399032
      ESP Fit Center  391 is at   4.174863  0.303985  2.399032
      ESP Fit Center  392 is at   4.539326 -0.327282  2.399032
      ESP Fit Center  393 is at   5.268250 -0.327282  2.399032
      ESP Fit Center  394 is at   6.217265  0.303985  1.932867
      ESP Fit Center  395 is at   5.966413  1.076027  1.932867
      ESP Fit Center  396 is at   5.309675  1.553176  1.932867
      ESP Fit Center  397 is at   4.497901  1.553176  1.932867
      ESP Fit Center  398 is at   3.841163  1.076027  1.932867
      ESP Fit Center  399 is at   3.590311  0.303985  1.932867
      ESP Fit Center  400 is at   5.309675 -0.945206  1.932867
      ESP Fit Center  401 is at   5.966413 -0.468057  1.932867
      ESP Fit Center  402 is at   6.541667  0.303985  1.259239
      ESP Fit Center  403 is at   6.354058  1.065145  1.259239
      ESP Fit Center  404 is at   5.834209  1.651933  1.259239
      ESP Fit Center  405 is at   5.101213  1.929922  1.259239
      ESP Fit Center  406 is at   4.322988  1.835428  1.259239
      ESP Fit Center  407 is at   6.354058  1.065145  0.511569
      ESP Fit Center  408 is at   5.834209  1.651933  0.511569
      ESP Fit Center  409 is at   5.101213  1.929922  0.511569
      ESP Fit Center  410 is at   6.099590 -1.169916  1.511445
      ESP Fit Center  411 is at   5.006203 -1.801183  1.511445
      ESP Fit Center  412 is at   5.735127 -1.801183  1.511445
      ESP Fit Center  413 is at   6.684142 -1.169916  1.045280
      ESP Fit Center  414 is at   4.964778 -2.419107  1.045280
      ESP Fit Center  415 is at   5.776552 -2.419107  1.045280
      ESP Fit Center  416 is at   6.433290 -1.941958  1.045280
      ESP Fit Center  417 is at   7.008544 -1.169916  0.371652
      ESP Fit Center  418 is at   6.820935 -0.408756  0.371652
      ESP Fit Center  419 is at   4.789865 -2.701359  0.371652
      ESP Fit Center  420 is at   5.568090 -2.795853  0.371652
      ESP Fit Center  421 is at   6.301086 -2.517864  0.371652
      ESP Fit Center  422 is at   6.820935 -1.931076  0.371652
      ESP Fit Center  423 is at   7.008544 -1.169916 -0.376018
      ESP Fit Center  424 is at   6.820935 -0.408756 -0.376018
      ESP Fit Center  425 is at   4.789865 -2.701359 -0.376018
      ESP Fit Center  426 is at   5.568090 -2.795853 -0.376018
      ESP Fit Center  427 is at   6.301086 -2.517864 -0.376018
      ESP Fit Center  428 is at   6.820935 -1.931076 -0.376018
      ESP Fit Center  429 is at   6.684142 -1.169916 -1.049646
      ESP Fit Center  430 is at   4.964778 -2.419107 -1.049646
      ESP Fit Center  431 is at   5.776552 -2.419107 -1.049646
      ESP Fit Center  432 is at   6.433290 -1.941958 -1.049646
      ESP Fit Center  433 is at   6.099590 -1.169916 -1.515811
      ESP Fit Center  434 is at   5.006203 -1.801183 -1.515811
      ESP Fit Center  435 is at   5.735127 -1.801183 -1.515811
      ESP Fit Center  436 is at   6.352121  1.067233 -0.511516
      ESP Fit Center  437 is at   5.832272  1.654021 -0.511516
      ESP Fit Center  438 is at   5.099276  1.932010 -0.511516
      ESP Fit Center  439 is at   6.539730  0.306073 -1.259186
      ESP Fit Center  440 is at   6.352121  1.067233 -1.259186
      ESP Fit Center  441 is at   5.832272  1.654021 -1.259186
      ESP Fit Center  442 is at   5.099276  1.932010 -1.259186
      ESP Fit Center  443 is at   4.321051  1.837516 -1.259186
      ESP Fit Center  444 is at   6.215328  0.306073 -1.932814
      ESP Fit Center  445 is at   5.964476  1.078115 -1.932814
      ESP Fit Center  446 is at   5.307738  1.555264 -1.932814
      ESP Fit Center  447 is at   4.495964  1.555264 -1.932814
      ESP Fit Center  448 is at   3.839226  1.078115 -1.932814
      ESP Fit Center  449 is at   3.588374  0.306073 -1.932814
      ESP Fit Center  450 is at   5.307738 -0.943118 -1.932814
      ESP Fit Center  451 is at   5.964476 -0.465969 -1.932814
      ESP Fit Center  452 is at   5.630776  0.306073 -2.398979
      ESP Fit Center  453 is at   5.266313  0.937340 -2.398979
      ESP Fit Center  454 is at   4.537389  0.937340 -2.398979
      ESP Fit Center  455 is at   4.172926  0.306073 -2.398979
      ESP Fit Center  456 is at   4.537389 -0.325194 -2.398979
      ESP Fit Center  457 is at   5.266313 -0.325194 -2.398979
      ESP Fit Center  458 is at   4.901851  0.306073 -2.565351
      ESP Fit Center  459 is at   2.772343 -2.412095  1.513514
      ESP Fit Center  460 is at   3.501267 -2.412095  1.513514
      ESP Fit Center  461 is at   2.730918 -3.030019  1.047349
      ESP Fit Center  462 is at   3.542692 -3.030019  1.047349
      ESP Fit Center  463 is at   4.199430 -2.552870  1.047349
      ESP Fit Center  464 is at   2.556005 -3.312271  0.373721
      ESP Fit Center  465 is at   3.334230 -3.406765  0.373721
      ESP Fit Center  466 is at   4.067226 -3.128776  0.373721
      ESP Fit Center  467 is at   2.556005 -3.312271 -0.373949
      ESP Fit Center  468 is at   3.334230 -3.406765 -0.373949
      ESP Fit Center  469 is at   4.067226 -3.128776 -0.373949
      ESP Fit Center  470 is at   2.730918 -3.030019 -1.047577
      ESP Fit Center  471 is at   3.542692 -3.030019 -1.047577
      ESP Fit Center  472 is at   4.199430 -2.552870 -1.047577
      ESP Fit Center  473 is at   2.772343 -2.412095 -1.513742
      ESP Fit Center  474 is at   3.501267 -2.412095 -1.513742
      ESP Fit Center  475 is at  -2.059743 -2.765408  1.513741
      ESP Fit Center  476 is at  -1.695280 -3.396675  1.513741
      ESP Fit Center  477 is at  -0.966356 -3.396675  1.513741
      ESP Fit Center  478 is at  -2.393443 -3.537450  1.047576
      ESP Fit Center  479 is at  -1.736705 -4.014599  1.047576
      ESP Fit Center  480 is at  -0.924931 -4.014599  1.047576
      ESP Fit Center  481 is at  -2.921103 -3.157378  0.373948
      ESP Fit Center  482 is at  -2.556788 -3.851523  0.373948
      ESP Fit Center  483 is at  -1.911618 -4.296851  0.373948
      ESP Fit Center  484 is at  -1.133393 -4.391345  0.373948
      ESP Fit Center  485 is at  -0.400397 -4.113356  0.373948
      ESP Fit Center  486 is at  -2.921103 -3.157378 -0.373722
      ESP Fit Center  487 is at  -2.556788 -3.851523 -0.373722
      ESP Fit Center  488 is at  -1.911618 -4.296851 -0.373722
      ESP Fit Center  489 is at  -1.133393 -4.391345 -0.373722
      ESP Fit Center  490 is at  -0.400397 -4.113356 -0.373722
      ESP Fit Center  491 is at  -2.393443 -3.537450 -1.047350
      ESP Fit Center  492 is at  -1.736705 -4.014599 -1.047350
      ESP Fit Center  493 is at  -0.924931 -4.014599 -1.047350
      ESP Fit Center  494 is at  -2.059743 -2.765408 -1.513515
      ESP Fit Center  495 is at  -1.695280 -3.396675 -1.513515
      ESP Fit Center  496 is at  -0.966356 -3.396675 -1.513515
      ESP Fit Center  497 is at  -1.252422  2.882064  1.513838
      ESP Fit Center  498 is at  -0.482073  3.499988  1.047673
      ESP Fit Center  499 is at  -1.293847  3.499988  1.047673
      ESP Fit Center  500 is at  -1.950585  3.022839  1.047673
      ESP Fit Center  501 is at  -0.690535  3.876734  0.374045
      ESP Fit Center  502 is at  -1.468760  3.782240  0.374045
      ESP Fit Center  503 is at  -2.113930  3.336912  0.374045
      ESP Fit Center  504 is at  -0.690535  3.876734 -0.373625
      ESP Fit Center  505 is at  -1.468760  3.782240 -0.373625
      ESP Fit Center  506 is at  -2.113930  3.336912 -0.373625
      ESP Fit Center  507 is at  -0.482073  3.499988 -1.047253
      ESP Fit Center  508 is at  -1.293847  3.499988 -1.047253
      ESP Fit Center  509 is at  -1.950585  3.022839 -1.047253
      ESP Fit Center  510 is at  -1.252422  2.882064 -1.513418
      ESP Fit Center  511 is at   1.817779  3.827585  1.513731
      ESP Fit Center  512 is at   1.088855  3.827585  1.513731
      ESP Fit Center  513 is at   2.766794  3.196318  1.047566
      ESP Fit Center  514 is at   2.515942  3.968360  1.047566
      ESP Fit Center  515 is at   1.859204  4.445509  1.047566
      ESP Fit Center  516 is at   1.047430  4.445509  1.047566
      ESP Fit Center  517 is at   0.390692  3.968360  1.047566
      ESP Fit Center  518 is at   2.903587  3.957478  0.373938
      ESP Fit Center  519 is at   2.383738  4.544266  0.373938
      ESP Fit Center  520 is at   1.650742  4.822255  0.373938
      ESP Fit Center  521 is at   0.872517  4.727761  0.373938
      ESP Fit Center  522 is at   0.227347  4.282433  0.373938
      ESP Fit Center  523 is at   2.903587  3.957478 -0.373732
      ESP Fit Center  524 is at   2.383738  4.544266 -0.373732
      ESP Fit Center  525 is at   1.650742  4.822255 -0.373732
      ESP Fit Center  526 is at   0.872517  4.727761 -0.373732
      ESP Fit Center  527 is at   0.227347  4.282433 -0.373732
      ESP Fit Center  528 is at   2.766794  3.196318 -1.047360
      ESP Fit Center  529 is at   2.515942  3.968360 -1.047360
      ESP Fit Center  530 is at   1.859204  4.445509 -1.047360
      ESP Fit Center  531 is at   1.047430  4.445509 -1.047360
      ESP Fit Center  532 is at   0.390692  3.968360 -1.047360
      ESP Fit Center  533 is at   1.817779  3.827585 -1.513525
      ESP Fit Center  534 is at   1.088855  3.827585 -1.513525
      ESP Fit Center  535 is at   0.611590 -1.857155  2.368512
      ESP Fit Center  536 is at   1.343444 -1.857155  2.252598
      ESP Fit Center  537 is at   0.245663 -1.223351  2.252598
      ESP Fit Center  538 is at   0.245663 -2.490959  2.252598
      ESP Fit Center  539 is at   0.977517 -2.490959  2.252598
      ESP Fit Center  540 is at   2.003658 -1.857155  1.916202
      ESP Fit Center  541 is at   0.413478 -3.235054  1.916202
      ESP Fit Center  542 is at   1.189876 -3.123425  1.916202
      ESP Fit Center  543 is at   1.782673 -2.609764  1.916202
      ESP Fit Center  544 is at   0.611590 -3.773173  1.392252
      ESP Fit Center  545 is at   1.344818 -3.627325  1.392252
      ESP Fit Center  546 is at   1.966419 -3.211984  1.392252
      ESP Fit Center  547 is at   0.425587 -4.101876  0.732038
      ESP Fit Center  548 is at   1.164525 -4.040646  0.732038
      ESP Fit Center  549 is at   1.843544 -3.742800  0.732038
      ESP Fit Center  550 is at   0.611590 -4.225483  0.000184
      ESP Fit Center  551 is at   1.343444 -4.109569  0.000184
      ESP Fit Center  552 is at   2.003658 -3.773173  0.000184
      ESP Fit Center  553 is at   0.425587 -4.101876 -0.731670
      ESP Fit Center  554 is at   1.164525 -4.040646 -0.731670
      ESP Fit Center  555 is at   1.843544 -3.742800 -0.731670
      ESP Fit Center  556 is at   0.611590 -3.773173 -1.391884
      ESP Fit Center  557 is at   1.344818 -3.627325 -1.391884
      ESP Fit Center  558 is at   1.966419 -3.211984 -1.391884
      ESP Fit Center  559 is at   2.003658 -1.857155 -1.915834
      ESP Fit Center  560 is at   0.413478 -3.235054 -1.915834
      ESP Fit Center  561 is at   1.189876 -3.123425 -1.915834
      ESP Fit Center  562 is at   1.782673 -2.609764 -1.915834
      ESP Fit Center  563 is at   1.343444 -1.857155 -2.252230
      ESP Fit Center  564 is at   0.245663 -1.223351 -2.252230
      ESP Fit Center  565 is at   0.245663 -2.490959 -2.252230
      ESP Fit Center  566 is at   0.977517 -2.490959 -2.252230
      ESP Fit Center  567 is at   0.611590 -1.857155 -2.368144
      ESP Fit Center  568 is at   0.958512 -0.571778  2.368457
      ESP Fit Center  569 is at   1.690366 -0.571778  2.252543
      ESP Fit Center  570 is at   1.324439  0.062026  2.252543
      ESP Fit Center  571 is at   0.592585  0.062026  2.252543
      ESP Fit Center  572 is at   0.226658 -0.571778  2.252543
      ESP Fit Center  573 is at   1.324439 -1.205582  2.252543
      ESP Fit Center  574 is at   1.690366 -0.571778 -2.252285
      ESP Fit Center  575 is at   1.324439  0.062026 -2.252285
      ESP Fit Center  576 is at   0.592585  0.062026 -2.252285
      ESP Fit Center  577 is at   0.226658 -0.571778 -2.252285
      ESP Fit Center  578 is at   1.324439 -1.205582 -2.252285
      ESP Fit Center  579 is at   0.958512 -0.571778 -2.368199
      ESP Fit Center  580 is at  -0.140343  0.270335  2.368509
      ESP Fit Center  581 is at   0.591511  0.270335  2.252595
      ESP Fit Center  582 is at   0.225584  0.904139  2.252595
      ESP Fit Center  583 is at   0.225584 -0.363469  2.252595
      ESP Fit Center  584 is at   0.591511  0.270335 -2.252233
      ESP Fit Center  585 is at   0.225584  0.904139 -2.252233
      ESP Fit Center  586 is at   0.225584 -0.363469 -2.252233
      ESP Fit Center  587 is at  -0.140343  0.270335 -2.368147
      ESP Fit Center  588 is at  -0.749510 -1.853697  2.368459
      ESP Fit Center  589 is at  -0.383583 -1.219893  2.252545
      ESP Fit Center  590 is at  -1.115437 -2.487501  2.252545
      ESP Fit Center  591 is at  -0.383583 -2.487501  2.252545
      ESP Fit Center  592 is at  -1.661121 -2.905752  1.916149
      ESP Fit Center  593 is at  -0.947622 -3.231596  1.916149
      ESP Fit Center  594 is at  -0.171224 -3.119967  1.916149
      ESP Fit Center  595 is at  -1.661121 -2.905752 -1.915887
      ESP Fit Center  596 is at  -0.947622 -3.231596 -1.915887
      ESP Fit Center  597 is at  -0.171224 -3.119967 -1.915887
      ESP Fit Center  598 is at  -0.383583 -1.219893 -2.252283
      ESP Fit Center  599 is at  -1.115437 -2.487501 -2.252283
      ESP Fit Center  600 is at  -0.383583 -2.487501 -2.252283
      ESP Fit Center  601 is at  -0.749510 -1.853697 -2.368197
      ESP Fit Center  602 is at   0.010531  1.649957  2.368518
      ESP Fit Center  603 is at   0.376458  2.283761  2.252604
      ESP Fit Center  604 is at  -0.355396  2.283761  2.252604
      ESP Fit Center  605 is at   0.376458  1.016153  2.252604
      ESP Fit Center  606 is at  -0.187581  3.027856  1.916208
      ESP Fit Center  607 is at  -0.901080  2.702012  1.916208
      ESP Fit Center  608 is at   0.010531  3.565975  1.392258
      ESP Fit Center  609 is at  -0.175472  3.894678  0.732044
      ESP Fit Center  610 is at  -0.175472  3.894678 -0.731664
      ESP Fit Center  611 is at   0.010531  3.565975 -1.391878
      ESP Fit Center  612 is at  -0.187581  3.027856 -1.915828
      ESP Fit Center  613 is at  -0.901080  2.702012 -1.915828
      ESP Fit Center  614 is at   0.376458  2.283761 -2.252224
      ESP Fit Center  615 is at  -0.355396  2.283761 -2.252224
      ESP Fit Center  616 is at   0.376458  1.016153 -2.252224
      ESP Fit Center  617 is at   0.010531  1.649957 -2.368138
      ESP Fit Center  618 is at   1.289864  2.122308  2.368460
      ESP Fit Center  619 is at   2.021718  2.122308  2.252546
      ESP Fit Center  620 is at   1.655791  2.756112  2.252546
      ESP Fit Center  621 is at   0.923937  2.756112  2.252546
      ESP Fit Center  622 is at   0.923937  1.488504  2.252546
      ESP Fit Center  623 is at   1.655791  1.488504  2.252546
      ESP Fit Center  624 is at   2.460947  2.874917  1.916150
      ESP Fit Center  625 is at   1.868150  3.388578  1.916150
      ESP Fit Center  626 is at   1.091752  3.500207  1.916150
      ESP Fit Center  627 is at   0.378253  3.174363  1.916150
      ESP Fit Center  628 is at   2.460947  2.874917 -1.915886
      ESP Fit Center  629 is at   1.868150  3.388578 -1.915886
      ESP Fit Center  630 is at   1.091752  3.500207 -1.915886
      ESP Fit Center  631 is at   0.378253  3.174363 -1.915886
      ESP Fit Center  632 is at   2.021718  2.122308 -2.252282
      ESP Fit Center  633 is at   1.655791  2.756112 -2.252282
      ESP Fit Center  634 is at   0.923937  2.756112 -2.252282
      ESP Fit Center  635 is at   0.923937  1.488504 -2.252282
      ESP Fit Center  636 is at   1.655791  1.488504 -2.252282
      ESP Fit Center  637 is at   1.289864  2.122308 -2.368196
      ESP Fit Center  638 is at   2.417961  1.351130  2.368379
      ESP Fit Center  639 is at   3.149815  1.351130  2.252465
      ESP Fit Center  640 is at   2.783888  1.984934  2.252465
      ESP Fit Center  641 is at   2.052034  1.984934  2.252465
      ESP Fit Center  642 is at   1.686107  1.351130  2.252465
      ESP Fit Center  643 is at   2.783888  0.717326  2.252465
      ESP Fit Center  644 is at   3.589044  2.103739  1.916069
      ESP Fit Center  645 is at   2.996247  2.617400  1.916069
      ESP Fit Center  646 is at   4.188131  2.084358  1.392119
      ESP Fit Center  647 is at   3.772790  2.705959  1.392119
      ESP Fit Center  648 is at   3.151189  3.121300  1.392119
      ESP Fit Center  649 is at   4.195432  2.734591  0.731905
      ESP Fit Center  650 is at   3.649915  3.236775  0.731905
      ESP Fit Center  651 is at   4.670375  2.082984  0.000051
      ESP Fit Center  652 is at   4.333979  2.743198  0.000051
      ESP Fit Center  653 is at   3.810029  3.267148  0.000051
      ESP Fit Center  654 is at   4.195432  2.734591 -0.731803
      ESP Fit Center  655 is at   3.649915  3.236775 -0.731803
      ESP Fit Center  656 is at   4.188131  2.084358 -1.392017
      ESP Fit Center  657 is at   3.772790  2.705959 -1.392017
      ESP Fit Center  658 is at   3.151189  3.121300 -1.392017
      ESP Fit Center  659 is at   3.589044  2.103739 -1.915967
      ESP Fit Center  660 is at   2.996247  2.617400 -1.915967
      ESP Fit Center  661 is at   3.149815  1.351130 -2.252363
      ESP Fit Center  662 is at   2.783888  1.984934 -2.252363
      ESP Fit Center  663 is at   2.052034  1.984934 -2.252363
      ESP Fit Center  664 is at   1.686107  1.351130 -2.252363
      ESP Fit Center  665 is at   2.783888  0.717326 -2.252363
      ESP Fit Center  666 is at   2.417961  1.351130 -2.368277
      ESP Fit Center  667 is at   2.260390  0.036025  2.368378
      ESP Fit Center  668 is at   2.992244  0.036025  2.252464
      ESP Fit Center  669 is at   1.894463  0.669829  2.252464
      ESP Fit Center  670 is at   1.528536  0.036025  2.252464
      ESP Fit Center  671 is at   1.894463 -0.597779  2.252464
      ESP Fit Center  672 is at   2.992244  0.036025 -2.252364
      ESP Fit Center  673 is at   1.894463  0.669829 -2.252364
      ESP Fit Center  674 is at   1.528536  0.036025 -2.252364
      ESP Fit Center  675 is at   1.894463 -0.597779 -2.252364
      ESP Fit Center  676 is at   2.626317 -0.597779 -2.252364
      ESP Fit Center  677 is at   2.260390  0.036025 -2.368278
      ESP Fit Center  678 is at   3.332768 -0.790355  2.368651
      ESP Fit Center  679 is at   4.064622 -0.790355  2.252737
      ESP Fit Center  680 is at   2.966841 -0.156551  2.252737
      ESP Fit Center  681 is at   2.600914 -0.790355  2.252737
      ESP Fit Center  682 is at   2.966841 -1.424159  2.252737
      ESP Fit Center  683 is at   3.698695 -1.424159  2.252737
      ESP Fit Center  684 is at   2.421157 -1.842410  1.916341
      ESP Fit Center  685 is at   3.134656 -2.168254  1.916341
      ESP Fit Center  686 is at   3.911054 -2.056625  1.916341
      ESP Fit Center  687 is at   2.421157 -1.842410 -1.915695
      ESP Fit Center  688 is at   3.134656 -2.168254 -1.915695
      ESP Fit Center  689 is at   3.911054 -2.056625 -1.915695
      ESP Fit Center  690 is at   4.064622 -0.790355 -2.252091
      ESP Fit Center  691 is at   2.600914 -0.790355 -2.252091
      ESP Fit Center  692 is at   2.966841 -1.424159 -2.252091
      ESP Fit Center  693 is at   3.698695 -1.424159 -2.252091
      ESP Fit Center  694 is at   3.332768 -0.790355 -2.368005
      ESP Fit Center  695 is at   4.333720 -0.942002  2.251928
      ESP Fit Center  696 is at   4.501535 -1.686097  1.915532
      ESP Fit Center  697 is at   5.277933 -1.574468  1.915532
      ESP Fit Center  698 is at   5.870730 -1.060807  1.915532
      ESP Fit Center  699 is at   6.952061 -0.308198  0.731368
      ESP Fit Center  700 is at   6.830019  0.423160  0.731368
      ESP Fit Center  701 is at   7.067975 -0.308198 -0.000486
      ESP Fit Center  702 is at   6.952061  0.423656 -0.000486
      ESP Fit Center  703 is at   6.615665  1.083870 -0.000486
      ESP Fit Center  704 is at   6.091715  1.607820 -0.000486
      ESP Fit Center  705 is at   5.431501  1.944216 -0.000486
      ESP Fit Center  706 is at   4.699647  2.060130 -0.000486
      ESP Fit Center  707 is at   6.952061 -0.308198 -0.732340
      ESP Fit Center  708 is at   6.830019  0.423160 -0.732340
      ESP Fit Center  709 is at   4.501535 -1.686097 -1.916504
      ESP Fit Center  710 is at   5.277933 -1.574468 -1.916504
      ESP Fit Center  711 is at   5.870730 -1.060807 -1.916504
      ESP Fit Center  712 is at   4.333720 -0.942002 -2.252900
      ESP Fit Center  713 is at  -2.985611  0.107035  3.631308
      ESP Fit Center  714 is at  -2.277153  0.107035  3.561531
      ESP Fit Center  715 is at  -2.631382  0.720578  3.561531
[...]
 2583 Fit      -0.008646
 2584 Fit      -0.009199
 2585 Fit      -0.009791
 2586 Fit      -0.008773
 2587 Fit      -0.007703
 2588 Fit      -0.007004
 2589 Fit      -0.007796
 2590 Fit      -0.010556
 2591 Fit      -0.010443
 2592 Fit      -0.011589
 2593 Fit      -0.010302
 2594 Fit      -0.012108
 2595 Fit      -0.011761
 2596 Fit      -0.008777
 2597 Fit      -0.013014
 2598 Fit      -0.010779
 2599 Fit      -0.013725
 2600 Fit      -0.011782
 2601 Fit      -0.014003
 2602 Fit      -0.012282
 2603 Fit      -0.007839
 2604 Fit      -0.013717
 2605 Fit      -0.011777
 2606 Fit      -0.013002
 2607 Fit      -0.010771
 2608 Fit      -0.012087
 2609 Fit      -0.011748
 2610 Fit      -0.008769
 2611 Fit      -0.011570
 2612 Fit      -0.010289
 2613 Fit      -0.010533
 2614 Fit      -0.010427
 2615 Fit      -0.009174
 2616 Fit      -0.009773
 2617 Fit      -0.008758
 2618 Fit      -0.007687
 2619 Fit      -0.006982
 2620 Fit      -0.007768
 2621 Fit      -0.008626
 2622 Fit      -0.005626
 2623 Fit      -0.005913
 2624 Fit      -0.007465
 2625 Fit      -0.006478
 2626 Fit      -0.005042
 2627 Fit      -0.005393
 2628 Fit      -0.005376
 2629 Fit      -0.005875
 2630 Fit      -0.007437
 2631 Fit      -0.006456
 2632 Fit      -0.005019
 2633 Fit      -0.005363
 2634 Fit      -0.005338
 2635 Fit      -0.005597
 2636 Fit      -0.004199
 2637 Fit      -0.002125
 2638 Fit      -0.004067
 2639 Fit      -0.005565
 2640 Fit      -0.005324
 2641 Fit      -0.004458
 2642 Fit      -0.002453
 2643 Fit      -0.006886
 2644 Fit      -0.005261
 2645 Fit      -0.002079
 2646 Fit       0.000119
 2647 Fit      -0.003646
 2648 Fit       0.000908
 2649 Fit       0.003343
 2650 Fit       0.006893
 2651 Fit       0.006935
 2652 Fit      -0.003606
 2653 Fit       0.000952
 2654 Fit       0.003387
 2655 Fit      -0.006849
 2656 Fit      -0.005221
 2657 Fit      -0.002036
 2658 Fit       0.000163
 2659 Fit      -0.002085
 2660 Fit      -0.004028
 2661 Fit      -0.005527
 2662 Fit      -0.005286
 2663 Fit      -0.004416
 2664 Fit      -0.002411
 2665 Fit      -0.004158
 2666 Fit      -0.000800
 2667 Fit       0.001825
 2668 Fit       0.003301
 2669 Fit       0.003724
 2670 Fit       0.004639
 2671 Fit       0.005460
 2672 Fit       0.005490
 2673 Fit       0.005138
 2674 Fit       0.005509
 2675 Fit       0.008029
 2676 Fit       0.006330
 2677 Fit       0.006170
 2678 Fit       0.005147
 2679 Fit       0.006654
 2680 Fit       0.005421
 2681 Fit       0.004067
 2682 Fit       0.002224
 2683 Fit       0.006836
 2684 Fit       0.005544
 2685 Fit       0.004147
 2686 Fit       0.002300
 2687 Fit      -0.000402
 2688 Fit      -0.004521
 2689 Fit      -0.010987
 2690 Fit       0.006659
 2691 Fit       0.005424
 2692 Fit       0.004069
 2693 Fit       0.002228
 2694 Fit       0.006179
 2695 Fit       0.005152
 2696 Fit       0.005518
 2697 Fit       0.008061
 2698 Fit       0.006346
 2699 Fit       0.004673
 2700 Fit       0.005489
 2701 Fit       0.005514
 2702 Fit       0.005154
 2703 Fit       0.001859
 2704 Fit       0.003327
 2705 Fit       0.003741
 2706 Fit      -0.000763
 2707 Fit      -0.002654
 2708 Fit      -0.002950
 2709 Fit      -0.002488
 2710 Fit      -0.002219
 2711 Fit      -0.002347
 2712 Fit      -0.002695
 2713 Fit      -0.003025
 2714 Fit      -0.003283
 2715 Fit      -0.002766
 2716 Fit      -0.002200
 2717 Fit      -0.001825
 2718 Fit      -0.001707
 2719 Fit      -0.001780
 2720 Fit      -0.001996
 2721 Fit      -0.002292
 2722 Fit      -0.002610
 2723 Fit      -0.002970
 2724 Fit      -0.003360
 2725 Fit      -0.003526
 2726 Fit      -0.003697
 2727 Fit      -0.003149
 2728 Fit      -0.002467
 2729 Fit      -0.001787
 2730 Fit      -0.001333
 2731 Fit      -0.001143
 2732 Fit      -0.001118
 2733 Fit      -0.001190
 2734 Fit      -0.001348
 2735 Fit      -0.001588
 2736 Fit      -0.001874
 2737 Fit      -0.002152
 2738 Fit      -0.002403
 2739 Fit      -0.002691
 2740 Fit      -0.003128
 2741 Fit      -0.003700
 2742 Fit      -0.004114
 2743 Fit      -0.004083
 2744 Fit      -0.004204
 2745 Fit      -0.003706
 2746 Fit      -0.003045
 2747 Fit      -0.002116
 2748 Fit      -0.001219
 2749 Fit      -0.000657
 2750 Fit      -0.000440
 2751 Fit      -0.000419
 2752 Fit      -0.000471
 2753 Fit      -0.000554
 2754 Fit      -0.000679
 2755 Fit      -0.000868
 2756 Fit      -0.001124
 2757 Fit      -0.001417
 2758 Fit      -0.001698
 2759 Fit      -0.001923
 2760 Fit      -0.002086
 2761 Fit      -0.002255
 2762 Fit      -0.002572
 2763 Fit      -0.003189
 2764 Fit      -0.004081
 2765 Fit      -0.004886
 2766 Fit      -0.005125
 2767 Fit      -0.004754
 2768 Fit      -0.004700
 2769 Fit      -0.004460
 2770 Fit      -0.004106
 2771 Fit      -0.003012
 2772 Fit      -0.001477
 2773 Fit      -0.000242
 2774 Fit       0.000374
 2775 Fit       0.000508
 2776 Fit       0.000419
 2777 Fit       0.000284
 2778 Fit       0.000169
 2779 Fit       0.000068
 2780 Fit      -0.000055
 2781 Fit      -0.000233
 2782 Fit      -0.000480
 2783 Fit      -0.000782
 2784 Fit      -0.001099
 2785 Fit      -0.001381
 2786 Fit      -0.001578
 2787 Fit      -0.001672
 2788 Fit      -0.001693
 2789 Fit      -0.001755
 2790 Fit      -0.002066
 2791 Fit      -0.002870
 2792 Fit      -0.004247
 2793 Fit      -0.005821
 2794 Fit      -0.006768
 2795 Fit      -0.006503
 2796 Fit      -0.005480
 2797 Fit      -0.005292
 2798 Fit      -0.002510
 2799 Fit       0.000018
 2800 Fit       0.001434
 2801 Fit       0.001826
 2802 Fit       0.001670
 2803 Fit       0.001351
 2804 Fit       0.001064
 2805 Fit       0.000868
 2806 Fit       0.000741
 2807 Fit       0.000636
 2808 Fit       0.000502
 2809 Fit       0.000306
 2810 Fit       0.000035
 2811 Fit      -0.000293
 2812 Fit      -0.000642
 2813 Fit      -0.000958
 2814 Fit      -0.001186
 2815 Fit      -0.001281
 2816 Fit      -0.001227
 2817 Fit      -0.001058
 2818 Fit      -0.000899
 2819 Fit      -0.001005
 2820 Fit      -0.001779
 2821 Fit      -0.003598
 2822 Fit      -0.006380
 2823 Fit       0.002795
 2824 Fit       0.003775
 2825 Fit       0.003576
 2826 Fit       0.002959
 2827 Fit       0.002333
 2828 Fit       0.001854
 2829 Fit       0.001545
 2830 Fit       0.001366
 2831 Fit       0.001256
 2832 Fit       0.001154
 2833 Fit       0.001011
 2834 Fit       0.000799
 2835 Fit       0.000511
 2836 Fit       0.000165
 2837 Fit      -0.000206
 2838 Fit      -0.000552
 2839 Fit      -0.000817
 2840 Fit      -0.000949
 2841 Fit      -0.000903
 2842 Fit      -0.000659
 2843 Fit      -0.000238
 2844 Fit       0.000259
 2845 Fit       0.000573
 2846 Fit       0.000174
 2847 Fit      -0.001727
 2848 Fit       0.006947
 2849 Fit       0.006346
 2850 Fit       0.005145
 2851 Fit       0.003975
 2852 Fit       0.003063
 2853 Fit       0.002441
 2854 Fit       0.002063
 2855 Fit       0.001854
 2856 Fit       0.001737
 2857 Fit       0.001645
 2858 Fit       0.001523
 2859 Fit       0.001337
 2860 Fit       0.001073
 2861 Fit       0.000737
 2862 Fit       0.000355
 2863 Fit      -0.000032
 2864 Fit      -0.000373
 2865 Fit      -0.000613
 2866 Fit      -0.000694
 2867 Fit      -0.000565
 2868 Fit      -0.000186
 2869 Fit       0.000466
 2870 Fit       0.001370
 2871 Fit       0.002389
 2872 Fit       0.003079
 2873 Fit       0.009474
 2874 Fit       0.007194
 2875 Fit       0.005333
 2876 Fit       0.003987
 2877 Fit       0.003096
 2878 Fit       0.002557
 2879 Fit       0.002262
 2880 Fit       0.002110
 2881 Fit       0.002018
 2882 Fit       0.001917
 2883 Fit       0.001762
 2884 Fit       0.001526
 2885 Fit       0.001207
 2886 Fit       0.000823
 2887 Fit       0.000408
 2888 Fit       0.000012
 2889 Fit      -0.000309
 2890 Fit      -0.000491
 2891 Fit      -0.000471
 2892 Fit      -0.000187
 2893 Fit       0.000427
 2894 Fit       0.001436
 2895 Fit       0.002898
 2896 Fit       0.004788
 2897 Fit       0.008908
 2898 Fit       0.006449
 2899 Fit       0.004732
 2900 Fit       0.003604
 2901 Fit       0.002914
 2902 Fit       0.002528
 2903 Fit       0.002330
 2904 Fit       0.002226
 2905 Fit       0.002139
 2906 Fit       0.002013
 2907 Fit       0.001815
 2908 Fit       0.001532
 2909 Fit       0.001171
 2910 Fit       0.000759
 2911 Fit       0.000338
 2912 Fit      -0.000039
 2913 Fit      -0.000312
 2914 Fit      -0.000417
 2915 Fit      -0.000286
 2916 Fit       0.000152
 2917 Fit       0.000980
 2918 Fit       0.002308
 2919 Fit       0.004281
 2920 Fit       0.008907
 2921 Fit       0.006449
 2922 Fit       0.004732
 2923 Fit       0.003604
 2924 Fit       0.002915
 2925 Fit       0.002528
 2926 Fit       0.002331
 2927 Fit       0.002226
 2928 Fit       0.002139
 2929 Fit       0.002013
 2930 Fit       0.001815
 2931 Fit       0.001532
 2932 Fit       0.001171
 2933 Fit       0.000759
 2934 Fit       0.000338
 2935 Fit      -0.000039
 2936 Fit      -0.000312
 2937 Fit      -0.000416
 2938 Fit      -0.000286
 2939 Fit       0.000152
 2940 Fit       0.000980
 2941 Fit       0.002308
 2942 Fit       0.004281
 2943 Fit       0.009471
 2944 Fit       0.007192
 2945 Fit       0.005333
 2946 Fit       0.003986
 2947 Fit       0.003096
 2948 Fit       0.002557
 2949 Fit       0.002262
 2950 Fit       0.002111
 2951 Fit       0.002018
 2952 Fit       0.001918
 2953 Fit       0.001762
 2954 Fit       0.001527
 2955 Fit       0.001208
 2956 Fit       0.000824
 2957 Fit       0.000409
 2958 Fit       0.000012
 2959 Fit      -0.000309
 2960 Fit      -0.000491
 2961 Fit      -0.000471
 2962 Fit      -0.000186
 2963 Fit       0.000427
 2964 Fit       0.001436
 2965 Fit       0.002898
 2966 Fit       0.004787
 2967 Fit       0.006945
 2968 Fit       0.006344
 2969 Fit       0.005144
 2970 Fit       0.003975
 2971 Fit       0.003063
 2972 Fit       0.002442
 2973 Fit       0.002063
 2974 Fit       0.001854
 2975 Fit       0.001738
 2976 Fit       0.001646
 2977 Fit       0.001524
 2978 Fit       0.001338
 2979 Fit       0.001074
 2980 Fit       0.000738
 2981 Fit       0.000356
 2982 Fit      -0.000031
 2983 Fit      -0.000372
 2984 Fit      -0.000612
 2985 Fit      -0.000693
 2986 Fit      -0.000564
 2987 Fit      -0.000185
 2988 Fit       0.000467
 2989 Fit       0.001370
 2990 Fit       0.002389
 2991 Fit       0.003078
 2992 Fit       0.002795
 2993 Fit       0.003774
 2994 Fit       0.003576
 2995 Fit       0.002959
 2996 Fit       0.002333
 2997 Fit       0.001855
 2998 Fit       0.001546
 2999 Fit       0.001367
 3000 Fit       0.001257
 3001 Fit       0.001155
 3002 Fit       0.001012
 3003 Fit       0.000800
 3004 Fit       0.000513
 3005 Fit       0.000166
 3006 Fit      -0.000205
 3007 Fit      -0.000551
 3008 Fit      -0.000816
 3009 Fit      -0.000948
 3010 Fit      -0.000902
 3011 Fit      -0.000658
 3012 Fit      -0.000237
 3013 Fit       0.000260
 3014 Fit       0.000574
 3015 Fit       0.000175
 3016 Fit      -0.001724
 3017 Fit      -0.005278
 3018 Fit      -0.002505
 3019 Fit       0.000021
 3020 Fit       0.001434
 3021 Fit       0.001826
 3022 Fit       0.001670
 3023 Fit       0.001351
 3024 Fit       0.001065
 3025 Fit       0.000869
 3026 Fit       0.000742
 3027 Fit       0.000638
 3028 Fit       0.000504
 3029 Fit       0.000307
 3030 Fit       0.000037
 3031 Fit      -0.000292
 3032 Fit      -0.000640
 3033 Fit      -0.000957
 3034 Fit      -0.001185
 3035 Fit      -0.001280
 3036 Fit      -0.001225
 3037 Fit      -0.001057
 3038 Fit      -0.000897
 3039 Fit      -0.001003
 3040 Fit      -0.001776
 3041 Fit      -0.003593
 3042 Fit      -0.006371
 3043 Fit      -0.004688
 3044 Fit      -0.004449
 3045 Fit      -0.004098
 3046 Fit      -0.003005
 3047 Fit      -0.001474
 3048 Fit      -0.000240
 3049 Fit       0.000376
 3050 Fit       0.000510
 3051 Fit       0.000420
 3052 Fit       0.000285
 3053 Fit       0.000170
 3054 Fit       0.000069
 3055 Fit      -0.000053
 3056 Fit      -0.000231
 3057 Fit      -0.000478
 3058 Fit      -0.000780
 3059 Fit      -0.001097
 3060 Fit      -0.001379
 3061 Fit      -0.001577
 3062 Fit      -0.001670
 3063 Fit      -0.001691
 3064 Fit      -0.001753
 3065 Fit      -0.002063
 3066 Fit      -0.002865
 3067 Fit      -0.004240
 3068 Fit      -0.005813
 3069 Fit      -0.006757
 3070 Fit      -0.006490
 3071 Fit      -0.005467
 3072 Fit      -0.004195
 3073 Fit      -0.003698
 3074 Fit      -0.003039
 3075 Fit      -0.002111
 3076 Fit      -0.001216
 3077 Fit      -0.000655
 3078 Fit      -0.000438
 3079 Fit      -0.000418
 3080 Fit      -0.000469
 3081 Fit      -0.000552
 3082 Fit      -0.000677
 3083 Fit      -0.000866
 3084 Fit      -0.001122
 3085 Fit      -0.001415
 3086 Fit      -0.001696
 3087 Fit      -0.001921
 3088 Fit      -0.002084
 3089 Fit      -0.002252
 3090 Fit      -0.002569
 3091 Fit      -0.003185
 3092 Fit      -0.004075
 3093 Fit      -0.004878
 3094 Fit      -0.005115
 3095 Fit      -0.004744
 3096 Fit      -0.003690
 3097 Fit      -0.003143
 3098 Fit      -0.002462
 3099 Fit      -0.001783
 3100 Fit      -0.001330
 3101 Fit      -0.001141
 3102 Fit      -0.001116
 3103 Fit      -0.001188
 3104 Fit      -0.001345
 3105 Fit      -0.001585
 3106 Fit      -0.001872
 3107 Fit      -0.002150
 3108 Fit      -0.002400
 3109 Fit      -0.002687
 3110 Fit      -0.003124
 3111 Fit      -0.003694
 3112 Fit      -0.004108
 3113 Fit      -0.004076
 3114 Fit      -0.003277
 3115 Fit      -0.002762
 3116 Fit      -0.002197
 3117 Fit      -0.001822
 3118 Fit      -0.001704
 3119 Fit      -0.001778
 3120 Fit      -0.001994
 3121 Fit      -0.002290
 3122 Fit      -0.002607
 3123 Fit      -0.002966
 3124 Fit      -0.003356
 3125 Fit      -0.003521
 3126 Fit      -0.002946
 3127 Fit      -0.002484
 3128 Fit      -0.002216
 3129 Fit      -0.002344
 3130 Fit      -0.002692
 3131 Fit      -0.003021
 3132 Fit      -0.002650
 3133 Fit      -0.000295
 3134 Fit       0.001490
 3135 Fit      -0.000180
 3136 Fit      -0.002480
 3137 Fit      -0.002657
 3138 Fit      -0.000690
 3139 Fit       0.001306
 3140 Fit       0.002824
 3141 Fit       0.001508
 3142 Fit      -0.000827
 3143 Fit      -0.003979
 3144 Fit      -0.006588
 3145 Fit      -0.006470
 3146 Fit       0.002670
 3147 Fit       0.003234
 3148 Fit       0.003863
 3149 Fit       0.002677
 3150 Fit       0.000838
 3151 Fit      -0.001887
 3152 Fit      -0.005667
 3153 Fit      -0.010243
 3154 Fit       0.004592
 3155 Fit       0.004770
 3156 Fit       0.003486
 3157 Fit       0.001769
 3158 Fit      -0.000640
 3159 Fit      -0.004074
 3160 Fit      -0.008995
 3161 Fit       0.004021
 3162 Fit       0.001975
 3163 Fit      -0.000802
 3164 Fit      -0.004822
 3165 Fit      -0.010979
 3166 Fit      -0.006249
 3167 Fit       0.007283
 3168 Fit       0.006883
 3169 Fit       0.007053
 3170 Fit       0.009516
 3171 Fit       0.008829
 3172 Fit       0.008268
 3173 Fit       0.007673
 3174 Fit       0.007586
 3175 Fit       0.011354
 3176 Fit       0.010131
 3177 Fit       0.009406
 3178 Fit       0.008805
 3179 Fit       0.008196
 3180 Fit       0.007865
 3181 Fit       0.011877
 3182 Fit       0.010548
 3183 Fit       0.009773
 3184 Fit       0.009137
 3185 Fit       0.008500
 3186 Fit       0.007867
 3187 Fit       0.011877
 3188 Fit       0.010549
 3189 Fit       0.009774
 3190 Fit       0.009138
 3191 Fit       0.008501
 3192 Fit       0.007590
 3193 Fit       0.011354
 3194 Fit       0.010135
 3195 Fit       0.009410
 3196 Fit       0.008810
 3197 Fit       0.008201
 3198 Fit       0.007059
 3199 Fit       0.009521
 3200 Fit       0.008836
 3201 Fit       0.008276
 3202 Fit       0.007681
 3203 Fit       0.007294
 3204 Fit       0.006893
 3205 Fit      -0.006260
 3206 Fit       0.004022
 3207 Fit       0.001974
 3208 Fit      -0.000805
 3209 Fit      -0.004825
 3210 Fit      -0.010977
 3211 Fit       0.004778
 3212 Fit       0.003489
 3213 Fit       0.001771
 3214 Fit      -0.000638
 3215 Fit      -0.004071
 3216 Fit      -0.008988
 3217 Fit       0.003871
 3218 Fit       0.002683
 3219 Fit       0.000842
 3220 Fit      -0.001881
 3221 Fit      -0.005658
 3222 Fit      -0.010230
 3223 Fit       0.004605
 3224 Fit       0.002833
 3225 Fit       0.001516
 3226 Fit      -0.000819
 3227 Fit      -0.003968
 3228 Fit      -0.006573
 3229 Fit      -0.006448
 3230 Fit       0.002688
 3231 Fit       0.003246
 3232 Fit       0.001501
 3233 Fit      -0.000169
 3234 Fit      -0.002466
 3235 Fit      -0.002637
 3236 Fit      -0.000669
 3237 Fit       0.001321
 3238 Fit      -0.000281
 3239 Fit      -0.001237
 3240 Fit       0.001728
 3241 Fit       0.006987
 3242 Fit       0.002524
 3243 Fit       0.008179
 3244 Fit       0.011803
 3245 Fit       0.004713
 3246 Fit       0.010110
 3247 Fit       0.013845
 3248 Fit       0.004718
 3249 Fit       0.010115
 3250 Fit       0.013852
 3251 Fit       0.002539
 3252 Fit       0.008195
 3253 Fit       0.011822
 3254 Fit       0.001752
 3255 Fit       0.007013
 3256 Fit      -0.001202
 3257 Fit       0.000139
 3258 Fit       0.003200
 3259 Fit       0.001095
 3260 Fit       0.004320
 3261 Fit       0.002275
 3262 Fit      -0.001319
 3263 Fit       0.005759
 3264 Fit       0.004556
 3265 Fit       0.002141
 3266 Fit      -0.001998
 3267 Fit       0.005760
 3268 Fit       0.004557
 3269 Fit       0.002141
 3270 Fit      -0.001998
 3271 Fit       0.004322
 3272 Fit       0.002276
 3273 Fit      -0.001317
 3274 Fit       0.003203
 3275 Fit       0.001098
 3276 Fit       0.000142
 3277 Fit       0.010324
 3278 Fit       0.012187
 3279 Fit       0.012187
 3280 Fit       0.010325
 3281 Fit       0.000358
 3282 Fit       0.002615
 3283 Fit      -0.001159
 3284 Fit       0.002366
 3285 Fit       0.004539
 3286 Fit       0.005865
 3287 Fit       0.006697
 3288 Fit      -0.002887
 3289 Fit       0.001388
 3290 Fit       0.004179
 3291 Fit       0.006067
 3292 Fit       0.007460
 3293 Fit       0.008791
 3294 Fit      -0.003351
 3295 Fit       0.001327
 3296 Fit       0.004353
 3297 Fit       0.006410
 3298 Fit       0.007945
 3299 Fit       0.009426
 3300 Fit       0.011630
 3301 Fit      -0.003350
 3302 Fit       0.001328
 3303 Fit       0.004354
 3304 Fit       0.006411
 3305 Fit       0.007945
 3306 Fit       0.009426
 3307 Fit       0.011630
 3308 Fit      -0.002884
 3309 Fit       0.001390
 3310 Fit       0.004181
 3311 Fit       0.006069
 3312 Fit       0.007461
 3313 Fit       0.008792
 3314 Fit      -0.001154
 3315 Fit       0.002369
 3316 Fit       0.004541
 3317 Fit       0.005867
 3318 Fit       0.006699
 3319 Fit       0.000362
 3320 Fit       0.002618
 -----------------------------------------------------------------
 Leave Link  602 at Thu Jan 16 22:37:17 2014, MaxMem=   235929600 cpu:         1.2

 Test job not archived.
 1\1\GINC-G54\SP\RHF\Gen\C7H7Br1N4\KOLAR\16-Jan-2014\0\\# hf/gen pop=mk
  iop(6/33=2,6/41=5,6/42=2)\\na resp\\0,1\N,0,-0.61159,-1.857155,-0.000
 184\C,0,-0.958512,-0.571778,-0.000129\N,0,0.140343,0.270335,-0.000181\
 C,0,1.236952,-0.558772,-0.000045\C,0,0.74951,-1.853697,-0.000131\C,0,-
 0.010531,1.649957,-0.00019\C,0,-1.289864,2.122308,-0.000132\N,0,-2.417
 961,1.35113,-0.000051\C,0,-2.26039,0.036025,-0.00005\N,0,-3.332768,-0.
 790355,-0.000323\C,0,-4.699647,-0.308198,0.000486\Br,0,2.985611,0.1070
 35,0.000129\H,0,-4.903788,0.303985,-0.885404\H,0,-5.370665,-1.169916,0
 .002183\H,0,-4.901851,0.306073,0.885351\H,0,-3.136805,-1.780828,0.0001
 14\H,0,1.330818,-2.765408,-0.000113\H,0,0.88796,2.250797,-0.00021\H,0,
 -1.453317,3.196318,-0.000103\\Version=AM64L-G09RevD.01\State=1-A\HF=-3
 056.5136656\RMSD=9.674e-09\Dipole=-0.1221417,0.073942,0.0008246\Quadru
 pole=4.1783703,0.3807451,-4.5591153,3.6645523,-0.0060216,-0.0017762\PG
 =C01 [X(C7H7Br1N4)]\\@


 QED = W**5 (WHICH WAS WHAT WE WANTED)
 Job cpu time:       0 days  0 hours  0 minutes 30.6 seconds.
 File lengths (MBytes):  RWF=     16 Int=      0 D2E=      0 Chk=      2 Scr=      1
 Normal termination of Gaussian 09 at Thu Jan 16 22:37:17 2014.
29.77user 0.85system 0:30.78elapsed 99%CPU (0avgtext+0avgdata 6160368maxresident)k
8inputs+33976outputs (0major+539472minor)pagefaults 0swaps
