Linux g28 2.6.38.6-client #1 SMP Tue Jun 12 11:27:21 CEST 2012 x86_64 GNU/Linux
Fri Jan 17 11:54:31 CET 2014

 Entering Gaussian System, Link 0=/usr/local/programs/common/gaussian/gaussian09_d01/arch/amd64-pgi_10.4.0-acml/g09/g09
 Initial command:
 /usr/local/programs/common/gaussian/gaussian09_d01/arch/amd64-pgi_10.4.0-acml/g09/l1.exe "/scratch/kolar/g09_20241/Gau-2757.inp" -scrdir="/scratch/kolar/g09_20241/"
 Entering Link 1 = /usr/local/programs/common/gaussian/gaussian09_d01/arch/amd64-pgi_10.4.0-acml/g09/l1.exe PID=      2766.
  
 Copyright (c) 1988,1990,1992,1993,1995,1998,2003,2009,2013,
            Gaussian, Inc.  All Rights Reserved.
  
 This is part of the Gaussian(R) 09 program.  It is based on
 the Gaussian(R) 03 system (copyright 2003, Gaussian, Inc.),
 the Gaussian(R) 98 system (copyright 1998, Gaussian, Inc.),
 the Gaussian(R) 94 system (copyright 1995, Gaussian, Inc.),
 the Gaussian 92(TM) system (copyright 1992, Gaussian, Inc.),
 the Gaussian 90(TM) system (copyright 1990, Gaussian, Inc.),
 the Gaussian 88(TM) system (copyright 1988, Gaussian, Inc.),
 the Gaussian 86(TM) system (copyright 1986, Carnegie Mellon
 University), and the Gaussian 82(TM) system (copyright 1983,
 Carnegie Mellon University). Gaussian is a federally registered
 trademark of Gaussian, Inc.
  
 This software contains proprietary and confidential information,
 including trade secrets, belonging to Gaussian, Inc.
  
 This software is provided under written license and may be
 used, copied, transmitted, or stored only in accord with that
 written license.
  
 The following legend is applicable only to US Government
 contracts under FAR:
  
                    RESTRICTED RIGHTS LEGEND
  
 Use, reproduction and disclosure by the US Government is
 subject to restrictions as set forth in subparagraphs (a)
 and (c) of the Commercial Computer Software - Restricted
 Rights clause in FAR 52.227-19.
  
 Gaussian, Inc.
 340 Quinnipiac St., Bldg. 40, Wallingford CT 06492
  
  
 ---------------------------------------------------------------
 Warning -- This program may not be used in any manner that
 competes with the business of Gaussian, Inc. or will provide
 assistance to any competitor of Gaussian, Inc.  The licensee
 of this program is prohibited from giving any competitor of
 Gaussian, Inc. access to this program.  By using this program,
 the user acknowledges that Gaussian, Inc. is engaged in the
 business of creating and licensing software in the field of
 computational chemistry and represents and warrants to the
 licensee that it is not a competitor of Gaussian, Inc. and that
 it will not use this program in any manner prohibited above.
 ---------------------------------------------------------------
  

 Cite this work as:
 Gaussian 09, Revision D.01,
 M. J. Frisch, G. W. Trucks, H. B. Schlegel, G. E. Scuseria, 
 M. A. Robb, J. R. Cheeseman, G. Scalmani, V. Barone, B. Mennucci, 
 G. A. Petersson, H. Nakatsuji, M. Caricato, X. Li, H. P. Hratchian, 
 A. F. Izmaylov, J. Bloino, G. Zheng, J. L. Sonnenberg, M. Hada, 
 M. Ehara, K. Toyota, R. Fukuda, J. Hasegawa, M. Ishida, T. Nakajima, 
 Y. Honda, O. Kitao, H. Nakai, T. Vreven, J. A. Montgomery, Jr., 
 J. E. Peralta, F. Ogliaro, M. Bearpark, J. J. Heyd, E. Brothers, 
 K. N. Kudin, V. N. Staroverov, T. Keith, R. Kobayashi, J. Normand, 
 K. Raghavachari, A. Rendell, J. C. Burant, S. S. Iyengar, J. Tomasi, 
 M. Cossi, N. Rega, J. M. Millam, M. Klene, J. E. Knox, J. B. Cross, 
 V. Bakken, C. Adamo, J. Jaramillo, R. Gomperts, R. E. Stratmann, 
 O. Yazyev, A. J. Austin, R. Cammi, C. Pomelli, J. W. Ochterski, 
 R. L. Martin, K. Morokuma, V. G. Zakrzewski, G. A. Voth, 
 P. Salvador, J. J. Dannenberg, S. Dapprich, A. D. Daniels, 
 O. Farkas, J. B. Foresman, J. V. Ortiz, J. Cioslowski, 
 and D. J. Fox, Gaussian, Inc., Wallingford CT, 2013.
 
 ******************************************
 Gaussian 09:  AM64L-G09RevD.01 24-Apr-2013
                17-Jan-2014 
 ******************************************
 %mem=1800mb
 ------------------------------------------------------------------
 # hf/gen pseudo=read pop=(mk, readradii) iop(6/33=2,6/41=5,6/42=2)
 ------------------------------------------------------------------
 1/38=1/1;
 2/12=2,17=6,18=5,40=1/2;
 3/5=7,11=9,16=1,17=8,25=1,30=1/1,2,3;
 4//1;
 5/5=2,38=5/2;
 6/7=2,8=2,9=2,10=2,15=8,20=101,28=1,33=2,41=5,42=2/1,2;
 99/5=1,9=1/99;
 -------
 na resp
 -------
 Symbolic Z-matrix:
 Charge =  0 Multiplicity = 1
 6                    -1.13339   2.87173   0.47213 
 6                     0.16483   2.36468   0.53967 
 6                     0.39831   0.99514   0.37933 
 6                    -0.687     0.13446   0.15768 
 6                    -1.97489   0.656     0.08198 
 6                    -2.21562   2.02157   0.23861 
 53                   -3.62144  -0.67387  -0.26739 
 6                     1.81369   0.4626    0.4016 
 1                     2.48933   1.25029   0.74585 
 6                     3.42359  -0.86271  -0.77328 
 1                     3.53375  -1.44078  -1.69906 
 6                     3.24369  -1.81394   0.43307 
 16                    2.04658  -0.99923   1.56966 
 6                     4.71334  -0.01481  -0.65524 
 8                     4.59673   1.21016  -1.19639 
 1                    -1.30773   3.93614   0.60173 
 1                     1.00073   3.03606   0.71754 
 1                    -0.51682  -0.93373   0.07559 
 1                    -3.22404   2.41714   0.18618 
 1                     2.83382  -2.77663   0.11791 
 1                     4.2044   -1.97592   0.92536 
 7                     2.26646   0.02788  -0.9224 
 1                     3.65611   1.28706  -1.48293 
 1                     1.50602  -0.44478  -1.40721 
 8                     5.73712  -0.42712  -0.16864 
 
                          Input orientation:                          
 ---------------------------------------------------------------------
 Center     Atomic      Atomic             Coordinates (Angstroms)
 Number     Number       Type             X           Y           Z
 ---------------------------------------------------------------------
      1          6           0       -1.133393    2.871734    0.472129
      2          6           0        0.164827    2.364682    0.539665
      3          6           0        0.398312    0.995143    0.379332
      4          6           0       -0.687001    0.134463    0.157679
      5          6           0       -1.974887    0.656004    0.081979
      6          6           0       -2.215620    2.021572    0.238613
      7         53           0       -3.621436   -0.673872   -0.267393
      8          6           0        1.813694    0.462600    0.401595
      9          1           0        2.489331    1.250287    0.745848
     10          6           0        3.423593   -0.862709   -0.773275
     11          1           0        3.533750   -1.440779   -1.699058
     12          6           0        3.243688   -1.813935    0.433070
     13         16           0        2.046577   -0.999225    1.569659
     14          6           0        4.713335   -0.014814   -0.655242
     15          8           0        4.596725    1.210164   -1.196385
     16          1           0       -1.307726    3.936144    0.601731
     17          1           0        1.000735    3.036056    0.717536
     18          1           0       -0.516822   -0.933728    0.075588
     19          1           0       -3.224038    2.417138    0.186181
     20          1           0        2.833815   -2.776632    0.117909
     21          1           0        4.204397   -1.975923    0.925358
     22          7           0        2.266459    0.027876   -0.922396
     23          1           0        3.656112    1.287063   -1.482927
     24          1           0        1.506023   -0.444777   -1.407212
     25          8           0        5.737123   -0.427118   -0.168639
 ---------------------------------------------------------------------
                    Distance matrix (angstroms):
                    1          2          3          4          5
     1  C    0.000000
     2  C    1.395363   0.000000
     3  C    2.424113   1.398520   0.000000
     4  C    2.791200   2.417726   1.402785   0.000000
     5  C    2.402038   2.776226   2.415680   1.391541   0.000000
     6  C    1.395894   2.423816   2.811761   2.429899   1.395443
     7  I    4.394152   4.921376   4.400254   3.073272   2.145170
     8  C    3.807128   2.521060   1.512417   2.533899   3.806955
     9  H    3.978460   2.586060   2.138175   3.417615   4.552267
    10  C    6.021895   4.770683   3.732619   4.331052   5.672877
    11  H    6.715210   5.553653   4.481561   4.872740   6.157408
    12  C    6.412165   5.191492   3.998746   4.395726   5.784236
    13  S    5.128460   3.989704   2.848010   3.278930   4.596210
    14  C    6.617201   5.270553   4.550800   5.463218   6.762086
    15  O    6.195079   4.897806   4.489520   5.559531   6.717692
    16  H    1.086350   2.154474   3.407274   3.877533   3.387413
    17  H    2.154467   1.086795   2.154674   3.403107   3.863018
    18  H    3.875428   3.399930   2.156449   1.084773   2.157138
    19  H    2.158523   3.407654   3.896254   3.412913   2.161673
    20  H    6.911458   5.808140   4.497366   4.568610   5.908290
    21  H    7.224763   5.942031   4.859183   5.382270   6.769186
    22  N    4.646636   3.466286   2.473878   3.146561   4.403672
    23  H    5.410433   4.176268   3.763839   4.783587   5.878377
    24  H    4.636560   3.671811   2.547966   2.755677   3.942860
    25  O    7.648333   6.272665   5.552117   6.456874   7.791730
                    6          7          8          9         10
     6  C    0.000000
     7  I    3.081847   0.000000
     8  C    4.323463   5.592830   0.000000
     9  H    4.794657   6.486179   1.093365   0.000000
    10  C    6.414337   7.065692   2.393436   2.765019   0.000000
    11  H    6.985535   7.337200   3.315748   3.782884   1.096984
    12  C    6.674801   6.994306   2.688584   3.171173   1.546760
    13  S    5.391032   5.967159   1.885614   2.436186   2.721057
    14  C    7.277105   8.369778   3.122939   2.917144   1.547996
    15  O    7.008969   8.482381   3.295095   2.866180   2.419104
    16  H    2.149817   5.230763   4.674273   4.653197   6.877864
    17  H    3.406389   6.008171   2.717241   2.325014   4.826295
    18  H    3.412666   3.134292   2.736296   3.775729   4.031437
    19  H    1.084495   3.149285   5.407898   5.858102   7.474554
    20  H    6.966644   6.800024   3.407895   4.090117   2.192065
    21  H    7.593958   8.022572   3.454878   3.658156   2.175834
    22  N    5.041012   5.965634   1.465242   2.080144   1.467766
    23  H    6.162827   7.634494   2.761461   2.515983   2.275784
    24  H    4.758387   5.257614   2.046895   2.911323   2.062430
    25  O    8.331150   9.362332   4.063257   3.768040   2.430585
                   11         12         13         14         15
    11  H    0.000000
    12  C    2.183884   0.000000
    13  S    3.618171   1.840832   0.000000
    14  C    2.124700   2.565370   3.609827   0.000000
    15  O    2.900016   3.692019   4.362987   1.344249   0.000000
    16  H    7.592419   7.335341   6.045337   7.310487   6.747350
    17  H    5.683146   5.351091   4.254808   4.997572   4.464092
    18  H    4.451247   3.878659   2.967752   5.360323   5.688809
    19  H    8.006582   7.732685   6.431557   8.344116   8.033219
    20  H    2.361309   1.092752   2.426210   3.428994   4.552995
    21  H    2.761106   1.091581   2.454638   2.569681   3.847969
    22  N    2.089540   2.486872   2.704371   2.461787   2.627359
    23  H    2.739125   3.668423   4.139565   1.870205   0.986292
    24  H    2.277909   2.877622   3.075934   3.322225   3.512224
    25  O    2.867846   2.915910   4.119359   1.206200   2.244429
                   16         17         18         19         20
    16  H    0.000000
    17  H    2.480436   0.000000
    18  H    4.961654   4.298170   0.000000
    19  H    2.480386   4.302802   4.309240   0.000000
    20  H    7.902392   6.124302   3.824246   7.979818   0.000000
    21  H    8.089547   5.952023   4.908991   8.661814   1.780900
    22  N    5.511109   3.652476   3.109229   6.089587   3.044568
    23  H    6.000260   3.866787   4.977375   7.169341   4.444375
    24  H    5.580816   4.109266   2.555322   5.753515   3.086515
    25  O    8.322345   5.933991   6.279182   9.408406   3.745867
                   21         22         23         24         25
    21  H    0.000000
    22  N    3.344400   0.000000
    23  H    4.092375   1.957264   0.000000
    24  H    3.881561   1.018190   2.761863   0.000000
    25  O    2.438212   3.580597   2.999396   4.408694   0.000000
 Stoichiometry    C10H10INO2S
 Framework group  C1[X(C10H10INO2S)]
 Deg. of freedom    69
 Full point group                 C1      NOp   1
 Largest Abelian subgroup         C1      NOp   1
 Largest concise Abelian subgroup C1      NOp   1
                         Standard orientation:                         
 ---------------------------------------------------------------------
 Center     Atomic      Atomic             Coordinates (Angstroms)
 Number     Number       Type             X           Y           Z
 ---------------------------------------------------------------------
      1          6           0       -1.133393    2.871734    0.472129
      2          6           0        0.164827    2.364682    0.539665
      3          6           0        0.398312    0.995143    0.379332
      4          6           0       -0.687001    0.134463    0.157679
      5          6           0       -1.974887    0.656004    0.081979
      6          6           0       -2.215620    2.021572    0.238613
      7         53           0       -3.621436   -0.673872   -0.267393
      8          6           0        1.813694    0.462600    0.401595
      9          1           0        2.489331    1.250287    0.745848
     10          6           0        3.423593   -0.862709   -0.773275
     11          1           0        3.533750   -1.440779   -1.699058
     12          6           0        3.243688   -1.813935    0.433070
     13         16           0        2.046577   -0.999225    1.569659
     14          6           0        4.713335   -0.014814   -0.655242
     15          8           0        4.596725    1.210164   -1.196385
     16          1           0       -1.307726    3.936144    0.601731
     17          1           0        1.000735    3.036056    0.717536
     18          1           0       -0.516822   -0.933728    0.075588
     19          1           0       -3.224038    2.417138    0.186181
     20          1           0        2.833815   -2.776632    0.117909
     21          1           0        4.204397   -1.975923    0.925358
     22          7           0        2.266459    0.027876   -0.922396
     23          1           0        3.656112    1.287063   -1.482927
     24          1           0        1.506023   -0.444777   -1.407212
     25          8           0        5.737123   -0.427118   -0.168639
 ---------------------------------------------------------------------
 Rotational constants (GHZ):      0.8376067      0.1386121      0.1284708
 General basis read from cards:  (5D, 7F)
 ======================================================================================================
                                       Pseudopotential Parameters
 ======================================================================================================
  Center     Atomic      Valence      Angular      Power
  Number     Number     Electrons     Momentum     of R      Exponent        Coefficient   SO-Coeffient
 ======================================================================================================
    1          6
                                   No pseudopotential on this center.
    2          6
                                   No pseudopotential on this center.
    3          6
                                   No pseudopotential on this center.
    4          6
                                   No pseudopotential on this center.
    5          6
                                   No pseudopotential on this center.
    6          6
                                   No pseudopotential on this center.
    7         53            7
                                      F and up 
                                                     0        1.0715702       -0.07476210    0.00000000
                                                     1       44.1936028      -30.08112240    0.00000000
                                                     2       12.9367609      -75.37227210    0.00000000
                                                     2        3.1956412      -22.05637580    0.00000000
                                                     2        0.8589806       -1.69795850    0.00000000
                                      S - F
                                                     0      127.9202670        2.93800360    0.00000000
                                                     1       78.6211465       41.24712670    0.00000000
                                                     2       36.5146237      287.86800950    0.00000000
                                                     2        9.9065681      114.37585060    0.00000000
                                                     2        1.9420086       37.65477140    0.00000000
                                      P - F
                                                     0       13.0035304        2.22226300    0.00000000
                                                     1       76.0331404       39.40908310    0.00000000
                                                     2       24.1961684      177.40750020    0.00000000
                                                     2        6.4053433       77.98894620    0.00000000
                                                     2        1.5851786       25.75476410    0.00000000
                                      D - F
                                                     0       40.4278108        7.05243600    0.00000000
                                                     1       28.9084375       33.30416350    0.00000000
                                                     2       15.6268936      186.94538750    0.00000000
                                                     2        4.1442856       71.96883610    0.00000000
                                                     2        0.9377235        9.36306570    0.00000000
    8          6
                                   No pseudopotential on this center.
    9          1
                                   No pseudopotential on this center.
   10          6
                                   No pseudopotential on this center.
   11          1
                                   No pseudopotential on this center.
   12          6
                                   No pseudopotential on this center.
   13         16
                                   No pseudopotential on this center.
   14          6
                                   No pseudopotential on this center.
   15          8
                                   No pseudopotential on this center.
   16          1
                                   No pseudopotential on this center.
   17          1
                                   No pseudopotential on this center.
   18          1
                                   No pseudopotential on this center.
   19          1
                                   No pseudopotential on this center.
   20          1
                                   No pseudopotential on this center.
   21          1
                                   No pseudopotential on this center.
   22          7
                                   No pseudopotential on this center.
   23          1
                                   No pseudopotential on this center.
   24          1
                                   No pseudopotential on this center.
   25          8
                                   No pseudopotential on this center.
 ======================================================================================================
 There are   242 symmetry adapted cartesian basis functions of A   symmetry.
 There are   228 symmetry adapted basis functions of A   symmetry.
   228 basis functions,   468 primitive gaussians,   242 cartesian basis functions
    58 alpha electrons       58 beta electrons
       nuclear repulsion energy      1041.3884810795 Hartrees.
 NAtoms=   25 NActive=   25 NUniq=   25 SFac= 1.00D+00 NAtFMM=   60 NAOKFM=F Big=F
 Integral buffers will be    131072 words long.
 Raffenetti 1 integral format.
 Two-electron integral symmetry is turned on.
 One-electron integrals computed using PRISM.
   1 Symmetry operations used in ECPInt.
 ECPInt:  NShTT=    3321 NPrTT=   21620 LenC2=    3063 LenP2D=   12395.
 LDataN:  DoStor=T MaxTD1= 5 Len=  102
 NBasis=   228 RedAO= T EigKep=  4.87D-04  NBF=   228
 NBsUse=   228 1.00D-06 EigRej= -1.00D+00 NBFU=   228
 ExpMin= 1.05D-01 ExpMax= 2.19D+04 ExpMxC= 3.30D+03 IAcc=1 IRadAn=         1 AccDes= 0.00D+00
 Harris functional with IExCor=  205 and IRadAn=       1 diagonalized for initial guess.
 HarFok:  IExCor=  205 AccDes= 0.00D+00 IRadAn=         1 IDoV= 1 UseB2=F ITyADJ=14
 ICtDFT=  3500011 ScaDFX=  1.000000  1.000000  1.000000  1.000000
 Defaulting to unpruned grid for atomic number  53.
 FoFCou: FMM=F IPFlag=           0 FMFlag=      100000 FMFlg1=           0
         NFxFlg=           0 DoJE=T BraDBF=F KetDBF=T FulRan=T
         wScrn=  0.000000 ICntrl=     500 IOpCl=  0 I1Cent=   200000004 NGrid=           0
         NMat0=    1 NMatS0=      1 NMatT0=    0 NMatD0=    1 NMtDS0=    0 NMtDT0=    0
 Petite list used in FoFCou.
 Requested convergence on RMS density matrix=1.00D-08 within 128 cycles.
 Requested convergence on MAX density matrix=1.00D-06.
 Requested convergence on             energy=1.00D-06.
 No special actions if energy rises.
 Integral accuracy reduced to 1.0D-05 until final iterations.
 Initial convergence to 1.0D-05 achieved.  Increase integral accuracy.
 SCF Done:  E(RHF) =  -997.340550927     A.U. after   16 cycles
            NFock= 16  Conv=0.41D-08     -V/T= 2.0088

 **********************************************************************

            Population analysis using the SCF density.

 **********************************************************************

 Orbital symmetries:
 BldTbl:  Degeneracy threshold= 1.00D-02
       Occupied  (A) (A) (A) (A) (A) (A) (A) (A) (A) (A) (A) (A)
                 (A) (A) (A) (A) (A) (A) (A) (A) (A) (A) (A) (A)
                 (A) (A) (A) (A) (A) (A) (A) (A) (A) (A) (A) (A)
                 (A) (A) (A) (A) (A) (A) (A) (A) (A) (A) (A) (A)
                 (A) (A) (A) (A) (A) (A) (A) (A) (A) (A)
       Virtual   (A) (A) (A) (A) (A) (A) (A) (A) (A) (A) (A) (A)
                 (A) (A) (A) (A) (A) (A) (A) (A) (A) (A) (A) (A)
                 (A) (A) (A) (A) (A) (A) (A) (A) (A) (A) (A) (A)
                 (A) (A) (A) (A) (A) (A) (A) (A) (A) (A) (A) (A)
                 (A) (A) (A) (A) (A) (A) (A) (A) (A) (A) (A) (A)
                 (A) (A) (A) (A) (A) (A) (A) (A) (A) (A) (A) (A)
                 (A) (A) (A) (A) (A) (A) (A) (A) (A) (A) (A) (A)
                 (A) (A) (A) (A) (A) (A) (A) (A) (A) (A) (A) (A)
                 (A) (A) (A) (A) (A) (A) (A) (A) (A) (A) (A) (A)
                 (A) (A) (A) (A) (A) (A) (A) (A) (A) (A) (A) (A)
                 (A) (A) (A) (A) (A) (A) (A) (A) (A) (A) (A) (A)
                 (A) (A) (A) (A) (A) (A) (A) (A) (A) (A) (A) (A)
                 (A) (A) (A) (A) (A) (A) (A) (A) (A) (A) (A) (A)
                 (A) (A) (A) (A) (A) (A) (A) (A) (A) (A) (A) (A)
                 (A) (A)
 The electronic state is 1-A.
 Alpha  occ. eigenvalues --  -91.94410 -20.61089 -20.55570 -15.60871 -11.39369
 Alpha  occ. eigenvalues --  -11.32632 -11.31165 -11.31132 -11.27701 -11.27606
 Alpha  occ. eigenvalues --  -11.26963 -11.26907 -11.26544 -11.26378  -8.95918
 Alpha  occ. eigenvalues --   -6.64096  -6.63989  -6.63765  -1.45943  -1.36462
 Alpha  occ. eigenvalues --   -1.27919  -1.18480  -1.08254  -1.05952  -1.04867
 Alpha  occ. eigenvalues --   -1.00468  -0.90751  -0.89947  -0.85991  -0.82661
 Alpha  occ. eigenvalues --   -0.81205  -0.80339  -0.73856  -0.72248  -0.70380
 Alpha  occ. eigenvalues --   -0.68094  -0.66095  -0.63731  -0.63046  -0.62353
 Alpha  occ. eigenvalues --   -0.61353  -0.58906  -0.58036  -0.57387  -0.55101
 Alpha  occ. eigenvalues --   -0.54513  -0.52956  -0.51023  -0.47891  -0.47152
 Alpha  occ. eigenvalues --   -0.46418  -0.44696  -0.41692  -0.40740  -0.37868
 Alpha  occ. eigenvalues --   -0.36696  -0.35029  -0.33754
 Alpha virt. eigenvalues --    0.09783   0.10072   0.10808   0.15582   0.16206
 Alpha virt. eigenvalues --    0.20975   0.21851   0.23064   0.25380   0.26239
 Alpha virt. eigenvalues --    0.28111   0.28966   0.29887   0.30323   0.31604
 Alpha virt. eigenvalues --    0.31693   0.32635   0.35744   0.38694   0.40744
 Alpha virt. eigenvalues --    0.42691   0.43876   0.44500   0.45092   0.46270
 Alpha virt. eigenvalues --    0.47799   0.50453   0.53441   0.53982   0.54374
 Alpha virt. eigenvalues --    0.54951   0.57005   0.58612   0.58989   0.61654
 Alpha virt. eigenvalues --    0.67622   0.69612   0.72140   0.72611   0.74004
 Alpha virt. eigenvalues --    0.75959   0.76981   0.77212   0.77699   0.79584
 Alpha virt. eigenvalues --    0.80570   0.81823   0.82174   0.82481   0.83865
 Alpha virt. eigenvalues --    0.85355   0.86691   0.88002   0.88572   0.89951
 Alpha virt. eigenvalues --    0.91814   0.92197   0.93182   0.96716   0.98188
 Alpha virt. eigenvalues --    0.99527   1.02043   1.03951   1.04675   1.07571
 Alpha virt. eigenvalues --    1.08392   1.09217   1.10359   1.10633   1.10938
 Alpha virt. eigenvalues --    1.12232   1.13045   1.14642   1.16081   1.17383
 Alpha virt. eigenvalues --    1.18754   1.19850   1.22316   1.23994   1.24188
 Alpha virt. eigenvalues --    1.25038   1.26294   1.28631   1.30867   1.31032
 Alpha virt. eigenvalues --    1.33206   1.34303   1.35862   1.37370   1.40486
 Alpha virt. eigenvalues --    1.41906   1.42238   1.44133   1.48089   1.49144
 Alpha virt. eigenvalues --    1.52545   1.56757   1.60431   1.61421   1.63833
 Alpha virt. eigenvalues --    1.66986   1.70819   1.72292   1.72918   1.73388
 Alpha virt. eigenvalues --    1.76047   1.80395   1.81631   1.89946   1.92455
 Alpha virt. eigenvalues --    1.95046   1.97186   1.99145   2.00945   2.02585
 Alpha virt. eigenvalues --    2.04430   2.08547   2.09499   2.09829   2.12499
 Alpha virt. eigenvalues --    2.14227   2.16508   2.17113   2.18548   2.20547
 Alpha virt. eigenvalues --    2.24572   2.26362   2.27305   2.32012   2.33222
 Alpha virt. eigenvalues --    2.35530   2.36231   2.38275   2.40869   2.41928
 Alpha virt. eigenvalues --    2.42811   2.44400   2.46320   2.51161   2.54731
 Alpha virt. eigenvalues --    2.57092   2.58233   2.60207   2.62103   2.63801
 Alpha virt. eigenvalues --    2.65542   2.69002   2.72380   2.77266   2.82567
 Alpha virt. eigenvalues --    2.83493   2.85772   2.88865   2.91872   2.96222
 Alpha virt. eigenvalues --    2.97325   3.00548   3.02311   3.05843   3.07157
 Alpha virt. eigenvalues --    3.08451   3.12075   3.15520   3.22566   3.27771
 Alpha virt. eigenvalues --    3.37745   3.40885   3.46509   3.71993  10.25966
          Condensed to atoms (all electrons):
               1          2          3          4          5          6
     1  C    4.919675   0.520560  -0.029100  -0.052163  -0.008732   0.515734
     2  C    0.520560   4.921005   0.547469  -0.015972  -0.062023  -0.022589
     3  C   -0.029100   0.547469   4.913489   0.498426  -0.002565  -0.044859
     4  C   -0.052163  -0.015972   0.498426   5.007257   0.449497  -0.014810
     5  C   -0.008732  -0.062023  -0.002565   0.449497   5.349783   0.461339
     6  C    0.515734  -0.022589  -0.044859  -0.014810   0.461339   4.944463
     7  I   -0.000006   0.001133  -0.000626  -0.058195   0.254564  -0.053780
     8  C    0.003482  -0.033959   0.304020  -0.052338   0.004073  -0.000102
     9  H    0.000151  -0.000392  -0.051699   0.003664  -0.000076   0.000007
    10  C    0.000001  -0.000060   0.004833   0.000018   0.000003   0.000000
    11  H    0.000000   0.000000  -0.000075   0.000001   0.000000   0.000000
    12  C    0.000000  -0.000047   0.002380   0.000079  -0.000002   0.000000
    13  S   -0.000059   0.001246  -0.064567  -0.007225   0.000483  -0.000045
    14  C    0.000000   0.000003  -0.000213  -0.000002   0.000000   0.000000
    15  O    0.000000  -0.000013   0.000073   0.000000   0.000000   0.000000
    16  H    0.383750  -0.029263   0.002333  -0.000020   0.003867  -0.032465
    17  H   -0.027445   0.379263  -0.032963   0.003557  -0.000463   0.003057
    18  H   -0.000045   0.002567  -0.030053   0.381205  -0.024342   0.002232
    19  H   -0.026831   0.002546   0.000078   0.002294  -0.027844   0.383447
    20  H    0.000000   0.000001   0.000132   0.000010   0.000000   0.000000
    21  H    0.000000   0.000000  -0.000091   0.000001   0.000000   0.000000
    22  N   -0.000060   0.000315  -0.039307  -0.003080   0.000083   0.000023
    23  H    0.000001   0.000102  -0.000223  -0.000009   0.000000   0.000000
    24  H   -0.000036   0.000458  -0.005154   0.005400   0.000068  -0.000013
    25  O    0.000000   0.000000  -0.000001   0.000000   0.000000   0.000000
               7          8          9         10         11         12
     1  C   -0.000006   0.003482   0.000151   0.000001   0.000000   0.000000
     2  C    0.001133  -0.033959  -0.000392  -0.000060   0.000000  -0.000047
     3  C   -0.000626   0.304020  -0.051699   0.004833  -0.000075   0.002380
     4  C   -0.058195  -0.052338   0.003664   0.000018   0.000001   0.000079
     5  C    0.254564   0.004073  -0.000076   0.000003   0.000000  -0.000002
     6  C   -0.053780  -0.000102   0.000007   0.000000   0.000000   0.000000
     7  I    6.656120  -0.000162   0.000003   0.000000   0.000000   0.000000
     8  C   -0.000162   5.197881   0.402659  -0.078592   0.005338  -0.020720
     9  H    0.000003   0.402659   0.504163  -0.002894  -0.000102  -0.000502
    10  C    0.000000  -0.078592  -0.002894   5.255932   0.394071   0.284702
    11  H    0.000000   0.005338  -0.000102   0.394071   0.450592  -0.024962
    12  C    0.000000  -0.020720  -0.000502   0.284702  -0.024962   5.397226
    13  S    0.000016   0.297151  -0.054502  -0.046682   0.002509   0.238517
    14  C    0.000000  -0.003621   0.002976   0.353037  -0.028051  -0.053962
    15  O    0.000000   0.000249   0.003975  -0.092419   0.001087   0.002253
    16  H   -0.000157  -0.000110  -0.000007   0.000000   0.000000   0.000000
    17  H    0.000019  -0.002553   0.003156  -0.000005   0.000000   0.000000
    18  H    0.000437  -0.003022   0.000095  -0.000051   0.000005  -0.000059
    19  H    0.000270   0.000004   0.000000   0.000000   0.000000   0.000000
    20  H    0.000000   0.001196  -0.000222  -0.031234  -0.004251   0.382381
    21  H    0.000000   0.000906   0.000450  -0.035666   0.001140   0.379952
    22  N    0.000002   0.188875  -0.045051   0.230673  -0.032918  -0.078483
    23  H    0.000000  -0.001237  -0.001195  -0.004526   0.000133   0.001125
    24  H    0.000005  -0.033045   0.003721  -0.030582  -0.005231   0.000090
    25  O    0.000000  -0.000035  -0.000235  -0.078407   0.000419  -0.001353
              13         14         15         16         17         18
     1  C   -0.000059   0.000000   0.000000   0.383750  -0.027445  -0.000045
     2  C    0.001246   0.000003  -0.000013  -0.029263   0.379263   0.002567
     3  C   -0.064567  -0.000213   0.000073   0.002333  -0.032963  -0.030053
     4  C   -0.007225  -0.000002   0.000000  -0.000020   0.003557   0.381205
     5  C    0.000483   0.000000   0.000000   0.003867  -0.000463  -0.024342
     6  C   -0.000045   0.000000   0.000000  -0.032465   0.003057   0.002232
     7  I    0.000016   0.000000   0.000000  -0.000157   0.000019   0.000437
     8  C    0.297151  -0.003621   0.000249  -0.000110  -0.002553  -0.003022
     9  H   -0.054502   0.002976   0.003975  -0.000007   0.003156   0.000095
    10  C   -0.046682   0.353037  -0.092419   0.000000  -0.000005  -0.000051
    11  H    0.002509  -0.028051   0.001087   0.000000   0.000000   0.000005
    12  C    0.238517  -0.053962   0.002253   0.000000   0.000000  -0.000059
    13  S   15.648274  -0.001140  -0.000099   0.000003  -0.000019   0.000478
    14  C   -0.001140   4.086505   0.268717   0.000000  -0.000002   0.000002
    15  O   -0.000099   0.268717   8.417898   0.000000   0.000001   0.000000
    16  H    0.000003   0.000000   0.000000   0.451923  -0.001451   0.000007
    17  H   -0.000019  -0.000002   0.000001  -0.001451   0.451460  -0.000088
    18  H    0.000478   0.000002   0.000000   0.000007  -0.000088   0.422896
    19  H    0.000000   0.000000   0.000000  -0.001643  -0.000084  -0.000075
    20  H   -0.050102   0.002917  -0.000043   0.000000   0.000000   0.000039
    21  H   -0.033298  -0.000841   0.000292   0.000000   0.000000   0.000001
    22  N   -0.076530  -0.054515  -0.017022   0.000001   0.000083   0.001071
    23  H    0.000415  -0.028773   0.241607   0.000000   0.000007  -0.000002
    24  H    0.003262   0.003684   0.000101   0.000000   0.000003   0.000997
    25  O    0.000864   0.601854  -0.062323   0.000000   0.000000   0.000000
              19         20         21         22         23         24
     1  C   -0.026831   0.000000   0.000000  -0.000060   0.000001  -0.000036
     2  C    0.002546   0.000001   0.000000   0.000315   0.000102   0.000458
     3  C    0.000078   0.000132  -0.000091  -0.039307  -0.000223  -0.005154
     4  C    0.002294   0.000010   0.000001  -0.003080  -0.000009   0.005400
     5  C   -0.027844   0.000000   0.000000   0.000083   0.000000   0.000068
     6  C    0.383447   0.000000   0.000000   0.000023   0.000000  -0.000013
     7  I    0.000270   0.000000   0.000000   0.000002   0.000000   0.000005
     8  C    0.000004   0.001196   0.000906   0.188875  -0.001237  -0.033045
     9  H    0.000000  -0.000222   0.000450  -0.045051  -0.001195   0.003721
    10  C    0.000000  -0.031234  -0.035666   0.230673  -0.004526  -0.030582
    11  H    0.000000  -0.004251   0.001140  -0.032918   0.000133  -0.005231
    12  C    0.000000   0.382381   0.379952  -0.078483   0.001125   0.000090
    13  S    0.000000  -0.050102  -0.033298  -0.076530   0.000415   0.003262
    14  C    0.000000   0.002917  -0.000841  -0.054515  -0.028773   0.003684
    15  O    0.000000  -0.000043   0.000292  -0.017022   0.241607   0.000101
    16  H   -0.001643   0.000000   0.000000   0.000001   0.000000   0.000000
    17  H   -0.000084   0.000000   0.000000   0.000083   0.000007   0.000003
    18  H   -0.000075   0.000039   0.000001   0.001071  -0.000002   0.000997
    19  H    0.434424   0.000000   0.000000   0.000000   0.000000   0.000000
    20  H    0.000000   0.517381  -0.029151   0.001959  -0.000021   0.000100
    21  H    0.000000  -0.029151   0.442682   0.003005  -0.000039  -0.000028
    22  N    0.000000   0.001959   0.003005   7.320228   0.031065   0.327715
    23  H    0.000000  -0.000021  -0.000039   0.031065   0.241722   0.000082
    24  H    0.000000   0.000100  -0.000028   0.327715   0.000082   0.343221
    25  O    0.000000  -0.000015   0.008653   0.001667   0.002609  -0.000052
              25
     1  C    0.000000
     2  C    0.000000
     3  C   -0.000001
     4  C    0.000000
     5  C    0.000000
     6  C    0.000000
     7  I    0.000000
     8  C   -0.000035
     9  H   -0.000235
    10  C   -0.078407
    11  H    0.000419
    12  C   -0.001353
    13  S    0.000864
    14  C    0.601854
    15  O   -0.062323
    16  H    0.000000
    17  H    0.000000
    18  H    0.000000
    19  H    0.000000
    20  H   -0.000015
    21  H    0.008653
    22  N    0.001667
    23  H    0.002609
    24  H   -0.000052
    25  O    8.090364
 Mulliken charges:
               1
     1  C   -0.198879
     2  C   -0.212349
     3  C    0.028264
     4  C   -0.147593
     5  C   -0.397710
     6  C   -0.141637
     7  I    0.200357
     8  C   -0.176339
     9  H    0.231857
    10  C   -0.122152
    11  H    0.240296
    12  C   -0.508616
    13  S    0.141050
    14  C    0.851425
    15  O   -0.764333
    16  H    0.223234
    17  H    0.224469
    18  H    0.245706
    19  H    0.233415
    20  H    0.208922
    21  H    0.262030
    22  N   -0.759797
    23  H    0.517156
    24  H    0.385233
    25  O   -0.564009
 Sum of Mulliken charges =   0.00000
 Mulliken charges with hydrogens summed into heavy atoms:
               1
     1  C    0.024355
     2  C    0.012121
     3  C    0.028264
     4  C    0.098113
     5  C   -0.397710
     6  C    0.091778
     7  I    0.200357
     8  C    0.055517
    10  C    0.118144
    12  C   -0.037664
    13  S    0.141050
    14  C    0.851425
    15  O   -0.247177
    22  N   -0.374564
    25  O   -0.564009
 DipInt: DoE/N= T F RetVal/Mat= T F Init=T NMatP=  1 IDeriv=0 Min/MaxMlt=  0  4
 Entering OneElI...
 OneElI was handed   235777134 working-precision words.
 Multipole integrals L=0 to 4 MinM= 0 MaxM= 0.
 Requested accuracy = 0.1000D-12
 ShPair: Thresh= 1.00D-13 NBox=     0 BxSize= 0.00D+00 RnKept= 1.78D+01
         NSMCal=                 3321 NSMKep=                2860
 PrsmSu:  NPrtUS=   1 ThrOK=F IAlg=1 NPAlg=1 LenDen=           0.
 Prism:   IPart=     0 DynPar=F LinDyn=F Incr=          28.
 PRISM was handed   235513326 working-precision words and  2860 shell-pairs
 IPart=  0 NShTot=        2860 NBatch=         113 AvBLen=        25.3
 PrSmSu:  NxtVal=             29.
 Electronic moments (au):
       -116.00000000       -316.23321192        -58.34361945        -24.03369542
      -3865.27590284       -867.48200064       -368.46774377        394.95561689
        156.34386807         34.14014283     -23208.88212075      -2125.51564001
       -274.03784652       -667.16376730        772.44567849       2080.65321722
      -1442.22663464        112.52978914       -557.86865572        861.44616168
    -270086.81980464     -18874.08138757      -3201.81091986       8653.19479822
      20023.02445727       7195.72354016      -1489.31245833        -67.54432422
        885.57422333     -17773.51498896     -11373.37892996      -2200.98243168
       3955.85167222        581.49587897        767.83159559
 Electronic spatial extent (au):  <R**2>=           5101.2256
 DipInt: DoE/N= F T RetVal/Mat= T F Init=T NMatP=  1 IDeriv=0 Min/MaxMlt=  0  4
 Nuclear    moments (au):
        116.00000000        314.80201888         58.57791175         23.24376542
       3755.07119450        794.72225689        284.61983936       -400.87923654
       -159.06898510        -29.59933699      22510.90484867       2086.36835818
        214.51225025        559.55757538       -820.86848238      -2096.97864302
       1352.95589158       -142.64344407        552.59773640       -848.69376868
     249147.48726167      15945.34161583       1807.42349560      -8343.73118130
     -19765.84855824      -6865.72413566       1577.04423702         84.91275268
       -856.32654695      14668.70921327       8416.01837656       1415.09065467
      -3803.33651436       -521.75839307       -626.45854159
 Total      moments (au):
          0.00000000         -1.43119304          0.23429231         -0.78993000
       -110.20470834        -72.75974375        -83.84790441         -5.92361965
         -2.72511703          4.54080584       -697.97727208        -39.14728183
        -59.52559627       -107.60619192        -48.42280389        -16.32542580
        -89.27074306        -30.11365494         -5.27091933         12.75239299
     -20939.33254297      -2928.73977174      -1394.38742426        309.46361691
        257.17589903        329.99940449         87.73177869         17.36842845
         29.24767637      -3104.80577570      -2957.36055341       -785.89177701
        152.51515786         59.73748590        141.37305400
 Traceless Quadrup. (au):
        -21.26725617         16.17770841          5.08954776         -5.92361965
         -2.72511703          4.54080584
 Charge=              0.0000 electrons
 Dipole moment (field-independent basis, Debye):
    X=             -3.6377    Y=              0.5955    Z=             -2.0078  Tot=              4.1975
 Quadrupole moment (field-independent basis, Debye-Ang):
   XX=           -148.2291   YY=            -97.8643   ZZ=           -112.7783
   XY=             -7.9675   XZ=             -3.6654   YZ=              6.1075
 Traceless Quadrupole moment (field-independent basis, Debye-Ang):
   XX=            -28.6052   YY=             21.7596   ZZ=              6.8456
   XY=             -7.9675   XZ=             -3.6654   YZ=              6.1075
 Octapole moment (field-independent basis, Debye-Ang**2):
  XXX=           -496.7933  YYY=            -27.8635  ZZZ=            -42.3680  XYY=            -76.5899
  XXY=            -34.4655  XXZ=            -11.6198  XZZ=            -63.5395  YZZ=            -21.4337
  YYZ=             -3.7516  XYZ=              9.0767
 Hexadecapole moment (field-independent basis, Debye-Ang**3):
 XXXX=          -7886.7562 YYYY=          -1103.1038 ZZZZ=           -525.1931 XXXY=            116.5588
 XXXZ=             96.8648 YYYX=            124.2936 YYYZ=             33.0440 ZZZX=              6.5418
 ZZZY=             11.0161 XXYY=          -1169.4187 XXZZ=          -1113.8837 YYZZ=           -296.0045
 XXYZ=             57.4445 YYXZ=             22.5000 ZZXY=             53.2479
 N-N= 1.041388481080D+03 E-N=-4.427727150095D+03  KE= 9.885962538375D+02
 Entering OneElI...
 OneElI was handed   235812264 working-precision words.
 Calculate electrostatic properties
    NBasis =   228  MinDer = 0  MaxDer = 0
    NGrid  =    25  NMatD  =   1
 Requested accuracy = 0.1000D-12
 ShPair: Thresh= 1.00D-13 NBox=     0 BxSize= 0.00D+00 RnKept= 1.77D+01
         NSMCal=                 3321 NSMKep=                2619
 PrsmSu:  NPrtUS=   1 ThrOK=F IAlg=1 NPAlg=1 LenDen=           0.
 Prism:   IPart=     0 DynPar=F LinDyn=F Incr=         512.
 PRISM was handed   235571723 working-precision words and  2619 shell-pairs
 IPart=  0 NShTot=       65475 NBatch=        2698 AvBLen=        24.3
 PrSmSu:  NxtVal=            513.
 --------------------------------------------------------
       Center         ----      EFG at Nuclei      ----
                      3XX-RR        3YY-RR        3ZZ-RR
 --------------------------------------------------------
     1   Atom        0.182628      0.139579     -0.322207
     2   Atom        0.170395      0.150933     -0.321328
     3   Atom        0.079805      0.188140     -0.267944
     4   Atom        0.135736      0.167269     -0.303005
     5   Atom       -0.009700      0.120394     -0.110694
     6   Atom        0.182009      0.130373     -0.312382
     7   Atom       -0.034464     -0.007568      0.042032
     8   Atom        0.172946      0.016772     -0.189719
     9   Atom       -0.023886     -0.076911      0.100798
    10   Atom       -0.103795     -0.012346      0.116140
    11   Atom        0.133366      0.024459     -0.157825
    12   Atom        0.052611      0.045001     -0.097612
    13   Atom        0.833427     -1.087731      0.254304
    14   Atom        0.373462     -0.000189     -0.373272
    15   Atom       -0.229746     -0.420512      0.650258
    16   Atom        0.130687     -0.289090      0.158403
    17   Atom       -0.124498     -0.028975      0.153473
    18   Atom        0.127626     -0.289823      0.162197
    19   Atom       -0.245637      0.081129      0.164508
    20   Atom        0.087276     -0.191610      0.104334
    21   Atom       -0.183608      0.134963      0.048646
    22   Atom       -0.380504      0.498469     -0.117965
    23   Atom       -0.293503      0.149647      0.143857
    24   Atom       -0.138711      0.073586      0.065125
    25   Atom       -0.244607      1.037261     -0.792654
 --------------------------------------------------------
                        XY            XZ            YZ
 --------------------------------------------------------
     1   Atom       -0.008086      0.054463      0.063907
     2   Atom       -0.035460      0.048864      0.066463
     3   Atom        0.032955      0.016794      0.067040
     4   Atom        0.010163      0.051955      0.046384
     5   Atom       -0.307710     -0.026020     -0.002698
     6   Atom        0.013040      0.055790      0.063649
     7   Atom       -0.062870     -0.016732     -0.013903
     8   Atom        0.066641      0.070745      0.117915
     9   Atom       -0.184743     -0.077918     -0.102080
    10   Atom        0.113842     -0.022473      0.044944
    11   Atom        0.023133      0.033438     -0.190648
    12   Atom        0.081298      0.200064     -0.040033
    13   Atom        2.070275      1.147716      0.775317
    14   Atom        0.090109      0.237172     -0.187243
    15   Atom        0.576686     -0.622995      0.831285
    16   Atom        0.071056      0.006149     -0.055549
    17   Atom       -0.211014     -0.058821     -0.048286
    18   Atom        0.067476      0.006645     -0.039900
    19   Atom        0.153285     -0.022711      0.004583
    20   Atom       -0.149523     -0.045612     -0.112645
    21   Atom        0.059726     -0.173337      0.032734
    22   Atom        0.390130     -0.168437     -0.664753
    23   Atom        0.056106     -0.161465      0.035883
    24   Atom       -0.184313     -0.191227     -0.151472
    25   Atom        1.025273     -0.222468     -0.503370
 --------------------------------------------------------


 ---------------------------------------------------------------------------------
              Nuclear Quadrupole Coupling Constant in Principal Axis System
 ---------------------------------------------------------------------------------

       Atom             a.u.   MegaHertz   Gauss  10(-4) cm-1        Axes

              Baa    -0.0889   -14.834    -5.293    -4.948  0.7668  0.6206  0.1639
     7 I(127) Bbb     0.0432     7.214     2.574     2.406 -0.6397  0.7598  0.1162
              Bcc     0.0457     7.620     2.719     2.542 -0.0524 -0.1939  0.9796
 
              Baa    -0.5914     2.840     1.013     0.947 -0.5760  0.5660  0.5898
    22 N(14)  Bbb    -0.4552     2.186     0.780     0.729  0.7670  0.1249  0.6293
              Bcc     1.0465    -5.026    -1.793    -1.677  0.2825  0.8149 -0.5061
 

 ---------------------------------------------------------------------------------

 No NMR shielding tensors so no spin-rotation constants.
 Leave Link  601 at Fri Jan 17 11:57:31 2014, MaxMem=   235929600 cpu:         0.3
 FitSet:  NAtFit=    25 NAtPot=    25 NAtFrz=     0 MDM=    29 TotChg=   0.00000
 Merz-Kollman atomic radii used.
 Read replacement radii for each type of atom:
 Rad(53) =   2.700000000000D+00
 Atom Element Radius
    1     6    1.50
    2     6    1.50
    3     6    1.50
    4     6    1.50
    5     6    1.50
    6     6    1.50
    7    53    2.70
    8     6    1.50
    9     1    1.20
   10     6    1.50
   11     1    1.20
   12     6    1.50
   13    16    1.75
   14     6    1.50
   15     8    1.40
   16     1    1.20
   17     1    1.20
   18     1    1.20
   19     1    1.20
   20     1    1.20
   21     1    1.20
   22     7    1.50
   23     1    1.20
   24     1    1.20
   25     8    1.40
 Generate VDW surfaces: Layer= 5 Dens= 2 Start= 1.400 Inc= 0.179

 **********************************************************************

            Electrostatic Properties Using The SCF Density

 **********************************************************************

       Atomic Center    1 is at  -1.133393  2.871734  0.472129
       Atomic Center    2 is at   0.164827  2.364682  0.539665
       Atomic Center    3 is at   0.398312  0.995143  0.379332
       Atomic Center    4 is at  -0.687001  0.134463  0.157679
       Atomic Center    5 is at  -1.974887  0.656004  0.081979
       Atomic Center    6 is at  -2.215620  2.021572  0.238613
       Atomic Center    7 is at  -3.621436 -0.673872 -0.267393
       Atomic Center    8 is at   1.813694  0.462600  0.401595
       Atomic Center    9 is at   2.489331  1.250287  0.745848
       Atomic Center   10 is at   3.423593 -0.862709 -0.773275
       Atomic Center   11 is at   3.533750 -1.440779 -1.699058
       Atomic Center   12 is at   3.243688 -1.813935  0.433070
       Atomic Center   13 is at   2.046577 -0.999225  1.569659
       Atomic Center   14 is at   4.713335 -0.014814 -0.655242
       Atomic Center   15 is at   4.596725  1.210164 -1.196385
       Atomic Center   16 is at  -1.307726  3.936144  0.601731
       Atomic Center   17 is at   1.000735  3.036056  0.717536
       Atomic Center   18 is at  -0.516822 -0.933728  0.075588
       Atomic Center   19 is at  -3.224038  2.417138  0.186181
       Atomic Center   20 is at   2.833815 -2.776632  0.117909
       Atomic Center   21 is at   4.204397 -1.975923  0.925358
       Atomic Center   22 is at   2.266459  0.027876 -0.922396
       Atomic Center   23 is at   3.656112  1.287063 -1.482927
       Atomic Center   24 is at   1.506023 -0.444777 -1.407212
       Atomic Center   25 is at   5.737123 -0.427118 -0.168639
      ESP Fit Center   26 is at  -1.133393  2.871734  2.572129
      ESP Fit Center   27 is at  -0.774272  3.493750  2.445484
      ESP Fit Center   28 is at  -1.492514  3.493750  2.445484
      ESP Fit Center   29 is at  -1.851635  2.871734  2.445484
      ESP Fit Center   30 is at  -1.492514  2.249718  2.445484
      ESP Fit Center   31 is at  -0.774272  2.249718  2.445484
      ESP Fit Center   32 is at  -2.428568  3.252032  2.080822
      ESP Fit Center   33 is at  -1.325497  1.535620  2.080822
      ESP Fit Center   34 is at   0.083524  4.223257  1.522129
      ESP Fit Center   35 is at   0.083524  4.223257 -0.577871
      ESP Fit Center   36 is at  -2.604714  3.940712 -0.577871
      ESP Fit Center   37 is at  -0.572643  4.099605 -1.136564
      ESP Fit Center   38 is at  -1.325497  4.207849 -1.136564
      ESP Fit Center   39 is at  -2.017359  3.891886 -1.136564
      ESP Fit Center   40 is at  -0.415150  2.871734 -1.501225
      ESP Fit Center   41 is at  -0.774272  3.493750 -1.501225
      ESP Fit Center   42 is at  -1.492514  3.493750 -1.501225
      ESP Fit Center   43 is at  -0.774272  2.249718 -1.501225
      ESP Fit Center   44 is at  -1.133393  2.871734 -1.627871
      ESP Fit Center   45 is at   0.164827  2.364682  2.639665
      ESP Fit Center   46 is at   0.883070  2.364682  2.513020
      ESP Fit Center   47 is at   0.523948  2.986698  2.513020
      ESP Fit Center   48 is at  -0.194294  2.986698  2.513020
      ESP Fit Center   49 is at  -0.553415  2.364682  2.513020
      ESP Fit Center   50 is at  -0.194294  1.742666  2.513020
      ESP Fit Center   51 is at   0.523948  1.742666  2.513020
      ESP Fit Center   52 is at  -0.027277  3.700797  2.148358
      ESP Fit Center   53 is at  -0.719139  1.344531  2.148358
      ESP Fit Center   54 is at   1.983481  2.364682 -0.510335
      ESP Fit Center   55 is at   1.514681  2.364682 -1.069028
      ESP Fit Center   56 is at   1.300397  3.094468 -1.069028
      ESP Fit Center   57 is at   0.725577  3.592553 -1.069028
      ESP Fit Center   58 is at   0.883070  2.364682 -1.433689
      ESP Fit Center   59 is at   0.523948  2.986698 -1.433689
      ESP Fit Center   60 is at  -0.194294  2.986698 -1.433689
      ESP Fit Center   61 is at   0.164827  2.364682 -1.560335
      ESP Fit Center   62 is at   0.398312  0.995143  2.479332
      ESP Fit Center   63 is at  -0.319930  0.995143  2.352687
      ESP Fit Center   64 is at   0.039191  0.373127  2.352687
      ESP Fit Center   65 is at   0.757433  1.617159 -1.594022
      ESP Fit Center   66 is at   0.039191  1.617159 -1.594022
      ESP Fit Center   67 is at   0.398312  0.995143 -1.720668
      ESP Fit Center   68 is at  -0.687001  0.134463  2.257679
      ESP Fit Center   69 is at  -1.046122  0.756479  2.131034
      ESP Fit Center   70 is at  -0.327880 -0.487553  2.131034
      ESP Fit Center   71 is at  -0.327880  0.756479 -1.815675
      ESP Fit Center   72 is at  -2.215620  2.021572  2.338613
      ESP Fit Center   73 is at  -2.574741  2.643588  2.211968
      ESP Fit Center   74 is at  -3.099586  3.041724  1.847306
      ESP Fit Center   75 is at  -2.407724  3.357687 -1.370080
      ESP Fit Center   76 is at  -3.099586  3.041724 -1.370080
      ESP Fit Center   77 is at  -1.856499  2.643588 -1.734741
      ESP Fit Center   78 is at  -3.621436 -0.673872  3.512607
      ESP Fit Center   79 is at  -2.883995 -0.673872  3.439976
      ESP Fit Center   80 is at  -3.252715 -0.035229  3.439976
      ESP Fit Center   81 is at  -3.990157 -0.035229  3.439976
      ESP Fit Center   82 is at  -4.358877 -0.673872  3.439976
      ESP Fit Center   83 is at  -3.990157 -1.312515  3.439976
      ESP Fit Center   84 is at  -3.252715 -1.312515  3.439976
      ESP Fit Center   85 is at  -2.174893 -0.673872  3.224872
      ESP Fit Center   86 is at  -2.368693  0.049400  3.224872
      ESP Fit Center   87 is at  -2.898164  0.578872  3.224872
      ESP Fit Center   88 is at  -3.621436  0.772672  3.224872
      ESP Fit Center   89 is at  -4.344708  0.578872  3.224872
      ESP Fit Center   90 is at  -4.874179  0.049400  3.224872
      ESP Fit Center   91 is at  -5.067979 -0.673872  3.224872
      ESP Fit Center   92 is at  -4.874179 -1.397143  3.224872
      ESP Fit Center   93 is at  -4.344708 -1.926615  3.224872
      ESP Fit Center   94 is at  -3.621436 -2.120415  3.224872
      ESP Fit Center   95 is at  -2.898164 -1.926615  3.224872
      ESP Fit Center   96 is at  -2.368693 -1.397143  3.224872
      ESP Fit Center   97 is at  -1.521380 -0.673872  2.875562
      ESP Fit Center   98 is at  -1.648029  0.044390  2.875562
      ESP Fit Center   99 is at  -2.012700  0.676018  2.875562
      ESP Fit Center  100 is at  -2.571408  1.144830  2.875562
      ESP Fit Center  101 is at  -3.256765  1.394279  2.875562
      ESP Fit Center  102 is at  -3.986107  1.394279  2.875562
      ESP Fit Center  103 is at  -4.671464  1.144830  2.875562
      ESP Fit Center  104 is at  -5.230172  0.676018  2.875562
      ESP Fit Center  105 is at  -5.594843  0.044390  2.875562
      ESP Fit Center  106 is at  -5.721491 -0.673872  2.875562
      ESP Fit Center  107 is at  -5.594843 -1.392133  2.875562
      ESP Fit Center  108 is at  -5.230172 -2.023761  2.875562
      ESP Fit Center  109 is at  -4.671464 -2.492573  2.875562
      ESP Fit Center  110 is at  -3.986107 -2.742023  2.875562
      ESP Fit Center  111 is at  -3.256765 -2.742023  2.875562
      ESP Fit Center  112 is at  -2.571408 -2.492573  2.875562
      ESP Fit Center  113 is at  -2.012700 -2.023761  2.875562
      ESP Fit Center  114 is at  -1.648029 -1.392133  2.875562
      ESP Fit Center  115 is at  -0.948572 -0.673872  2.405471
      ESP Fit Center  116 is at  -1.047689  0.047258  2.405471
      ESP Fit Center  117 is at  -1.337689  0.714905  2.405471
      ESP Fit Center  118 is at  -1.797064  1.279553  2.405471
      ESP Fit Center  119 is at  -2.391745  1.699324  2.405471
      ESP Fit Center  120 is at  -3.077626  1.943087  2.405471
      ESP Fit Center  121 is at  -3.803839  1.992761  2.405471
      ESP Fit Center  122 is at  -4.516523  1.844663  2.405471
      ESP Fit Center  123 is at  -5.162824  1.509777  2.405471
      ESP Fit Center  124 is at  -5.694806  1.012940  2.405471
      ESP Fit Center  125 is at  -6.073017  0.391000  2.405471
      ESP Fit Center  126 is at  -6.269404 -0.309917  2.405471
      ESP Fit Center  127 is at  -6.269404 -1.037827  2.405471
      ESP Fit Center  128 is at  -6.073017 -1.738743  2.405471
      ESP Fit Center  129 is at  -5.694806 -2.360684  2.405471
      ESP Fit Center  130 is at  -5.162824 -2.857521  2.405471
      ESP Fit Center  131 is at  -4.516523 -3.192407  2.405471
      ESP Fit Center  132 is at  -3.803839 -3.340504  2.405471
      ESP Fit Center  133 is at  -3.077626 -3.290830  2.405471
      ESP Fit Center  134 is at  -2.391745 -3.047068  2.405471
      ESP Fit Center  135 is at  -1.797064 -2.627297  2.405471
      ESP Fit Center  136 is at  -1.337689 -2.062649  2.405471
      ESP Fit Center  137 is at  -1.047689 -1.395002  2.405471
      ESP Fit Center  138 is at  -3.804183  2.463766  1.832663
      ESP Fit Center  139 is at  -4.522846  2.337046  1.832663
      ESP Fit Center  140 is at  -5.192914  2.048007  1.832663
      ESP Fit Center  141 is at  -5.778263  1.612231  1.832663
      ESP Fit Center  142 is at  -6.247337  1.053210  1.832663
      ESP Fit Center  143 is at  -6.574848  0.401082  1.832663
      ESP Fit Center  144 is at  -6.743140 -0.308997  1.832663
      ESP Fit Center  145 is at  -6.743140 -1.038746  1.832663
      ESP Fit Center  146 is at  -6.574848 -1.748826  1.832663
      ESP Fit Center  147 is at  -6.247337 -2.400954  1.832663
      ESP Fit Center  148 is at  -5.778263 -2.959974  1.832663
      ESP Fit Center  149 is at  -5.192914 -3.395751  1.832663
      ESP Fit Center  150 is at  -4.522846 -3.684790  1.832663
      ESP Fit Center  151 is at  -3.804183 -3.811509  1.832663
      ESP Fit Center  152 is at  -3.075668 -3.769078  1.832663
      ESP Fit Center  153 is at  -2.376575 -3.559784  1.832663
      ESP Fit Center  154 is at  -1.744593 -3.194909  1.832663
      ESP Fit Center  155 is at  -1.213793 -2.694124  1.832663
      ESP Fit Center  156 is at  -0.812789 -2.084427  1.832663
      ESP Fit Center  157 is at  -0.563200 -1.398687  1.832663
      ESP Fit Center  158 is at  -4.700605  2.647469  1.179151
      ESP Fit Center  159 is at  -5.367568  2.350518  1.179151
      ESP Fit Center  160 is at  -5.958217  1.921387  1.179151
      ESP Fit Center  161 is at  -6.446737  1.378830  1.179151
      ESP Fit Center  162 is at  -6.811778  0.746560  1.179151
      ESP Fit Center  163 is at  -7.037386  0.052211  1.179151
      ESP Fit Center  164 is at  -7.113701 -0.673872  1.179151
      ESP Fit Center  165 is at  -7.037386 -1.399954  1.179151
      ESP Fit Center  166 is at  -6.811778 -2.094304  1.179151
      ESP Fit Center  167 is at  -6.446737 -2.726573  1.179151
      ESP Fit Center  168 is at  -5.958217 -3.269130  1.179151
      ESP Fit Center  169 is at  -5.367568 -3.698262  1.179151
      ESP Fit Center  170 is at  -4.700605 -3.995213  1.179151
      ESP Fit Center  171 is at  -3.986477 -4.147005  1.179151
      ESP Fit Center  172 is at  -3.256395 -4.147005  1.179151
      ESP Fit Center  173 is at  -2.542267 -3.995213  1.179151
      ESP Fit Center  174 is at  -1.875304 -3.698262  1.179151
      ESP Fit Center  175 is at  -1.284655 -3.269130  1.179151
      ESP Fit Center  176 is at  -0.796135 -2.726573  1.179151
      ESP Fit Center  177 is at  -5.040184  2.751290  0.470049
      ESP Fit Center  178 is at  -5.681139  2.408692  0.470049
      ESP Fit Center  179 is at  -6.242941  1.947634  0.470049
      ESP Fit Center  180 is at  -6.704000  1.385832  0.470049
      ESP Fit Center  181 is at  -7.046598  0.744877  0.470049
      ESP Fit Center  182 is at  -7.257568  0.049400  0.470049
      ESP Fit Center  183 is at  -7.328804 -0.673872  0.470049
      ESP Fit Center  184 is at  -7.257568 -1.397143  0.470049
      ESP Fit Center  185 is at  -7.046598 -2.092620  0.470049
      ESP Fit Center  186 is at  -6.704000 -2.733575  0.470049
      ESP Fit Center  187 is at  -6.242941 -3.295377  0.470049
      ESP Fit Center  188 is at  -5.681139 -3.756436  0.470049
      ESP Fit Center  189 is at  -5.040184 -4.099033  0.470049
      ESP Fit Center  190 is at  -4.344708 -4.310004  0.470049
      ESP Fit Center  191 is at  -3.621436 -4.381240  0.470049
      ESP Fit Center  192 is at  -2.898164 -4.310004  0.470049
      ESP Fit Center  193 is at  -2.202687 -4.099033  0.470049
      ESP Fit Center  194 is at  -1.561732 -3.756436  0.470049
      ESP Fit Center  195 is at  -0.999931 -3.295377  0.470049
      ESP Fit Center  196 is at  -0.538872 -2.733575  0.470049
      ESP Fit Center  197 is at  -4.857753  2.898231 -0.267393
      ESP Fit Center  198 is at  -5.511436  2.599704 -0.267393
      ESP Fit Center  199 is at  -6.096810  2.182862 -0.267393
      ESP Fit Center  200 is at  -6.592717  1.662769 -0.267393
      ESP Fit Center  201 is at  -6.981234  1.058225 -0.267393
      ESP Fit Center  202 is at  -7.248319  0.391077 -0.267393
      ESP Fit Center  203 is at  -7.384320 -0.314560 -0.267393
      ESP Fit Center  204 is at  -7.384320 -1.033183 -0.267393
      ESP Fit Center  205 is at  -7.248319 -1.738821 -0.267393
      ESP Fit Center  206 is at  -6.981234 -2.405968 -0.267393
      ESP Fit Center  207 is at  -6.592717 -3.010513 -0.267393
      ESP Fit Center  208 is at  -6.096810 -3.530605 -0.267393
      ESP Fit Center  209 is at  -5.511436 -3.947448 -0.267393
      ESP Fit Center  210 is at  -4.857753 -4.245975 -0.267393
      ESP Fit Center  211 is at  -4.159386 -4.415397 -0.267393
      ESP Fit Center  212 is at  -3.441576 -4.449590 -0.267393
      ESP Fit Center  213 is at  -2.730267 -4.347319 -0.267393
      ESP Fit Center  214 is at  -2.051167 -4.112281 -0.267393
      ESP Fit Center  215 is at  -1.428821 -3.752969 -0.267393
      ESP Fit Center  216 is at  -0.885721 -3.282370 -0.267393
      ESP Fit Center  217 is at  -0.441498 -2.717494 -0.267393
      ESP Fit Center  218 is at  -4.344708  2.962261 -1.004834
      ESP Fit Center  219 is at  -5.040184  2.751290 -1.004834
      ESP Fit Center  220 is at  -5.681139  2.408692 -1.004834
      ESP Fit Center  221 is at  -6.242941  1.947634 -1.004834
      ESP Fit Center  222 is at  -6.704000  1.385832 -1.004834
      ESP Fit Center  223 is at  -7.046598  0.744877 -1.004834
      ESP Fit Center  224 is at  -7.257568  0.049400 -1.004834
      ESP Fit Center  225 is at  -7.328804 -0.673872 -1.004834
      ESP Fit Center  226 is at  -7.257568 -1.397143 -1.004834
      ESP Fit Center  227 is at  -7.046598 -2.092620 -1.004834
      ESP Fit Center  228 is at  -6.704000 -2.733575 -1.004834
      ESP Fit Center  229 is at  -6.242941 -3.295377 -1.004834
      ESP Fit Center  230 is at  -5.681139 -3.756436 -1.004834
      ESP Fit Center  231 is at  -5.040184 -4.099033 -1.004834
      ESP Fit Center  232 is at  -4.344708 -4.310004 -1.004834
      ESP Fit Center  233 is at  -3.621436 -4.381240 -1.004834
      ESP Fit Center  234 is at  -2.898164 -4.310004 -1.004834
      ESP Fit Center  235 is at  -2.202687 -4.099033 -1.004834
      ESP Fit Center  236 is at  -1.561732 -3.756436 -1.004834
      ESP Fit Center  237 is at  -0.999931 -3.295377 -1.004834
      ESP Fit Center  238 is at  -0.538872 -2.733575 -1.004834
      ESP Fit Center  239 is at  -0.796135  1.378830 -1.713936
      ESP Fit Center  240 is at  -1.284655  1.921387 -1.713936
      ESP Fit Center  241 is at  -3.256395  2.799262 -1.713936
      ESP Fit Center  242 is at  -3.986477  2.799262 -1.713936
      ESP Fit Center  243 is at  -4.700605  2.647469 -1.713936
      ESP Fit Center  244 is at  -5.367568  2.350518 -1.713936
      ESP Fit Center  245 is at  -5.958217  1.921387 -1.713936
      ESP Fit Center  246 is at  -6.446737  1.378830 -1.713936
      ESP Fit Center  247 is at  -6.811778  0.746560 -1.713936
      ESP Fit Center  248 is at  -7.037386  0.052211 -1.713936
      ESP Fit Center  249 is at  -7.113701 -0.673872 -1.713936
      ESP Fit Center  250 is at  -7.037386 -1.399954 -1.713936
      ESP Fit Center  251 is at  -6.811778 -2.094304 -1.713936
      ESP Fit Center  252 is at  -6.446737 -2.726573 -1.713936
      ESP Fit Center  253 is at  -5.958217 -3.269130 -1.713936
      ESP Fit Center  254 is at  -5.367568 -3.698262 -1.713936
      ESP Fit Center  255 is at  -4.700605 -3.995213 -1.713936
      ESP Fit Center  256 is at  -3.986477 -4.147005 -1.713936
      ESP Fit Center  257 is at  -3.256395 -4.147005 -1.713936
      ESP Fit Center  258 is at  -2.542267 -3.995213 -1.713936
      ESP Fit Center  259 is at  -1.875304 -3.698262 -1.713936
      ESP Fit Center  260 is at  -1.284655 -3.269130 -1.713936
      ESP Fit Center  261 is at  -0.796135 -2.726573 -1.713936
      ESP Fit Center  262 is at  -0.431093 -2.094304 -1.713936
      ESP Fit Center  263 is at  -0.205486 -1.399954 -1.713936
      ESP Fit Center  264 is at  -0.478481 -0.673872 -2.367448
      ESP Fit Center  265 is at  -0.563200  0.050944 -2.367448
      ESP Fit Center  266 is at  -0.812789  0.736684 -2.367448
      ESP Fit Center  267 is at  -1.213793  1.346381 -2.367448
      ESP Fit Center  268 is at  -1.744593  1.847166 -2.367448
      ESP Fit Center  269 is at  -2.376575  2.212040 -2.367448
      ESP Fit Center  270 is at  -3.075668  2.421335 -2.367448
      ESP Fit Center  271 is at  -3.804183  2.463766 -2.367448
      ESP Fit Center  272 is at  -4.522846  2.337046 -2.367448
      ESP Fit Center  273 is at  -5.192914  2.048007 -2.367448
      ESP Fit Center  274 is at  -5.778263  1.612231 -2.367448
      ESP Fit Center  275 is at  -6.247337  1.053210 -2.367448
      ESP Fit Center  276 is at  -6.574848  0.401082 -2.367448
      ESP Fit Center  277 is at  -6.743140 -0.308997 -2.367448
      ESP Fit Center  278 is at  -6.743140 -1.038746 -2.367448
      ESP Fit Center  279 is at  -6.574848 -1.748826 -2.367448
      ESP Fit Center  280 is at  -6.247337 -2.400954 -2.367448
      ESP Fit Center  281 is at  -5.778263 -2.959974 -2.367448
      ESP Fit Center  282 is at  -5.192914 -3.395751 -2.367448
      ESP Fit Center  283 is at  -4.522846 -3.684790 -2.367448
      ESP Fit Center  284 is at  -3.804183 -3.811509 -2.367448
      ESP Fit Center  285 is at  -3.075668 -3.769078 -2.367448
      ESP Fit Center  286 is at  -2.376575 -3.559784 -2.367448
      ESP Fit Center  287 is at  -1.744593 -3.194909 -2.367448
      ESP Fit Center  288 is at  -1.213793 -2.694124 -2.367448
      ESP Fit Center  289 is at  -0.812789 -2.084427 -2.367448
      ESP Fit Center  290 is at  -0.563200 -1.398687 -2.367448
      ESP Fit Center  291 is at  -0.948572 -0.673872 -2.940256
      ESP Fit Center  292 is at  -1.047689  0.047258 -2.940256
      ESP Fit Center  293 is at  -1.337689  0.714905 -2.940256
      ESP Fit Center  294 is at  -1.797064  1.279553 -2.940256
      ESP Fit Center  295 is at  -2.391745  1.699324 -2.940256
      ESP Fit Center  296 is at  -3.077626  1.943087 -2.940256
      ESP Fit Center  297 is at  -3.803839  1.992761 -2.940256
      ESP Fit Center  298 is at  -4.516523  1.844663 -2.940256
      ESP Fit Center  299 is at  -5.162824  1.509777 -2.940256
      ESP Fit Center  300 is at  -5.694806  1.012940 -2.940256
      ESP Fit Center  301 is at  -6.073017  0.391000 -2.940256
      ESP Fit Center  302 is at  -6.269404 -0.309917 -2.940256
      ESP Fit Center  303 is at  -6.269404 -1.037827 -2.940256
      ESP Fit Center  304 is at  -6.073017 -1.738743 -2.940256
      ESP Fit Center  305 is at  -5.694806 -2.360684 -2.940256
      ESP Fit Center  306 is at  -5.162824 -2.857521 -2.940256
      ESP Fit Center  307 is at  -4.516523 -3.192407 -2.940256
      ESP Fit Center  308 is at  -3.803839 -3.340504 -2.940256
      ESP Fit Center  309 is at  -3.077626 -3.290830 -2.940256
      ESP Fit Center  310 is at  -2.391745 -3.047068 -2.940256
      ESP Fit Center  311 is at  -1.797064 -2.627297 -2.940256
      ESP Fit Center  312 is at  -1.337689 -2.062649 -2.940256
      ESP Fit Center  313 is at  -1.047689 -1.395002 -2.940256
      ESP Fit Center  314 is at  -1.521380 -0.673872 -3.410348
      ESP Fit Center  315 is at  -1.648029  0.044390 -3.410348
      ESP Fit Center  316 is at  -2.012700  0.676018 -3.410348
      ESP Fit Center  317 is at  -2.571408  1.144830 -3.410348
      ESP Fit Center  318 is at  -3.256765  1.394279 -3.410348
      ESP Fit Center  319 is at  -3.986107  1.394279 -3.410348
      ESP Fit Center  320 is at  -4.671464  1.144830 -3.410348
      ESP Fit Center  321 is at  -5.230172  0.676018 -3.410348
      ESP Fit Center  322 is at  -5.594843  0.044390 -3.410348
      ESP Fit Center  323 is at  -5.721491 -0.673872 -3.410348
      ESP Fit Center  324 is at  -5.594843 -1.392133 -3.410348
      ESP Fit Center  325 is at  -5.230172 -2.023761 -3.410348
      ESP Fit Center  326 is at  -4.671464 -2.492573 -3.410348
      ESP Fit Center  327 is at  -3.986107 -2.742023 -3.410348
      ESP Fit Center  328 is at  -3.256765 -2.742023 -3.410348
      ESP Fit Center  329 is at  -2.571408 -2.492573 -3.410348
      ESP Fit Center  330 is at  -2.012700 -2.023761 -3.410348
      ESP Fit Center  331 is at  -1.648029 -1.392133 -3.410348
      ESP Fit Center  332 is at  -2.174893 -0.673872 -3.759657
      ESP Fit Center  333 is at  -2.368693  0.049400 -3.759657
      ESP Fit Center  334 is at  -2.898164  0.578872 -3.759657
      ESP Fit Center  335 is at  -3.621436  0.772672 -3.759657
      ESP Fit Center  336 is at  -4.344708  0.578872 -3.759657
      ESP Fit Center  337 is at  -4.874179  0.049400 -3.759657
      ESP Fit Center  338 is at  -5.067979 -0.673872 -3.759657
      ESP Fit Center  339 is at  -4.874179 -1.397143 -3.759657
      ESP Fit Center  340 is at  -4.344708 -1.926615 -3.759657
      ESP Fit Center  341 is at  -3.621436 -2.120415 -3.759657
      ESP Fit Center  342 is at  -2.898164 -1.926615 -3.759657
      ESP Fit Center  343 is at  -2.368693 -1.397143 -3.759657
      ESP Fit Center  344 is at  -2.883995 -0.673872 -3.974761
      ESP Fit Center  345 is at  -3.252715 -0.035229 -3.974761
      ESP Fit Center  346 is at  -3.990157 -0.035229 -3.974761
      ESP Fit Center  347 is at  -4.358877 -0.673872 -3.974761
      ESP Fit Center  348 is at  -3.990157 -1.312515 -3.974761
      ESP Fit Center  349 is at  -3.252715 -1.312515 -3.974761
      ESP Fit Center  350 is at  -3.621436 -0.673872 -4.047393
      ESP Fit Center  351 is at   2.375689  2.192242 -0.648405
      ESP Fit Center  352 is at   3.218256  1.250287  2.259476
      ESP Fit Center  353 is at   2.853793  1.881554  2.259476
      ESP Fit Center  354 is at   2.124869  1.881554  2.259476
      ESP Fit Center  355 is at   3.802808  1.250287  1.793311
      ESP Fit Center  356 is at   3.551956  2.022329  1.793311
      ESP Fit Center  357 is at   2.895218  2.499478  1.793311
      ESP Fit Center  358 is at   4.127210  1.250287  1.119683
      ESP Fit Center  359 is at   3.939601  2.011447  1.119683
      ESP Fit Center  360 is at   3.419752  2.598235  1.119683
      ESP Fit Center  361 is at   2.686756  2.876224  1.119683
      ESP Fit Center  362 is at   3.419752  2.598235  0.372013
      ESP Fit Center  363 is at   2.686756  2.876224  0.372013
      ESP Fit Center  364 is at   2.895218  2.499478 -0.301615
      ESP Fit Center  365 is at   4.951935 -2.255976 -1.137936
      ESP Fit Center  366 is at   3.731174 -3.066716 -1.325223
      ESP Fit Center  367 is at   4.464171 -2.788727 -1.325223
      ESP Fit Center  368 is at   4.984020 -2.201939 -1.325223
      ESP Fit Center  369 is at   2.307780 -2.526894 -2.072893
      ESP Fit Center  370 is at   2.952950 -2.972222 -2.072893
      ESP Fit Center  371 is at   3.731174 -3.066716 -2.072893
      ESP Fit Center  372 is at   4.464171 -2.788727 -2.072893
      ESP Fit Center  373 is at   4.984020 -2.201939 -2.072893
      ESP Fit Center  374 is at   4.847227 -1.440779 -2.746521
      ESP Fit Center  375 is at   4.596375 -0.668737 -2.746521
      ESP Fit Center  376 is at   3.939637 -0.191588 -2.746521
      ESP Fit Center  377 is at   2.220273 -1.440779 -2.746521
      ESP Fit Center  378 is at   2.471125 -2.212821 -2.746521
      ESP Fit Center  379 is at   3.127863 -2.689970 -2.746521
      ESP Fit Center  380 is at   3.939637 -2.689970 -2.746521
      ESP Fit Center  381 is at   4.596375 -2.212821 -2.746521
      ESP Fit Center  382 is at   4.262675 -1.440779 -3.212686
      ESP Fit Center  383 is at   3.898212 -0.809512 -3.212686
      ESP Fit Center  384 is at   3.169288 -0.809512 -3.212686
      ESP Fit Center  385 is at   2.804825 -1.440779 -3.212686
      ESP Fit Center  386 is at   3.169288 -2.072046 -3.212686
      ESP Fit Center  387 is at   3.898212 -2.072046 -3.212686
      ESP Fit Center  388 is at   3.533750 -1.440779 -3.379058
      ESP Fit Center  389 is at   3.805683 -3.543577  1.483070
      ESP Fit Center  390 is at   4.165518 -3.665219  0.797731
      ESP Fit Center  391 is at   4.460605 -3.165458 -0.616930
      ESP Fit Center  392 is at   4.905110 -2.553648 -0.616930
      ESP Fit Center  393 is at   2.046577 -0.999225  4.019659
      ESP Fit Center  394 is at   2.803669 -0.999225  3.899748
      ESP Fit Center  395 is at   2.425123 -0.343564  3.899748
      ESP Fit Center  396 is at   1.668031 -0.343564  3.899748
      ESP Fit Center  397 is at   1.289485 -0.999225  3.899748
      ESP Fit Center  398 is at   1.668031 -1.654886  3.899748
      ESP Fit Center  399 is at   2.425123 -1.654886  3.899748
      ESP Fit Center  400 is at   3.486651 -0.999225  3.551751
      ESP Fit Center  401 is at   3.293718 -0.279188  3.551751
      ESP Fit Center  402 is at   2.766614  0.247916  3.551751
      ESP Fit Center  403 is at   2.046577  0.440849  3.551751
      ESP Fit Center  404 is at   1.326540  0.247916  3.551751
      ESP Fit Center  405 is at   0.799436 -0.279188  3.551751
      ESP Fit Center  406 is at   0.606503 -0.999225  3.551751
      ESP Fit Center  407 is at   0.799436 -1.719262  3.551751
      ESP Fit Center  408 is at   1.326540 -2.246365  3.551751
      ESP Fit Center  409 is at   2.046577 -2.439299  3.551751
      ESP Fit Center  410 is at   2.766614 -2.246365  3.551751
      ESP Fit Center  411 is at   3.293718 -1.719262  3.551751
      ESP Fit Center  412 is at   4.028669 -0.999225  3.009733
      ESP Fit Center  413 is at   3.877791 -0.240711  3.009733
      ESP Fit Center  414 is at   3.448127  0.402325  3.009733
      ESP Fit Center  415 is at   2.805091  0.831989  3.009733
      ESP Fit Center  416 is at   2.046577  0.982867  3.009733
      ESP Fit Center  417 is at   1.288063  0.831989  3.009733
      ESP Fit Center  418 is at   0.645027  0.402325  3.009733
      ESP Fit Center  419 is at   0.215363 -0.240711  3.009733
      ESP Fit Center  420 is at   0.064485 -0.999225  3.009733
      ESP Fit Center  421 is at   0.215363 -1.757739  3.009733
      ESP Fit Center  422 is at   0.645027 -2.400775  3.009733
      ESP Fit Center  423 is at   1.288063 -2.830439  3.009733
      ESP Fit Center  424 is at   2.046577 -2.981317  3.009733
      ESP Fit Center  425 is at   2.805091 -2.830439  3.009733
      ESP Fit Center  426 is at   3.448127 -2.400775  3.009733
      ESP Fit Center  427 is at   3.877791 -1.757739  3.009733
      ESP Fit Center  428 is at   4.376666 -0.999225  2.326751
      ESP Fit Center  429 is at   4.250415 -0.242646  2.326751
      ESP Fit Center  430 is at   3.885344  0.431945  2.326751
      ESP Fit Center  431 is at   3.321015  0.951447  2.326751
      ESP Fit Center  432 is at   1.854160  1.322905  2.326751
      ESP Fit Center  433 is at  -0.002675  0.109775  2.326751
      ESP Fit Center  434 is at  -0.251732 -0.615705  2.326751
      ESP Fit Center  435 is at  -0.251732 -1.382745  2.326751
      ESP Fit Center  436 is at  -0.002675 -2.108224  2.326751
      ESP Fit Center  437 is at   0.468451 -2.713527  2.326751
      ESP Fit Center  438 is at   1.110591 -3.133058  2.326751
      ESP Fit Center  439 is at   1.854160 -3.321355  2.326751
      ESP Fit Center  440 is at   2.618580 -3.258013  2.326751
      ESP Fit Center  441 is at   3.321015 -2.949897  2.326751
      ESP Fit Center  442 is at   4.387730 -0.277075  1.569659
      ESP Fit Center  443 is at   4.070862  0.380909  1.569659
      ESP Fit Center  444 is at  -0.160797 -2.062240  1.569659
      ESP Fit Center  445 is at   0.250600 -2.665648  1.569659
      ESP Fit Center  446 is at   0.821577 -3.120987  1.569659
      ESP Fit Center  447 is at   1.501401 -3.387798  1.569659
      ESP Fit Center  448 is at   2.229666 -3.442374  1.569659
      ESP Fit Center  449 is at   0.468451 -2.713527  0.812568
      ESP Fit Center  450 is at   1.110591 -3.133058  0.812568
      ESP Fit Center  451 is at   0.645027 -2.400775  0.129585
      ESP Fit Center  452 is at   1.326540 -2.246365 -0.412432
      ESP Fit Center  453 is at   4.354214  0.607202  1.318113
      ESP Fit Center  454 is at   5.274085  1.213056  0.953451
      ESP Fit Center  455 is at   4.521231  1.321300  0.953451
      ESP Fit Center  456 is at   5.275330 -1.744456 -1.705242
      ESP Fit Center  457 is at   6.063189 -0.014814 -2.263935
      ESP Fit Center  458 is at   5.274085 -1.242684 -2.263935
      ESP Fit Center  459 is at   5.848905 -0.744600 -2.263935
      ESP Fit Center  460 is at   5.431577 -0.014814 -2.628596
      ESP Fit Center  461 is at   3.995093 -0.014814 -2.628596
      ESP Fit Center  462 is at   5.072456 -0.636830 -2.628596
      ESP Fit Center  463 is at   4.713335 -0.014814 -2.755242
      ESP Fit Center  464 is at   4.971755  1.859735  0.614419
      ESP Fit Center  465 is at   4.221695  1.859735  0.614419
      ESP Fit Center  466 is at   5.796975  1.903129  0.189544
      ESP Fit Center  467 is at   5.289690  2.410414  0.189544
      ESP Fit Center  468 is at   4.596725  2.596093  0.189544
      ESP Fit Center  469 is at   3.903761  2.410414  0.189544
      ESP Fit Center  470 is at   6.250977  1.946684 -0.446325
      ESP Fit Center  471 is at   5.808389  2.555853 -0.446325
      ESP Fit Center  472 is at   5.156294  2.932341 -0.446325
      ESP Fit Center  473 is at   4.407445  3.011048 -0.446325
      ESP Fit Center  474 is at   3.691323  2.778366 -0.446325
      ESP Fit Center  475 is at   6.556725  1.210164 -1.196385
      ESP Fit Center  476 is at   6.424371  1.918198 -1.196385
      ESP Fit Center  477 is at   6.045183  2.530607 -1.196385
      ESP Fit Center  478 is at   5.470372  2.964684 -1.196385
      ESP Fit Center  479 is at   4.777571  3.161803 -1.196385
      ESP Fit Center  480 is at   4.060346  3.095342 -1.196385
      ESP Fit Center  481 is at   6.407529  1.210164 -1.946444
      ESP Fit Center  482 is at   6.250977  1.946684 -1.946444
      ESP Fit Center  483 is at   5.808389  2.555853 -1.946444
      ESP Fit Center  484 is at   5.156294  2.932341 -1.946444
      ESP Fit Center  485 is at   4.407445  3.011048 -1.946444
      ESP Fit Center  486 is at   5.982654  1.210164 -2.582314
      ESP Fit Center  487 is at   5.796975  1.903129 -2.582314
      ESP Fit Center  488 is at   5.289690  2.410414 -2.582314
      ESP Fit Center  489 is at   4.596725  2.596093 -2.582314
      ESP Fit Center  490 is at   5.796975  0.517199 -2.582314
      ESP Fit Center  491 is at   5.346785  1.210164 -3.007189
      ESP Fit Center  492 is at   4.971755  1.859735 -3.007189
      ESP Fit Center  493 is at   4.221695  1.859735 -3.007189
      ESP Fit Center  494 is at   4.221695  0.560593 -3.007189
      ESP Fit Center  495 is at   4.971755  0.560593 -3.007189
      ESP Fit Center  496 is at   4.596725  1.210164 -3.156385
      ESP Fit Center  497 is at  -1.307726  3.936144  2.281731
      ESP Fit Center  498 is at  -0.943263  4.567412  2.115359
      ESP Fit Center  499 is at  -1.672188  4.567412  2.115359
      ESP Fit Center  500 is at  -2.036650  3.936144  2.115359
      ESP Fit Center  501 is at  -0.245101  4.708187  1.649194
      ESP Fit Center  502 is at  -0.901839  5.185335  1.649194
      ESP Fit Center  503 is at  -1.713612  5.185335  1.649194
      ESP Fit Center  504 is at  -2.370351  4.708187  1.649194
      ESP Fit Center  505 is at  -2.621203  3.936144  1.649194
      ESP Fit Center  506 is at   0.142544  4.697305  0.975566
      ESP Fit Center  507 is at  -0.377304  5.284092  0.975566
      ESP Fit Center  508 is at  -1.110301  5.562081  0.975566
      ESP Fit Center  509 is at  -1.888526  5.467588  0.975566
      ESP Fit Center  510 is at  -2.533696  5.022259  0.975566
[...]
 3772 Fit       0.005904
 3773 Fit       0.004660
 3774 Fit       0.003588
 3775 Fit       0.002728
 3776 Fit       0.002089
 3777 Fit       0.001658
 3778 Fit       0.001410
 3779 Fit       0.001313
 3780 Fit       0.001329
 3781 Fit       0.001424
 3782 Fit       0.001559
 3783 Fit       0.001705
 3784 Fit       0.001836
 3785 Fit       0.001934
 3786 Fit       0.001992
 3787 Fit       0.002012
 3788 Fit       0.002008
 3789 Fit       0.002004
 3790 Fit       0.002037
 3791 Fit       0.002151
 3792 Fit       0.002404
 3793 Fit       0.002865
 3794 Fit       0.003621
 3795 Fit       0.004782
 3796 Fit       0.006499
 3797 Fit       0.008989
 3798 Fit       0.012569
 3799 Fit       0.017710
 3800 Fit       0.025074
 3801 Fit       0.006382
 3802 Fit       0.005237
 3803 Fit       0.005176
 3804 Fit       0.005886
 3805 Fit       0.006788
 3806 Fit       0.007383
 3807 Fit       0.007457
 3808 Fit       0.007037
 3809 Fit       0.006260
 3810 Fit       0.005295
 3811 Fit       0.004299
 3812 Fit       0.003386
 3813 Fit       0.002623
 3814 Fit       0.002042
 3815 Fit       0.001644
 3816 Fit       0.001415
 3817 Fit       0.001329
 3818 Fit       0.001353
 3819 Fit       0.001452
 3820 Fit       0.001591
 3821 Fit       0.001739
 3822 Fit       0.001872
 3823 Fit       0.001975
 3824 Fit       0.002041
 3825 Fit       0.002077
 3826 Fit       0.002102
 3827 Fit       0.002146
 3828 Fit       0.002249
 3829 Fit       0.002466
 3830 Fit       0.002863
 3831 Fit       0.003518
 3832 Fit       0.004532
 3833 Fit       0.006030
 3834 Fit       0.008182
 3835 Fit       0.011218
 3836 Fit       0.015453
 3837 Fit       0.021318
 3838 Fit       0.029397
 3839 Fit       0.011564
 3840 Fit       0.008357
 3841 Fit       0.006345
 3842 Fit       0.005324
 3843 Fit       0.005112
 3844 Fit       0.005368
 3845 Fit       0.005696
 3846 Fit       0.005805
 3847 Fit       0.005585
 3848 Fit       0.005067
 3849 Fit       0.004360
 3850 Fit       0.003589
 3851 Fit       0.002863
 3852 Fit       0.002252
 3853 Fit       0.001793
 3854 Fit       0.001494
 3855 Fit       0.001345
 3856 Fit       0.001319
 3857 Fit       0.001386
 3858 Fit       0.001509
 3859 Fit       0.001655
 3860 Fit       0.001799
 3861 Fit       0.001919
 3862 Fit       0.002010
 3863 Fit       0.002077
 3864 Fit       0.002139
 3865 Fit       0.002229
 3866 Fit       0.002393
 3867 Fit       0.002690
 3868 Fit       0.003193
 3869 Fit       0.003987
 3870 Fit       0.005177
 3871 Fit       0.006889
 3872 Fit       0.009277
 3873 Fit       0.012526
 3874 Fit       0.016827
 3875 Fit       0.022291
 3876 Fit       0.028591
 3877 Fit       0.022193
 3878 Fit       0.018492
 3879 Fit       0.013750
 3880 Fit       0.009944
 3881 Fit       0.007355
 3882 Fit       0.005770
 3883 Fit       0.004982
 3884 Fit       0.004729
 3885 Fit       0.004705
 3886 Fit       0.004644
 3887 Fit       0.004402
 3888 Fit       0.003961
 3889 Fit       0.003388
 3890 Fit       0.002780
 3891 Fit       0.002225
 3892 Fit       0.001783
 3893 Fit       0.001483
 3894 Fit       0.001326
 3895 Fit       0.001293
 3896 Fit       0.001354
 3897 Fit       0.001474
 3898 Fit       0.001620
 3899 Fit       0.001763
 3900 Fit       0.001888
 3901 Fit       0.001993
 3902 Fit       0.002094
 3903 Fit       0.002221
 3904 Fit       0.002422
 3905 Fit       0.002761
 3906 Fit       0.003314
 3907 Fit       0.004169
 3908 Fit       0.005426
 3909 Fit       0.007192
 3910 Fit       0.009568
 3911 Fit       0.012613
 3912 Fit       0.016240
 3913 Fit       0.019972
 3914 Fit       0.022563
 3915 Fit       0.015369
 3916 Fit       0.013345
 3917 Fit       0.010557
 3918 Fit       0.008041
 3919 Fit       0.006200
 3920 Fit       0.005043
 3921 Fit       0.004417
 3922 Fit       0.004096
 3923 Fit       0.003857
 3924 Fit       0.003554
 3925 Fit       0.003145
 3926 Fit       0.002664
 3927 Fit       0.002185
 3928 Fit       0.001774
 3929 Fit       0.001478
 3930 Fit       0.001312
 3931 Fit       0.001268
 3932 Fit       0.001319
 3933 Fit       0.001432
 3934 Fit       0.001574
 3935 Fit       0.001719
 3936 Fit       0.001857
 3937 Fit       0.001994
 3938 Fit       0.002159
 3939 Fit       0.002397
 3940 Fit       0.002772
 3941 Fit       0.003361
 3942 Fit       0.004247
 3943 Fit       0.005510
 3944 Fit       0.007212
 3945 Fit       0.009353
 3946 Fit       0.011799
 3947 Fit       0.014144
 3948 Fit       0.015616
 3949 Fit       0.010973
 3950 Fit       0.009724
 3951 Fit       0.007926
 3952 Fit       0.006236
 3953 Fit       0.004972
 3954 Fit       0.004153
 3955 Fit       0.003637
 3956 Fit       0.003248
 3957 Fit       0.002862
 3958 Fit       0.002444
 3959 Fit       0.002025
 3960 Fit       0.001666
 3961 Fit       0.001412
 3962 Fit       0.001285
 3963 Fit       0.001274
 3964 Fit       0.001351
 3965 Fit       0.001481
 3966 Fit       0.001635
 3967 Fit       0.001801
 3968 Fit       0.001989
 3969 Fit       0.002238
 3970 Fit       0.002607
 3971 Fit       0.003173
 3972 Fit       0.004012
 3973 Fit       0.005183
 3974 Fit       0.006690
 3975 Fit       0.008418
 3976 Fit       0.010057
 3977 Fit       0.011080
 3978 Fit       0.007984
 3979 Fit       0.007173
 3980 Fit       0.005959
 3981 Fit       0.004796
 3982 Fit       0.003905
 3983 Fit       0.003274
 3984 Fit       0.002790
 3985 Fit       0.002361
 3986 Fit       0.001965
 3987 Fit       0.001634
 3988 Fit       0.001410
 3989 Fit       0.001314
 3990 Fit       0.001333
 3991 Fit       0.001437
 3992 Fit       0.001594
 3993 Fit       0.001793
 3994 Fit       0.002047
 3995 Fit       0.002406
 3996 Fit       0.002939
 3997 Fit       0.003712
 3998 Fit       0.004754
 3999 Fit       0.005993
 4000 Fit       0.007202
 4001 Fit       0.007989
 4002 Fit       0.005882
 4003 Fit       0.005295
 4004 Fit       0.004383
 4005 Fit       0.003526
 4006 Fit       0.002855
 4007 Fit       0.002331
 4008 Fit       0.001908
 4009 Fit       0.001602
 4010 Fit       0.001443
 4011 Fit       0.001435
 4012 Fit       0.001550
 4013 Fit       0.001761
 4014 Fit       0.002072
 4015 Fit       0.002532
 4016 Fit       0.003206
 4017 Fit       0.004101
 4018 Fit       0.005076
 4019 Fit       0.005793
 4020 Fit       0.004377
 4021 Fit       0.003902
 4022 Fit       0.003152
 4023 Fit       0.002482
 4024 Fit       0.001987
 4025 Fit       0.001699
 4026 Fit       0.001643
 4027 Fit       0.001800
 4028 Fit       0.002153
 4029 Fit       0.002726
 4030 Fit       0.003494
 4031 Fit       0.004196
 4032 Fit       0.003294
 4033 Fit       0.002811
 4034 Fit       0.002195
 4035 Fit       0.001991
 4036 Fit       0.002302
 4037 Fit       0.002961
 4038 Fit       0.002523
 4039 Fit       0.006770
 4040 Fit       0.010331
 4041 Fit      -0.000861
 4042 Fit       0.004626
 4043 Fit       0.010249
 4044 Fit       0.001009
 4045 Fit       0.007249
 4046 Fit       0.004720
 4047 Fit       0.008315
 4048 Fit       0.032346
 4049 Fit       0.021154
 4050 Fit       0.017015
 4051 Fit       0.012082
 4052 Fit       0.005810
 4053 Fit       0.031749
 4054 Fit       0.027559
 4055 Fit       0.024455
 4056 Fit       0.021513
 4057 Fit       0.018333
 4058 Fit       0.014732
 4059 Fit       0.010671
 4060 Fit       0.031315
 4061 Fit       0.027382
 4062 Fit       0.024231
 4063 Fit       0.021367
 4064 Fit       0.018394
 4065 Fit       0.015244
 4066 Fit       0.012293
 4067 Fit       0.014802
 4068 Fit       0.015195
 4069 Fit       0.018051
 4070 Fit       0.027505
 4071 Fit       0.024939
 4072 Fit       0.022057
 4073 Fit       0.019133
 4074 Fit       0.016415
 4075 Fit       0.018131
 4076 Fit       0.019330
 4077 Fit       0.022289
 4078 Fit       0.024042
 4079 Fit       0.022593
 4080 Fit       0.019850
 4081 Fit       0.021029
 4082 Fit       0.004174
 4083 Fit       0.007221
 4084 Fit       0.005910
 4085 Fit       0.006509
 4086 Fit       0.007446
 4087 Fit       0.004004
 4088 Fit       0.006191
 4089 Fit       0.000707
 4090 Fit       0.010403
 4091 Fit       0.005538
 4092 Fit       0.013410
 4093 Fit      -0.009682
 4094 Fit      -0.010470
 4095 Fit      -0.010129
 4096 Fit      -0.009035
 4097 Fit      -0.008869
 4098 Fit      -0.008945
 4099 Fit      -0.009430
 4100 Fit      -0.011116
 4101 Fit      -0.011332
 4102 Fit      -0.010073
 4103 Fit      -0.008412
 4104 Fit      -0.007556
 4105 Fit      -0.007686
 4106 Fit      -0.008177
 4107 Fit      -0.008368
 4108 Fit      -0.008089
 4109 Fit      -0.007830
 4110 Fit      -0.008314
 4111 Fit      -0.009694
 4112 Fit      -0.011582
 4113 Fit      -0.012203
 4114 Fit      -0.011113
 4115 Fit      -0.008882
 4116 Fit      -0.006673
 4117 Fit      -0.005495
 4118 Fit      -0.005561
 4119 Fit      -0.006375
 4120 Fit      -0.007341
 4121 Fit      -0.008002
 4122 Fit      -0.008060
 4123 Fit      -0.007491
 4124 Fit      -0.006622
 4125 Fit      -0.006039
 4126 Fit      -0.006298
 4127 Fit      -0.007620
 4128 Fit      -0.009686
 4129 Fit      -0.011988
 4130 Fit      -0.013000
 4131 Fit      -0.012098
 4132 Fit      -0.009634
 4133 Fit      -0.006496
 4134 Fit      -0.003776
 4135 Fit      -0.002402
 4136 Fit      -0.002627
 4137 Fit      -0.003853
 4138 Fit      -0.005318
 4139 Fit      -0.007910
 4140 Fit      -0.007104
 4141 Fit      -0.005865
 4142 Fit      -0.004585
 4143 Fit      -0.003747
 4144 Fit      -0.003751
 4145 Fit      -0.004802
 4146 Fit      -0.006871
 4147 Fit      -0.009574
 4148 Fit      -0.012759
 4149 Fit      -0.014223
 4150 Fit      -0.013213
 4151 Fit      -0.010206
 4152 Fit      -0.006112
 4153 Fit      -0.001944
 4154 Fit       0.001174
 4155 Fit       0.002210
 4156 Fit       0.000888
 4157 Fit      -0.001689
 4158 Fit      -0.005811
 4159 Fit      -0.004128
 4160 Fit      -0.002467
 4161 Fit      -0.001252
 4162 Fit      -0.000830
 4163 Fit      -0.001385
 4164 Fit      -0.003012
 4165 Fit      -0.005794
 4166 Fit      -0.009442
 4167 Fit      -0.014979
 4168 Fit      -0.017108
 4169 Fit      -0.015398
 4170 Fit      -0.011057
 4171 Fit      -0.005473
 4172 Fit       0.000444
 4173 Fit       0.008781
 4174 Fit      -0.004542
 4175 Fit      -0.002551
 4176 Fit      -0.000507
 4177 Fit       0.001173
 4178 Fit       0.002126
 4179 Fit       0.002180
 4180 Fit       0.001334
 4181 Fit      -0.004742
 4182 Fit      -0.001189
 4183 Fit       0.001164
 4184 Fit       0.003375
 4185 Fit       0.004965
 4186 Fit       0.005614
 4187 Fit       0.002581
 4188 Fit       0.005243
 4189 Fit      -0.007381
 4190 Fit      -0.012182
 4191 Fit      -0.000299
 4192 Fit      -0.007278
 4193 Fit      -0.004741
 4194 Fit       0.010166
 4195 Fit       0.001540
 4196 Fit       0.011067
 4197 Fit      -0.012713
 4198 Fit      -0.002915
 4199 Fit      -0.021407
 4200 Fit      -0.014315
 4201 Fit      -0.006144
 4202 Fit      -0.026249
 4203 Fit      -0.020224
 4204 Fit      -0.014086
 4205 Fit      -0.006681
 4206 Fit       0.002850
 4207 Fit      -0.028167
 4208 Fit      -0.023041
 4209 Fit      -0.017998
 4210 Fit      -0.012153
 4211 Fit      -0.004967
 4212 Fit       0.003957
 4213 Fit      -0.032643
 4214 Fit      -0.027477
 4215 Fit      -0.023191
 4216 Fit      -0.018688
 4217 Fit      -0.013342
 4218 Fit      -0.006806
 4219 Fit       0.001074
 4220 Fit       0.010139
 4221 Fit      -0.028923
 4222 Fit      -0.025416
 4223 Fit      -0.021887
 4224 Fit      -0.017737
 4225 Fit      -0.012600
 4226 Fit      -0.006298
 4227 Fit       0.001141
 4228 Fit       0.009302
 4229 Fit      -0.026405
 4230 Fit      -0.024680
 4231 Fit      -0.022403
 4232 Fit      -0.019371
 4233 Fit      -0.015337
 4234 Fit      -0.010148
 4235 Fit      -0.003796
 4236 Fit       0.003507
 4237 Fit      -0.020349
 4238 Fit      -0.020109
 4239 Fit      -0.018356
 4240 Fit      -0.015174
 4241 Fit      -0.010548
 4242 Fit      -0.004547
 4243 Fit       0.002548
 4244 Fit      -0.018569
 4245 Fit      -0.014690
 4246 Fit      -0.015164
 4247 Fit      -0.013256
 4248 Fit      -0.009258
 4249 Fit      -0.003458
 4250 Fit       0.003595
 4251 Fit      -0.011272
 4252 Fit      -0.008979
 4253 Fit      -0.009452
 4254 Fit      -0.006342
 4255 Fit      -0.000503
 4256 Fit       0.006604
 4257 Fit       0.018445
 4258 Fit       0.003970
 4259 Fit      -0.004370
 4260 Fit      -0.002889
 4261 Fit      -0.001805
 4262 Fit       0.004839
 4263 Fit       0.010411
 4264 Fit       0.010270
 4265 Fit       0.003401
 4266 Fit       0.003669
 4267 Fit       0.012832
 4268 Fit       0.012605
 4269 Fit       0.011940
 4270 Fit       0.015490
 4271 Fit       0.014769
 4272 Fit       0.014443
 4273 Fit       0.014186
 4274 Fit       0.013858
 4275 Fit       0.013387
 4276 Fit       0.016649
 4277 Fit       0.015847
 4278 Fit       0.015543
 4279 Fit       0.015414
 4280 Fit       0.015381
 4281 Fit       0.015546
 4282 Fit       0.017512
 4283 Fit       0.016438
 4284 Fit       0.016077
 4285 Fit       0.015994
 4286 Fit       0.016081
 4287 Fit       0.016475
 4288 Fit       0.017647
 4289 Fit       0.017190
 4290 Fit       0.016255
 4291 Fit       0.015978
 4292 Fit       0.015975
 4293 Fit       0.016173
 4294 Fit       0.016773
 4295 Fit       0.018424
 4296 Fit       0.015854
 4297 Fit       0.015389
 4298 Fit       0.015317
 4299 Fit       0.015437
 4300 Fit       0.015781
 4301 Fit       0.016670
 4302 Fit       0.014018
 4303 Fit       0.014111
 4304 Fit       0.014314
 4305 Fit       0.014728
 4306 Fit       0.010882
 4307 Fit       0.011321
 4308 Fit       0.011902
 4309 Fit       0.012391
 4310 Fit       0.012839
 4311 Fit       0.013651
 4312 Fit       0.014609
 4313 Fit       0.012947
 4314 Fit       0.013139
 4315 Fit       0.013975
 4316 Fit       0.015059
 4317 Fit       0.016554
 4318 Fit       0.012709
 4319 Fit       0.013124
 4320 Fit       0.014158
 4321 Fit       0.015383
 4322 Fit       0.017063
 4323 Fit       0.012382
 4324 Fit       0.013108
 4325 Fit       0.014203
 4326 Fit       0.015409
 4327 Fit       0.017061
 4328 Fit       0.013737
 4329 Fit       0.013665
 4330 Fit       0.014305
 4331 Fit       0.015202
 4332 Fit       0.016548
 4333 Fit       0.015966
 4334 Fit       0.014342
 4335 Fit       0.014277
 4336 Fit       0.007720
 4337 Fit       0.008164
 4338 Fit       0.009186
 4339 Fit       0.009266
 4340 Fit       0.008697
 4341 Fit       0.010450
 4342 Fit       0.011206
 4343 Fit       0.011310
 4344 Fit       0.010839
 4345 Fit       0.009857
 4346 Fit       0.014134
 4347 Fit       0.013868
 4348 Fit       0.013454
 4349 Fit       0.012718
 4350 Fit       0.011601
 4351 Fit       0.010047
 4352 Fit       0.018446
 4353 Fit       0.017013
 4354 Fit       0.016084
 4355 Fit       0.015192
 4356 Fit       0.014161
 4357 Fit       0.012928
 4358 Fit       0.021333
 4359 Fit       0.019351
 4360 Fit       0.018097
 4361 Fit       0.017178
 4362 Fit       0.016694
 4363 Fit       0.031181
 4364 Fit       0.025128
 4365 Fit       0.022587
 4366 Fit       0.022052
 4367 Fit      -0.009226
 4368 Fit      -0.000810
 4369 Fit      -0.004512
 4370 Fit      -0.013514
 4371 Fit       0.001033
 4372 Fit      -0.002571
 4373 Fit      -0.007549
 4374 Fit       0.002940
 4375 Fit      -0.000595
 4376 Fit      -0.005492
 4377 Fit      -0.012243
 4378 Fit       0.003347
 4379 Fit      -0.001223
 4380 Fit      -0.007736
 4381 Fit      -0.001043
 4382 Fit      -0.009189
 4383 Fit       0.013465
 4384 Fit       0.012536
 4385 Fit       0.009498
 4386 Fit       0.012547
 4387 Fit       0.011471
 4388 Fit       0.014834
 4389 Fit       0.013776
 4390 Fit       0.015786
 4391 Fit       0.020045
 4392 Fit       0.017139
 4393 Fit       0.016430
 4394 Fit       0.019759
 4395 Fit       0.023497
 4396 Fit       0.023526
 4397 Fit       0.019605
 4398 Fit       0.011758
 4399 Fit       0.015820
 4400 Fit       0.012343
 4401 Fit       0.014650
 4402 Fit       0.012500
 4403 Fit       0.014273
 4404 Fit       0.009950
 4405 Fit       0.013749
 4406 Fit       0.012355
 4407 Fit       0.015516
 4408 Fit       0.017276
 4409 Fit       0.012151
 4410 Fit       0.032473
 4411 Fit       0.029238
 4412 Fit       0.025537
 4413 Fit      -0.019510
 4414 Fit      -0.022595
 4415 Fit      -0.021618
 4416 Fit      -0.018410
 4417 Fit      -0.019397
 4418 Fit      -0.025366
 4419 Fit      -0.025361
 4420 Fit      -0.023248
 4421 Fit      -0.019122
 4422 Fit      -0.019127
 4423 Fit      -0.023371
 4424 Fit      -0.027546
 4425 Fit      -0.027941
 4426 Fit      -0.027002
 4427 Fit      -0.024425
 4428 Fit      -0.019831
 4429 Fit      -0.018141
 4430 Fit      -0.023037
 4431 Fit      -0.025963
 4432 Fit      -0.029075
 4433 Fit      -0.029740
 4434 Fit      -0.029500
 4435 Fit      -0.028152
 4436 Fit      -0.025404
 4437 Fit      -0.020691
 4438 Fit      -0.016268
 4439 Fit      -0.021772
 4440 Fit      -0.025295
 4441 Fit      -0.027615
 4442 Fit      -0.029930
 4443 Fit      -0.030812
 4444 Fit      -0.031042
 4445 Fit      -0.030526
 4446 Fit      -0.029195
 4447 Fit      -0.026924
 4448 Fit      -0.019358
 4449 Fit      -0.023502
 4450 Fit      -0.026391
 4451 Fit      -0.028467
 4452 Fit      -0.030070
 4453 Fit      -0.031166
 4454 Fit      -0.031733
 4455 Fit      -0.031791
 4456 Fit      -0.031525
 4457 Fit      -0.014107
 4458 Fit      -0.019621
 4459 Fit      -0.023512
 4460 Fit      -0.026345
 4461 Fit      -0.028474
 4462 Fit      -0.029422
 4463 Fit      -0.030719
 4464 Fit      -0.031593
 4465 Fit      -0.032230
 4466 Fit      -0.005027
 4467 Fit      -0.012780
 4468 Fit      -0.018357
 4469 Fit      -0.022384
 4470 Fit      -0.025372
 4471 Fit      -0.027660
 4472 Fit      -0.027881
 4473 Fit      -0.029378
 4474 Fit      -0.030563
 4475 Fit      -0.031891
 4476 Fit      -0.000331
 4477 Fit      -0.009135
 4478 Fit      -0.015437
 4479 Fit      -0.019987
 4480 Fit      -0.023352
 4481 Fit      -0.025912
 4482 Fit      -0.025299
 4483 Fit      -0.027090
 4484 Fit      -0.028719
 4485 Fit      -0.000259
 4486 Fit      -0.009133
 4487 Fit      -0.015323
 4488 Fit      -0.019725
 4489 Fit      -0.022930
 4490 Fit      -0.021468
 4491 Fit      -0.023649
 4492 Fit      -0.007568
 4493 Fit      -0.014043
 4494 Fit      -0.018449
 4495 Fit      -0.016068
 4496 Fit      -0.011781
 -----------------------------------------------------------------
 Leave Link  602 at Fri Jan 17 11:57:32 2014, MaxMem=   235929600 cpu:         1.7

 Test job not archived.
 1\1\GINC-G28\SP\RHF\Gen\C10H10I1N1O2S1\KOLAR\17-Jan-2014\0\\# hf/gen p
 seudo=read pop=(mk, readradii) iop(6/33=2,6/41=5,6/42=2)\\na resp\\0,1
 \C,0,-1.133393,2.871734,0.472129\C,0,0.164827,2.364682,0.539665\C,0,0.
 398312,0.995143,0.379332\C,0,-0.687001,0.134463,0.157679\C,0,-1.974887
 ,0.656004,0.081979\C,0,-2.21562,2.021572,0.238613\I,0,-3.621436,-0.673
 872,-0.267393\C,0,1.813694,0.4626,0.401595\H,0,2.489331,1.250287,0.745
 848\C,0,3.423593,-0.862709,-0.773275\H,0,3.53375,-1.440779,-1.699058\C
 ,0,3.243688,-1.813935,0.43307\S,0,2.046577,-0.999225,1.569659\C,0,4.71
 3335,-0.014814,-0.655242\O,0,4.596725,1.210164,-1.196385\H,0,-1.307726
 ,3.936144,0.601731\H,0,1.000735,3.036056,0.717536\H,0,-0.516822,-0.933
 728,0.075588\H,0,-3.224038,2.417138,0.186181\H,0,2.833815,-2.776632,0.
 117909\H,0,4.204397,-1.975923,0.925358\N,0,2.266459,0.027876,-0.922396
 \H,0,3.656112,1.287063,-1.482927\H,0,1.506023,-0.444777,-1.407212\O,0,
 5.737123,-0.427118,-0.168639\\Version=AM64L-G09RevD.01\State=1-A\HF=-9
 97.3405509\RMSD=4.139e-09\Dipole=-1.4311931,0.2342922,-0.78993\Quadrup
 ole=-21.2672556,16.1777078,5.0895478,-5.9236216,-2.7251173,4.5408057\P
 G=C01 [X(C10H10I1N1O2S1)]\\@


 BE CAREFUL NOT TO BECOME TOO GOOD OF A SONGBIRD OR 
 THEY'LL THROW YOU INTO A CAGE.

                                    -- SNOOPY TO WOODSTOCK
 Job cpu time:       0 days  0 hours  3 minutes  1.0 seconds.
 File lengths (MBytes):  RWF=     30 Int=      0 D2E=      0 Chk=      3 Scr=      1
 Normal termination of Gaussian 09 at Fri Jan 17 11:57:32 2014.
180.69user 0.38system 3:01.43elapsed 99%CPU (0avgtext+0avgdata 603440maxresident)k
8inputs+134264outputs (0major+171508minor)pagefaults 0swaps
