Linux g42 2.6.38.6-client #1 SMP Tue Jun 12 11:27:21 CEST 2012 x86_64 GNU/Linux
Thu Jan 16 21:46:46 CET 2014

 Entering Gaussian System, Link 0=/usr/local/programs/common/gaussian/gaussian09_d01/arch/amd64-pgi_10.4.0-acml/g09/g09
 Initial command:
 /usr/local/programs/common/gaussian/gaussian09_d01/arch/amd64-pgi_10.4.0-acml/g09/l1.exe "/scratch/kolar/g09_17539/Gau-2175.inp" -scrdir="/scratch/kolar/g09_17539/"
 Entering Link 1 = /usr/local/programs/common/gaussian/gaussian09_d01/arch/amd64-pgi_10.4.0-acml/g09/l1.exe PID=      2183.
  
 Copyright (c) 1988,1990,1992,1993,1995,1998,2003,2009,2013,
            Gaussian, Inc.  All Rights Reserved.
  
 This is part of the Gaussian(R) 09 program.  It is based on
 the Gaussian(R) 03 system (copyright 2003, Gaussian, Inc.),
 the Gaussian(R) 98 system (copyright 1998, Gaussian, Inc.),
 the Gaussian(R) 94 system (copyright 1995, Gaussian, Inc.),
 the Gaussian 92(TM) system (copyright 1992, Gaussian, Inc.),
 the Gaussian 90(TM) system (copyright 1990, Gaussian, Inc.),
 the Gaussian 88(TM) system (copyright 1988, Gaussian, Inc.),
 the Gaussian 86(TM) system (copyright 1986, Carnegie Mellon
 University), and the Gaussian 82(TM) system (copyright 1983,
 Carnegie Mellon University). Gaussian is a federally registered
 trademark of Gaussian, Inc.
  
 This software contains proprietary and confidential information,
 including trade secrets, belonging to Gaussian, Inc.
  
 This software is provided under written license and may be
 used, copied, transmitted, or stored only in accord with that
 written license.
  
 The following legend is applicable only to US Government
 contracts under FAR:
  
                    RESTRICTED RIGHTS LEGEND
  
 Use, reproduction and disclosure by the US Government is
 subject to restrictions as set forth in subparagraphs (a)
 and (c) of the Commercial Computer Software - Restricted
 Rights clause in FAR 52.227-19.
  
 Gaussian, Inc.
 340 Quinnipiac St., Bldg. 40, Wallingford CT 06492
  
  
 ---------------------------------------------------------------
 Warning -- This program may not be used in any manner that
 competes with the business of Gaussian, Inc. or will provide
 assistance to any competitor of Gaussian, Inc.  The licensee
 of this program is prohibited from giving any competitor of
 Gaussian, Inc. access to this program.  By using this program,
 the user acknowledges that Gaussian, Inc. is engaged in the
 business of creating and licensing software in the field of
 computational chemistry and represents and warrants to the
 licensee that it is not a competitor of Gaussian, Inc. and that
 it will not use this program in any manner prohibited above.
 ---------------------------------------------------------------
  

 Cite this work as:
 Gaussian 09, Revision D.01,
 M. J. Frisch, G. W. Trucks, H. B. Schlegel, G. E. Scuseria, 
 M. A. Robb, J. R. Cheeseman, G. Scalmani, V. Barone, B. Mennucci, 
 G. A. Petersson, H. Nakatsuji, M. Caricato, X. Li, H. P. Hratchian, 
 A. F. Izmaylov, J. Bloino, G. Zheng, J. L. Sonnenberg, M. Hada, 
 M. Ehara, K. Toyota, R. Fukuda, J. Hasegawa, M. Ishida, T. Nakajima, 
 Y. Honda, O. Kitao, H. Nakai, T. Vreven, J. A. Montgomery, Jr., 
 J. E. Peralta, F. Ogliaro, M. Bearpark, J. J. Heyd, E. Brothers, 
 K. N. Kudin, V. N. Staroverov, T. Keith, R. Kobayashi, J. Normand, 
 K. Raghavachari, A. Rendell, J. C. Burant, S. S. Iyengar, J. Tomasi, 
 M. Cossi, N. Rega, J. M. Millam, M. Klene, J. E. Knox, J. B. Cross, 
 V. Bakken, C. Adamo, J. Jaramillo, R. Gomperts, R. E. Stratmann, 
 O. Yazyev, A. J. Austin, R. Cammi, C. Pomelli, J. W. Ochterski, 
 R. L. Martin, K. Morokuma, V. G. Zakrzewski, G. A. Voth, 
 P. Salvador, J. J. Dannenberg, S. Dapprich, A. D. Daniels, 
 O. Farkas, J. B. Foresman, J. V. Ortiz, J. Cioslowski, 
 and D. J. Fox, Gaussian, Inc., Wallingford CT, 2013.
 
 ******************************************
 Gaussian 09:  AM64L-G09RevD.01 24-Apr-2013
                16-Jan-2014 
 ******************************************
 %mem=1800mb
 -----------------------------------------
 # hf/gen pop=mk iop(6/33=2,6/41=5,6/42=2)
 -----------------------------------------
 1/38=1/1;
 2/12=2,17=6,18=5,40=1/2;
 3/5=7,11=9,16=1,25=1,30=1/1,2,3;
 4//1;
 5/5=2,38=5/2;
 6/7=2,8=2,9=2,10=2,15=8,20=1,28=1,33=2,41=5,42=2/1,2;
 99/5=1,9=1/99;
 -------
 na resp
 -------
 Symbolic Z-matrix:
 Charge =  0 Multiplicity = 1
 6                    -1.00624   0.61405  -0.07262 
 6                    -1.26487  -0.74019  -0.32499 
 6                    -2.56768  -1.23427  -0.29374 
 6                    -3.6171   -0.36174  -0.0069 
 6                    -3.38541   0.99284   0.23648 
 6                    -2.07983   1.47262   0.19675 
 17                   -5.26081  -0.97873   0.03927 
 6                     0.36808   1.21849  -0.09222 
 7                     1.42066   0.34891  -0.02228 
 6                     2.77089   0.85631   0.05325 
 6                     3.71527  -0.33243   0.14815 
 7                     5.02632  -0.07944  -0.09745 
 8                     5.8798   -1.19205  -0.13534 
 8                     0.54614   2.43185  -0.17623 
 8                     3.35207  -1.45414   0.51111 
 1                    -0.4586   -1.42201  -0.58006 
 1                    -2.76892  -2.28069  -0.49595 
 1                    -4.216     1.65671   0.45116 
 1                    -1.86873   2.52236   0.37111 
 1                     1.30488  -0.6086    0.28612 
 1                     2.9928    1.47887  -0.8217 
 1                     2.91067   1.50107   0.93387 
 1                     5.32131   0.61709  -0.76972 
 1                     5.26474  -1.91208   0.13428 
 
                          Input orientation:                          
 ---------------------------------------------------------------------
 Center     Atomic      Atomic             Coordinates (Angstroms)
 Number     Number       Type             X           Y           Z
 ---------------------------------------------------------------------
      1          6           0       -1.006242    0.614047   -0.072621
      2          6           0       -1.264867   -0.740186   -0.324985
      3          6           0       -2.567683   -1.234269   -0.293738
      4          6           0       -3.617097   -0.361737   -0.006898
      5          6           0       -3.385408    0.992838    0.236478
      6          6           0       -2.079834    1.472624    0.196752
      7         17           0       -5.260807   -0.978731    0.039273
      8          6           0        0.368080    1.218494   -0.092223
      9          7           0        1.420656    0.348907   -0.022279
     10          6           0        2.770894    0.856313    0.053254
     11          6           0        3.715266   -0.332427    0.148148
     12          7           0        5.026320   -0.079443   -0.097451
     13          8           0        5.879801   -1.192054   -0.135337
     14          8           0        0.546135    2.431851   -0.176227
     15          8           0        3.352074   -1.454139    0.511110
     16          1           0       -0.458598   -1.422006   -0.580063
     17          1           0       -2.768916   -2.280691   -0.495954
     18          1           0       -4.216001    1.656713    0.451158
     19          1           0       -1.868727    2.522361    0.371106
     20          1           0        1.304876   -0.608604    0.286123
     21          1           0        2.992797    1.478866   -0.821702
     22          1           0        2.910670    1.501068    0.933869
     23          1           0        5.321310    0.617093   -0.769717
     24          1           0        5.264740   -1.912083    0.134277
 ---------------------------------------------------------------------
                    Distance matrix (angstroms):
                    1          2          3          4          5
     1  C    0.000000
     2  C    1.401614   0.000000
     3  C    2.429663   1.393709   0.000000
     4  C    2.788017   2.403620   1.394582   0.000000
     5  C    2.428880   2.795587   2.431010   1.395631   0.000000
     6  C    1.400827   2.415142   2.793895   2.401985   1.391509
     7  Cl   4.544314   4.019593   2.725640   1.756302   2.728204
     8  C    1.501500   2.560688   3.830843   4.287895   3.774604
     9  N    2.441857   2.913724   4.299649   5.087652   4.855909
    10  C    3.786990   4.356517   5.743809   6.503360   6.160541
    11  C    4.820497   5.019148   6.362706   7.334061   7.223829
    12  N    6.072343   6.329880   7.683816   8.648500   8.486369
    13  O    7.119236   7.161455   8.449074   9.533992   9.526599
    14  O    2.392701   3.655636   4.811456   5.016503   4.206913
    15  O    4.859326   4.746043   5.978264   7.073261   7.173338
    16  H    2.168622   1.086284   2.136695   3.380651   3.881292
    17  H    3.415514   2.159757   1.084613   2.154291   3.410647
    18  H    3.415267   3.880298   3.410220   2.154679   1.084759
    19  H    2.140663   3.390192   3.878508   3.393775   2.158214
    20  H    2.639098   2.644683   3.965401   4.936864   4.956394
    21  H    4.159489   4.826865   6.209572   6.909589   6.483631
    22  H    4.140293   4.903370   6.245113   6.853235   6.354939
    23  H    6.365836   6.739267   8.117285   9.024141   8.772716
    24  H    6.763827   6.649814   7.873340   9.017235   9.125463
                    6          7          8          9         10
     6  C    0.000000
     7  Cl   4.019021   0.000000
     8  C    2.477977   6.043960   0.000000
     9  N    3.682953   6.812368   1.367110   0.000000
    10  C    4.891829   8.238677   2.434308   1.444406   0.000000
    11  C    6.069906   8.999969   3.696862   2.399687   1.521166
    12  N    7.279622  10.327265   4.835687   3.631797   2.446487
    13  O    8.400392  11.144018   6.015951   4.719250   3.727825
    14  O    2.820451   6.737884   1.229226   2.264319   2.735788
    15  O    6.178219   8.638887   4.051074   2.695525   2.426024
    16  H    3.407452   4.862230   2.809560   2.641752   4.002680
    17  H    3.878408   2.862008   4.716783   4.969071   6.389986
    18  H    2.159125   2.864757   4.636928   5.805721   7.043839
    19  H    1.084856   4.886099   2.630218   3.962158   4.939922
    20  H    3.974388   6.580739   2.087827   1.012593   2.085526
    21  H    5.173864   8.654654   2.736617   2.094639   1.096522
    22  H    5.044728   8.586195   2.756352   2.112306   1.100331
    23  H    7.512851  10.732303   5.035392   3.980664   2.690563
    24  H    8.087207  10.567275   5.816278   4.462462   3.726909
                   11         12         13         14         15
    11  C    0.000000
    12  N    1.357639   0.000000
    13  O    2.346174   1.402772   0.000000
    14  O    4.217801   5.136620   6.448438   0.000000
    15  O    1.233648   2.250163   2.622210   4.842173   0.000000
    16  H    4.374770   5.667426   6.358141   4.003097   3.963952
    17  H    6.801119   8.109871   8.724419   5.770601   6.258106
    18  H    8.182511   9.419963  10.506411   4.865428   8.182711
    19  H    6.275389   7.384484   8.607732   2.477766   6.564215
    20  H    2.430080   3.778397   4.631197   3.167621   2.226335
    21  H    2.177924   2.662345   3.992456   2.703881   3.241602
    22  H    2.150915   2.835068   4.148716   2.773030   3.017749
    23  H    2.079289   1.011990   1.996838   5.142750   3.131838
    24  H    2.212775   1.862555   0.984598   6.421169   2.002500
                   16         17         18         19         20
    16  H    0.000000
    17  H    2.466168   0.000000
    18  H    4.965884   4.300491   0.000000
    19  H    4.295488   4.963007   2.503088   0.000000
    20  H    2.126439   4.472505   5.969839   4.458915   0.000000
    21  H    4.515039   6.887504   7.322470   5.113325   2.904115
    22  H    4.710448   6.971642   7.144696   4.919591   2.729261
    23  H    6.131984   8.597898   9.671176   7.525168   4.329997
    24  H    5.788528   8.066765  10.135145   8.402781   4.171647
                   21         22         23         24
    21  H    0.000000
    22  H    1.757631   0.000000
    23  H    2.483411   3.081364   0.000000
    24  H    4.192154   4.222629   2.686473   0.000000
 Stoichiometry    C9H9ClN2O3
 Framework group  C1[X(C9H9ClN2O3)]
 Deg. of freedom    66
 Full point group                 C1      NOp   1
 Largest Abelian subgroup         C1      NOp   1
 Largest concise Abelian subgroup C1      NOp   1
                         Standard orientation:                         
 ---------------------------------------------------------------------
 Center     Atomic      Atomic             Coordinates (Angstroms)
 Number     Number       Type             X           Y           Z
 ---------------------------------------------------------------------
      1          6           0       -1.006242    0.614047   -0.072621
      2          6           0       -1.264867   -0.740186   -0.324985
      3          6           0       -2.567683   -1.234269   -0.293738
      4          6           0       -3.617097   -0.361737   -0.006898
      5          6           0       -3.385408    0.992838    0.236478
      6          6           0       -2.079834    1.472624    0.196752
      7         17           0       -5.260807   -0.978731    0.039273
      8          6           0        0.368080    1.218494   -0.092223
      9          7           0        1.420656    0.348907   -0.022279
     10          6           0        2.770894    0.856313    0.053254
     11          6           0        3.715266   -0.332427    0.148148
     12          7           0        5.026320   -0.079443   -0.097451
     13          8           0        5.879801   -1.192054   -0.135337
     14          8           0        0.546135    2.431851   -0.176227
     15          8           0        3.352074   -1.454139    0.511110
     16          1           0       -0.458598   -1.422006   -0.580063
     17          1           0       -2.768916   -2.280691   -0.495954
     18          1           0       -4.216001    1.656713    0.451158
     19          1           0       -1.868727    2.522361    0.371106
     20          1           0        1.304876   -0.608604    0.286123
     21          1           0        2.992797    1.478866   -0.821702
     22          1           0        2.910670    1.501068    0.933869
     23          1           0        5.321310    0.617093   -0.769717
     24          1           0        5.264740   -1.912083    0.134277
 ---------------------------------------------------------------------
 Rotational constants (GHZ):      1.5756417      0.1730642      0.1571211
 General basis read from cards:  (5D, 7F)
 There are   247 symmetry adapted cartesian basis functions of A   symmetry.
 There are   232 symmetry adapted basis functions of A   symmetry.
   232 basis functions,   480 primitive gaussians,   247 cartesian basis functions
    59 alpha electrons       59 beta electrons
       nuclear repulsion energy       999.5237027234 Hartrees.
 NAtoms=   24 NActive=   24 NUniq=   24 SFac= 1.00D+00 NAtFMM=   60 NAOKFM=F Big=F
 Integral buffers will be    131072 words long.
 Raffenetti 1 integral format.
 Two-electron integral symmetry is turned on.
 One-electron integrals computed using PRISM.
 NBasis=   232 RedAO= T EigKep=  4.53D-04  NBF=   232
 NBsUse=   232 1.00D-06 EigRej= -1.00D+00 NBFU=   232
 ExpMin= 1.43D-01 ExpMax= 2.52D+04 ExpMxC= 3.78D+03 IAcc=1 IRadAn=         1 AccDes= 0.00D+00
 Harris functional with IExCor=  205 and IRadAn=       1 diagonalized for initial guess.
 HarFok:  IExCor=  205 AccDes= 0.00D+00 IRadAn=         1 IDoV= 1 UseB2=F ITyADJ=14
 ICtDFT=  3500011 ScaDFX=  1.000000  1.000000  1.000000  1.000000
 FoFCou: FMM=F IPFlag=           0 FMFlag=      100000 FMFlg1=           0
         NFxFlg=           0 DoJE=T BraDBF=F KetDBF=T FulRan=T
         wScrn=  0.000000 ICntrl=     500 IOpCl=  0 I1Cent=   200000004 NGrid=           0
         NMat0=    1 NMatS0=      1 NMatT0=    0 NMatD0=    1 NMtDS0=    0 NMtDT0=    0
 Petite list used in FoFCou.
 Requested convergence on RMS density matrix=1.00D-08 within 128 cycles.
 Requested convergence on MAX density matrix=1.00D-06.
 Requested convergence on             energy=1.00D-06.
 No special actions if energy rises.
 Integral accuracy reduced to 1.0D-05 until final iterations.
 Initial convergence to 1.0D-05 achieved.  Increase integral accuracy.
 SCF Done:  E(RHF) =  -1138.97803064     A.U. after   16 cycles
            NFock= 16  Conv=0.99D-08     -V/T= 2.0008

 **********************************************************************

            Population analysis using the SCF density.

 **********************************************************************

 Orbital symmetries:
 BldTbl:  Degeneracy threshold= 1.00D-02
       Occupied  (A) (A) (A) (A) (A) (A) (A) (A) (A) (A) (A) (A)
                 (A) (A) (A) (A) (A) (A) (A) (A) (A) (A) (A) (A)
                 (A) (A) (A) (A) (A) (A) (A) (A) (A) (A) (A) (A)
                 (A) (A) (A) (A) (A) (A) (A) (A) (A) (A) (A) (A)
                 (A) (A) (A) (A) (A) (A) (A) (A) (A) (A) (A)
       Virtual   (A) (A) (A) (A) (A) (A) (A) (A) (A) (A) (A) (A)
                 (A) (A) (A) (A) (A) (A) (A) (A) (A) (A) (A) (A)
                 (A) (A) (A) (A) (A) (A) (A) (A) (A) (A) (A) (A)
                 (A) (A) (A) (A) (A) (A) (A) (A) (A) (A) (A) (A)
                 (A) (A) (A) (A) (A) (A) (A) (A) (A) (A) (A) (A)
                 (A) (A) (A) (A) (A) (A) (A) (A) (A) (A) (A) (A)
                 (A) (A) (A) (A) (A) (A) (A) (A) (A) (A) (A) (A)
                 (A) (A) (A) (A) (A) (A) (A) (A) (A) (A) (A) (A)
                 (A) (A) (A) (A) (A) (A) (A) (A) (A) (A) (A) (A)
                 (A) (A) (A) (A) (A) (A) (A) (A) (A) (A) (A) (A)
                 (A) (A) (A) (A) (A) (A) (A) (A) (A) (A) (A) (A)
                 (A) (A) (A) (A) (A) (A) (A) (A) (A) (A) (A) (A)
                 (A) (A) (A) (A) (A) (A) (A) (A) (A) (A) (A) (A)
                 (A) (A) (A) (A) (A) (A) (A) (A) (A) (A) (A) (A)
                 (A) (A) (A) (A) (A)
 The electronic state is 1-A.
 Alpha  occ. eigenvalues -- -104.83064 -20.62326 -20.57236 -20.53837 -15.66454
 Alpha  occ. eigenvalues --  -15.60211 -11.39526 -11.37174 -11.32244 -11.30453
 Alpha  occ. eigenvalues --  -11.27129 -11.26589 -11.26369 -11.26213 -11.26077
 Alpha  occ. eigenvalues --  -10.56909  -8.03766  -8.03431  -8.03430  -1.46847
 Alpha  occ. eigenvalues --   -1.39610  -1.38875  -1.24875  -1.19996  -1.17690
 Alpha  occ. eigenvalues --   -1.13200  -1.04456  -1.03494  -0.99208  -0.87234
 Alpha  occ. eigenvalues --   -0.86068  -0.84514  -0.80685  -0.76840  -0.71955
 Alpha  occ. eigenvalues --   -0.71281  -0.68798  -0.67510  -0.66041  -0.64876
 Alpha  occ. eigenvalues --   -0.63910  -0.63475  -0.61511  -0.61210  -0.58919
 Alpha  occ. eigenvalues --   -0.58575  -0.57036  -0.54486  -0.53440  -0.52793
 Alpha  occ. eigenvalues --   -0.52476  -0.47530  -0.47226  -0.46269  -0.43967
 Alpha  occ. eigenvalues --   -0.41831  -0.40285  -0.36088  -0.34732
 Alpha virt. eigenvalues --    0.08286   0.11671   0.14870   0.18376   0.20515
 Alpha virt. eigenvalues --    0.22070   0.23511   0.25154   0.26762   0.27594
 Alpha virt. eigenvalues --    0.28739   0.30676   0.31922   0.33000   0.34671
 Alpha virt. eigenvalues --    0.35944   0.38536   0.39896   0.42191   0.44348
 Alpha virt. eigenvalues --    0.45889   0.47125   0.49666   0.50589   0.53084
 Alpha virt. eigenvalues --    0.55540   0.59371   0.60054   0.61089   0.61814
 Alpha virt. eigenvalues --    0.62970   0.71673   0.72447   0.72805   0.73747
 Alpha virt. eigenvalues --    0.75621   0.76218   0.77807   0.78366   0.79392
 Alpha virt. eigenvalues --    0.80081   0.81222   0.82253   0.82320   0.83574
 Alpha virt. eigenvalues --    0.85356   0.87969   0.88612   0.89981   0.91677
 Alpha virt. eigenvalues --    0.93195   0.94675   0.95012   0.98367   0.98829
 Alpha virt. eigenvalues --    0.99513   1.01711   1.03857   1.04255   1.06633
 Alpha virt. eigenvalues --    1.07530   1.07830   1.08430   1.09131   1.09685
 Alpha virt. eigenvalues --    1.11945   1.12871   1.14314   1.14696   1.16035
 Alpha virt. eigenvalues --    1.16908   1.18078   1.18400   1.18649   1.21340
 Alpha virt. eigenvalues --    1.23254   1.26013   1.26967   1.28108   1.29845
 Alpha virt. eigenvalues --    1.31335   1.31722   1.32656   1.35334   1.36991
 Alpha virt. eigenvalues --    1.37915   1.40946   1.41723   1.43174   1.47359
 Alpha virt. eigenvalues --    1.48793   1.50065   1.51553   1.56837   1.57655
 Alpha virt. eigenvalues --    1.59644   1.61620   1.62181   1.62838   1.67813
 Alpha virt. eigenvalues --    1.68768   1.68787   1.72553   1.73933   1.76534
 Alpha virt. eigenvalues --    1.79009   1.80701   1.82303   1.86898   1.89807
 Alpha virt. eigenvalues --    1.96354   1.98711   2.00532   2.02922   2.04190
 Alpha virt. eigenvalues --    2.05808   2.06048   2.08404   2.10322   2.11488
 Alpha virt. eigenvalues --    2.14989   2.15963   2.16738   2.21282   2.22360
 Alpha virt. eigenvalues --    2.24285   2.24581   2.27883   2.29962   2.33834
 Alpha virt. eigenvalues --    2.35824   2.36612   2.38262   2.40065   2.41114
 Alpha virt. eigenvalues --    2.42741   2.43396   2.44583   2.46521   2.51965
 Alpha virt. eigenvalues --    2.52349   2.58793   2.60633   2.60929   2.62575
 Alpha virt. eigenvalues --    2.63415   2.68494   2.73181   2.74060   2.77314
 Alpha virt. eigenvalues --    2.79500   2.84472   2.85676   2.90901   2.93709
 Alpha virt. eigenvalues --    2.95236   2.96195   2.98188   3.01070   3.03156
 Alpha virt. eigenvalues --    3.04167   3.10402   3.10890   3.13276   3.18278
 Alpha virt. eigenvalues --    3.24037   3.25624   3.33434   3.34904   3.47125
 Alpha virt. eigenvalues --    3.50236   3.56740   3.77352
          Condensed to atoms (all electrons):
               1          2          3          4          5          6
     1  C    5.027296   0.526767  -0.036745  -0.031669  -0.043286   0.531619
     2  C    0.526767   4.942113   0.527724  -0.039434  -0.032920  -0.047079
     3  C   -0.036745   0.527724   4.956899   0.525717  -0.045056  -0.032456
     4  C   -0.031669  -0.039434   0.525717   5.022537   0.516501  -0.037122
     5  C   -0.043286  -0.032920  -0.045056   0.516501   4.986882   0.514908
     6  C    0.531619  -0.047079  -0.032456  -0.037122   0.514908   4.908687
     7  Cl   0.000274   0.002422  -0.065303   0.222836  -0.064635   0.002067
     8  C    0.395628  -0.034681   0.002130  -0.000228   0.003248  -0.030943
     9  N   -0.107948  -0.004899   0.000070   0.000000  -0.000069   0.004491
    10  C    0.004349   0.000149   0.000004   0.000000   0.000001  -0.000095
    11  C    0.000113  -0.000055   0.000000   0.000000   0.000000   0.000000
    12  N    0.000000   0.000000   0.000000   0.000000   0.000000   0.000000
    13  O    0.000000   0.000000   0.000000   0.000000   0.000000   0.000000
    14  O   -0.084460   0.002200  -0.000041  -0.000007   0.000621   0.003388
    15  O   -0.000011  -0.000062  -0.000001   0.000000   0.000000   0.000000
    16  H   -0.030808   0.374138  -0.024554   0.002215   0.000149   0.002473
    17  H    0.001475  -0.024629   0.382024  -0.028194   0.001901   0.000215
    18  H    0.001802   0.000171   0.001953  -0.029925   0.382078  -0.023708
    19  H   -0.026995   0.002617   0.000037   0.002202  -0.028278   0.376089
    20  H   -0.002715   0.003651  -0.000049   0.000001  -0.000007  -0.000269
    21  H    0.000052  -0.000019   0.000000   0.000000   0.000000  -0.000009
    22  H   -0.000078   0.000013   0.000000   0.000000   0.000000   0.000012
    23  H    0.000000   0.000000   0.000000   0.000000   0.000000   0.000000
    24  H    0.000000   0.000000   0.000000   0.000000   0.000000   0.000000
               7          8          9         10         11         12
     1  C    0.000274   0.395628  -0.107948   0.004349   0.000113   0.000000
     2  C    0.002422  -0.034681  -0.004899   0.000149  -0.000055   0.000000
     3  C   -0.065303   0.002130   0.000070   0.000004   0.000000   0.000000
     4  C    0.222836  -0.000228   0.000000   0.000000   0.000000   0.000000
     5  C   -0.064635   0.003248  -0.000069   0.000001   0.000000   0.000000
     6  C    0.002067  -0.030943   0.004491  -0.000095   0.000000   0.000000
     7  Cl  16.890796   0.000006   0.000000   0.000000   0.000000   0.000000
     8  C    0.000006   3.992954   0.269124  -0.034442   0.003602  -0.000100
     9  N    0.000000   0.269124   7.450730   0.200710  -0.033310   0.001703
    10  C    0.000000  -0.034442   0.200710   5.036274   0.332186  -0.092383
    11  C    0.000000   0.003602  -0.033310   0.332186   4.232013   0.299782
    12  N    0.000000  -0.000100   0.001703  -0.092383   0.299782   6.887306
    13  O    0.000000   0.000000  -0.000028   0.002482  -0.041749   0.135449
    14  O    0.000000   0.603161  -0.107660   0.010758   0.000601  -0.000002
    15  O    0.000000   0.000060  -0.007577  -0.071283   0.551873  -0.087962
    16  H   -0.000086  -0.001567   0.003703  -0.000005   0.000019  -0.000001
    17  H    0.000227  -0.000061   0.000001   0.000000   0.000000   0.000000
    18  H    0.000204  -0.000067   0.000001   0.000000   0.000000   0.000000
    19  H   -0.000071  -0.002744   0.000327  -0.000011   0.000000   0.000000
    20  H    0.000000  -0.011893   0.301131  -0.028284  -0.008522   0.000785
    21  H    0.000000  -0.002541  -0.041660   0.399706  -0.037275   0.002518
    22  H    0.000000  -0.001303  -0.043796   0.392022  -0.029628  -0.000438
    23  H    0.000000  -0.000002  -0.000129   0.001076  -0.021588   0.323224
    24  H    0.000000   0.000001   0.000006   0.001388   0.000989  -0.044640
              13         14         15         16         17         18
     1  C    0.000000  -0.084460  -0.000011  -0.030808   0.001475   0.001802
     2  C    0.000000   0.002200  -0.000062   0.374138  -0.024629   0.000171
     3  C    0.000000  -0.000041  -0.000001  -0.024554   0.382024   0.001953
     4  C    0.000000  -0.000007   0.000000   0.002215  -0.028194  -0.029925
     5  C    0.000000   0.000621   0.000000   0.000149   0.001901   0.382078
     6  C    0.000000   0.003388   0.000000   0.002473   0.000215  -0.023708
     7  Cl   0.000000   0.000000   0.000000  -0.000086   0.000227   0.000204
     8  C    0.000000   0.603161   0.000060  -0.001567  -0.000061  -0.000067
     9  N   -0.000028  -0.107660  -0.007577   0.003703   0.000001   0.000001
    10  C    0.002482   0.010758  -0.071283  -0.000005   0.000000   0.000000
    11  C   -0.041749   0.000601   0.551873   0.000019   0.000000   0.000000
    12  N    0.135449  -0.000002  -0.087962  -0.000001   0.000000   0.000000
    13  O    8.318948   0.000000  -0.011767   0.000000   0.000000   0.000000
    14  O    0.000000   8.201864  -0.000003  -0.000013   0.000000   0.000000
    15  O   -0.011767  -0.000003   8.236014   0.000019   0.000000   0.000000
    16  H    0.000000  -0.000013   0.000019   0.443823  -0.001366   0.000008
    17  H    0.000000   0.000000   0.000000  -0.001366   0.427685  -0.000090
    18  H    0.000000   0.000000   0.000000   0.000008  -0.000090   0.427236
    19  H    0.000000   0.008758   0.000000  -0.000093   0.000007  -0.001280
    20  H    0.000002   0.001704   0.022061   0.001421  -0.000002   0.000000
    21  H   -0.000005   0.002413   0.001630  -0.000021   0.000000   0.000000
    22  H   -0.000033   0.002759   0.000299   0.000009   0.000000   0.000000
    23  H   -0.026703   0.000000   0.001998   0.000000   0.000000   0.000000
    24  H    0.247119   0.000000   0.028767   0.000000   0.000000   0.000000
              19         20         21         22         23         24
     1  C   -0.026995  -0.002715   0.000052  -0.000078   0.000000   0.000000
     2  C    0.002617   0.003651  -0.000019   0.000013   0.000000   0.000000
     3  C    0.000037  -0.000049   0.000000   0.000000   0.000000   0.000000
     4  C    0.002202   0.000001   0.000000   0.000000   0.000000   0.000000
     5  C   -0.028278  -0.000007   0.000000   0.000000   0.000000   0.000000
     6  C    0.376089  -0.000269  -0.000009   0.000012   0.000000   0.000000
     7  Cl  -0.000071   0.000000   0.000000   0.000000   0.000000   0.000000
     8  C   -0.002744  -0.011893  -0.002541  -0.001303  -0.000002   0.000001
     9  N    0.000327   0.301131  -0.041660  -0.043796  -0.000129   0.000006
    10  C   -0.000011  -0.028284   0.399706   0.392022   0.001076   0.001388
    11  C    0.000000  -0.008522  -0.037275  -0.029628  -0.021588   0.000989
    12  N    0.000000   0.000785   0.002518  -0.000438   0.323224  -0.044640
    13  O    0.000000   0.000002  -0.000005  -0.000033  -0.026703   0.247119
    14  O    0.008758   0.001704   0.002413   0.002759   0.000000   0.000000
    15  O    0.000000   0.022061   0.001630   0.000299   0.001998   0.028767
    16  H   -0.000093   0.001421  -0.000021   0.000009   0.000000   0.000000
    17  H    0.000007  -0.000002   0.000000   0.000000   0.000000   0.000000
    18  H   -0.001280   0.000000   0.000000   0.000000   0.000000   0.000000
    19  H    0.404458  -0.000014  -0.000001   0.000001   0.000000   0.000000
    20  H   -0.000014   0.281684   0.002693   0.001408  -0.000023  -0.000041
    21  H   -0.000001   0.002693   0.484290  -0.030404   0.001134  -0.000045
    22  H    0.000001   0.001408  -0.030404   0.472783   0.000111  -0.000032
    23  H    0.000000  -0.000023   0.001134   0.000111   0.305912   0.002691
    24  H    0.000000  -0.000041  -0.000045  -0.000032   0.002691   0.252521
 Mulliken charges:
               1
     1  C   -0.124660
     2  C   -0.198186
     3  C   -0.192353
     4  C   -0.125428
     5  C   -0.192038
     6  C   -0.172269
     7  Cl   0.011263
     8  C    0.850658
     9  N   -0.884921
    10  C   -0.154602
    11  C    0.750950
    12  N   -0.425241
    13  O   -0.623715
    14  O   -0.646040
    15  O   -0.664055
    16  H    0.230534
    17  H    0.240806
    18  H    0.241616
    19  H    0.264991
    20  H    0.435278
    21  H    0.217542
    22  H    0.236295
    23  H    0.412299
    24  H    0.511277
 Sum of Mulliken charges =   0.00000
 Mulliken charges with hydrogens summed into heavy atoms:
               1
     1  C   -0.124660
     2  C    0.032348
     3  C    0.048452
     4  C   -0.125428
     5  C    0.049578
     6  C    0.092722
     7  Cl   0.011263
     8  C    0.850658
     9  N   -0.449643
    10  C    0.299235
    11  C    0.750950
    12  N   -0.012941
    13  O   -0.112439
    14  O   -0.646040
    15  O   -0.664055
 DipInt: DoE/N= T F RetVal/Mat= T F Init=T NMatP=  1 IDeriv=0 Min/MaxMlt=  0  4
 Entering OneElI...
 OneElI was handed   235770938 working-precision words.
 Multipole integrals L=0 to 4 MinM= 0 MaxM= 0.
 Requested accuracy = 0.1000D-12
 PrtBox:  NBox=     1 Levels=  1 BoxLen=   38.94 SMaxX=       21.05
          Shift=            9.941484            4.309881            1.552792
 Box      1 Number                   0 centers from      1 to     79:
 ShPair: Thresh= 1.00D-13 NBox=     1 BxSize= 3.89D+01 RnKept= 2.03D+01
         NSMCal=                 3160 NSMKep=                2457
 PrsmSu:  NPrtUS=   1 ThrOK=F IAlg=1 NPAlg=1 LenDen=           0.
 Prism:   IPart=     0 DynPar=F LinDyn=F Incr=          24.
 PRISM was handed   235531647 working-precision words and  2457 shell-pairs
 IPart=  0 NShTot=        2457 NBatch=          87 AvBLen=        28.2
 PrSmSu:  NxtVal=             25.
 Electronic moments (au):
       -118.00000000          0.41118925         -0.08454904         -0.31006083
      -5405.20666987       -666.22206403        -97.91359348          3.33093445
         -4.64961767          1.99587089      -2362.33487459       -682.79328148
         -2.71145236          8.15481353       6001.86034816       -153.36782320
        -41.44238594          7.05686886          5.94521198        248.69261106
    -452529.63576292      -8876.77868283       -366.41473208       4057.49440647
       4028.30224414        581.80263010        150.13231629        -41.96561034
         -9.92811386     -23025.64360049      -4124.96855961       -620.67703393
       -112.68046543       -152.57950190         40.54258109
 Electronic spatial extent (au):  <R**2>=           6169.3423
 DipInt: DoE/N= F T RetVal/Mat= T F Init=T NMatP=  1 IDeriv=0 Min/MaxMlt=  0  4
 Nuclear    moments (au):
        118.00000000          0.00000000          0.00000000          0.00000000
       5330.82843867        593.96341436         27.48017662          0.00000000
          0.00003057         -0.00005211       2397.13458085        631.49050151
          2.93335605         -4.57865059      -5908.39530125        119.25520745
         73.81997778         -5.30182565         -4.11244067       -261.99871969
     432425.16957437       6597.40111280         31.98996740      -3664.19228340
      -4439.34232303       -775.41103631       -107.62753132         25.96629007
         -2.86545236      19890.85605229       1010.12644909        195.95323122
         46.71510190        140.39867473        -29.30337579
 Total      moments (au):
          0.00000000          0.41118925         -0.08454904         -0.31006083
        -74.37823120        -72.25864967        -70.43341686          3.33093445
         -4.64958711          1.99581878         34.79970626        -51.30277997
          0.22190369          3.57616294         93.46504691        -34.11261575
         32.37759184          1.75504321          1.83277131        -13.30610863
     -20104.46618855      -2279.37757003       -334.42476468        393.30212307
       -411.04007889       -193.60840622         42.50478497        -15.99932026
        -12.79356622      -3134.78754820      -3114.84211052       -424.72380270
        -65.96536353        -12.18082718         11.23920529
 Traceless Quadrup. (au):
         -2.02146529          0.09811624          1.92334905          3.33093445
         -4.64958711          1.99581878
 Charge=              0.0000 electrons
 Dipole moment (field-independent basis, Debye):
    X=              1.0451    Y=             -0.2149    Z=             -0.7881  Tot=              1.3265
 Quadrupole moment (field-independent basis, Debye-Ang):
   XX=           -100.0413   YY=            -97.1904   ZZ=            -94.7354
   XY=              4.4802   XZ=             -6.2539   YZ=              2.6844
 Traceless Quadrupole moment (field-independent basis, Debye-Ang):
   XX=             -2.7189   YY=              0.1320   ZZ=              2.5870
   XY=              4.4802   XZ=             -6.2539   YZ=              2.6844
 Octapole moment (field-independent basis, Debye-Ang**2):
  XXX=             24.7691  YYY=            -36.5153  ZZZ=              0.1579  XYY=              2.5454
  XXY=             66.5248  XXZ=            -24.2800  XZZ=             23.0451  YZZ=              1.2492
  YYZ=              1.3045  XYZ=             -9.4708
 Hexadecapole moment (field-independent basis, Debye-Ang**3):
 XXXX=          -7572.3055 YYYY=           -858.5228 ZZZZ=           -125.9604 XXXY=            148.1364
 XXXZ=           -154.8174 YYYX=            -72.9222 YYYZ=             16.0093 ZZZX=             -6.0261
 ZZZY=             -4.8187 XXYY=          -1180.7112 XXZZ=          -1173.1988 YYZZ=           -159.9713
 XXYZ=            -24.8457 YYXZ=             -4.5879 ZZXY=              4.2332
 N-N= 9.995237027234D+02 E-N=-4.686408653135D+03  KE= 1.138050150359D+03
 Entering OneElI...
 OneElI was handed   235807919 working-precision words.
 Calculate electrostatic properties
    NBasis =   232  MinDer = 0  MaxDer = 0
    NGrid  =    24  NMatD  =   1
 Requested accuracy = 0.1000D-12
 PrtBox:  NBox=     1 Levels=  1 BoxLen=   32.45 SMaxX=       21.05
          Shift=            9.941484            4.309881            1.552792
 Box      1 Number                   0 centers from      1 to     79:
 ShPair: Thresh= 1.00D-13 NBox=     1 BxSize= 3.24D+01 RnKept= 1.72D+01
         NSMCal=                 3160 NSMKep=                2204
 PrsmSu:  NPrtUS=   1 ThrOK=F IAlg=1 NPAlg=1 LenDen=           0.
 Prism:   IPart=     0 DynPar=F LinDyn=F Incr=         512.
 PRISM was handed   235589143 working-precision words and  2204 shell-pairs
 IPart=  0 NShTot=       52896 NBatch=        2205 AvBLen=        24.0
 PrSmSu:  NxtVal=            513.
 --------------------------------------------------------
       Center         ----      EFG at Nuclei      ----
                      3XX-RR        3YY-RR        3ZZ-RR
 --------------------------------------------------------
     1   Atom        0.070845      0.143099     -0.213943
     2   Atom        0.171552      0.155735     -0.327287
     3   Atom        0.142971      0.117239     -0.260211
     4   Atom       -0.183605      0.312660     -0.129055
     5   Atom        0.177546      0.092963     -0.270509
     6   Atom        0.190757      0.191332     -0.382090
     7   Atom       -2.986364      1.230009      1.756355
     8   Atom        0.240424      0.295161     -0.535585
     9   Atom       -0.617832     -0.339519      0.957351
    10   Atom       -0.225198      0.052919      0.172279
    11   Atom        0.169413      0.307925     -0.477338
    12   Atom       -0.417155     -0.486984      0.904138
    13   Atom       -0.291967     -2.057049      2.349016
    14   Atom        1.619011     -0.933427     -0.685583
    15   Atom        1.235511     -0.699112     -0.536398
    16   Atom       -0.109019     -0.031313      0.140332
    17   Atom        0.126394     -0.276893      0.150499
    18   Atom       -0.120458     -0.027651      0.148109
    19   Atom        0.130926     -0.276726      0.145801
    20   Atom        0.138463     -0.313919      0.175455
    21   Atom        0.109528      0.015807     -0.125335
    22   Atom        0.122621      0.003632     -0.126254
    23   Atom        0.119888     -0.085693     -0.034195
    24   Atom       -0.027698     -0.157077      0.184774
 --------------------------------------------------------
                        XY            XZ            YZ
 --------------------------------------------------------
     1   Atom       -0.038690     -0.038868      0.081812
     2   Atom        0.035612     -0.050766      0.115070
     3   Atom        0.036645     -0.035219      0.079210
     4   Atom       -0.209512     -0.039711      0.114181
     5   Atom        0.012823     -0.047446      0.073311
     6   Atom        0.023112     -0.064468      0.118393
     7   Atom       -1.841169      0.121994      0.084964
     8   Atom        0.102048      0.023077     -0.076328
     9   Atom       -0.044217     -0.052290      0.296853
    10   Atom       -0.029743     -0.020324      0.001918
    11   Atom       -0.108382     -0.153333     -0.228665
    12   Atom        0.595939      0.379774      0.550342
    13   Atom        1.036687      0.571008      0.474990
    14   Atom       -0.366764      0.148295     -0.033437
    15   Atom       -0.770593     -0.157257      0.155854
    16   Atom        0.207216      0.075585     -0.071359
    17   Atom       -0.079046     -0.012463     -0.086566
    18   Atom        0.210519      0.070543     -0.059655
    19   Atom       -0.075345     -0.014144     -0.075141
    20   Atom       -0.075957      0.019465      0.171508
    21   Atom       -0.051478      0.073640      0.195089
    22   Atom       -0.032725     -0.044199     -0.197470
    23   Atom       -0.088175      0.123888      0.281402
    24   Atom       -0.226597      0.099670      0.119285
 --------------------------------------------------------


 ---------------------------------------------------------------------------------
              Nuclear Quadrupole Coupling Constant in Principal Axis System
 ---------------------------------------------------------------------------------

       Atom             a.u.   MegaHertz   Gauss  10(-4) cm-1        Axes

              Baa    -3.6810   -70.619   -25.199   -23.556  0.9359  0.3513 -0.0265
     7 Cl(35) Bbb     1.7522    33.616    11.995    11.213  0.0989 -0.1899  0.9768
              Bcc     1.9288    37.004    13.204    12.343 -0.3381  0.9168  0.2125
 
              Baa    -0.6247     3.000     1.071     1.001  0.9889  0.1483  0.0049
     9 N(14)  Bbb    -0.3996     1.919     0.685     0.640 -0.1437  0.9656 -0.2168
              Bcc     1.0243    -4.919    -1.755    -1.641 -0.0368  0.2137  0.9762
 
              Baa    -1.0612     5.096     1.819     1.700 -0.6487  0.7561 -0.0864
    12 N(14)  Bbb    -0.2257     1.084     0.387     0.362  0.6879  0.5341 -0.4914
              Bcc     1.2869    -6.181    -2.205    -2.062  0.3254  0.3782  0.8666
 

 ---------------------------------------------------------------------------------

 No NMR shielding tensors so no spin-rotation constants.
 Leave Link  601 at Thu Jan 16 21:49:21 2014, MaxMem=   235929600 cpu:         0.3
 FitSet:  NAtFit=    24 NAtPot=    24 NAtFrz=     0 MDM=    28 TotChg=   0.00000
 Merz-Kollman atomic radii used.
 Atom Element Radius
    1     6    1.50
    2     6    1.50
    3     6    1.50
    4     6    1.50
    5     6    1.50
    6     6    1.50
    7    17    1.70
    8     6    1.50
    9     7    1.50
   10     6    1.50
   11     6    1.50
   12     7    1.50
   13     8    1.40
   14     8    1.40
   15     8    1.40
   16     1    1.20
   17     1    1.20
   18     1    1.20
   19     1    1.20
   20     1    1.20
   21     1    1.20
   22     1    1.20
   23     1    1.20
   24     1    1.20
 Generate VDW surfaces: Layer= 5 Dens= 2 Start= 1.400 Inc= 0.179

 **********************************************************************

            Electrostatic Properties Using The SCF Density

 **********************************************************************

       Atomic Center    1 is at  -1.006242  0.614047 -0.072621
       Atomic Center    2 is at  -1.264867 -0.740186 -0.324985
       Atomic Center    3 is at  -2.567683 -1.234269 -0.293738
       Atomic Center    4 is at  -3.617097 -0.361737 -0.006898
       Atomic Center    5 is at  -3.385408  0.992838  0.236478
       Atomic Center    6 is at  -2.079834  1.472624  0.196752
       Atomic Center    7 is at  -5.260807 -0.978731  0.039273
       Atomic Center    8 is at   0.368080  1.218494 -0.092223
       Atomic Center    9 is at   1.420656  0.348907 -0.022279
       Atomic Center   10 is at   2.770894  0.856313  0.053254
       Atomic Center   11 is at   3.715266 -0.332427  0.148148
       Atomic Center   12 is at   5.026320 -0.079443 -0.097451
       Atomic Center   13 is at   5.879801 -1.192054 -0.135337
       Atomic Center   14 is at   0.546135  2.431851 -0.176227
       Atomic Center   15 is at   3.352074 -1.454139  0.511110
       Atomic Center   16 is at  -0.458598 -1.422006 -0.580063
       Atomic Center   17 is at  -2.768916 -2.280691 -0.495954
       Atomic Center   18 is at  -4.216001  1.656713  0.451158
       Atomic Center   19 is at  -1.868727  2.522361  0.371106
       Atomic Center   20 is at   1.304876 -0.608604  0.286123
       Atomic Center   21 is at   2.992797  1.478866 -0.821702
       Atomic Center   22 is at   2.910670  1.501068  0.933869
       Atomic Center   23 is at   5.321310  0.617093 -0.769717
       Atomic Center   24 is at   5.264740 -1.912083  0.134277
      ESP Fit Center   25 is at  -1.006242  0.614047  2.027379
      ESP Fit Center   26 is at  -0.288000  0.614047  1.900734
      ESP Fit Center   27 is at  -0.647121  1.236063  1.900734
      ESP Fit Center   28 is at  -1.365363 -0.007969  1.900734
      ESP Fit Center   29 is at  -0.647121 -0.007969  1.900734
      ESP Fit Center   30 is at  -1.198346  1.950162 -1.681314
      ESP Fit Center   31 is at  -0.288000  0.614047 -2.045975
      ESP Fit Center   32 is at  -0.647121  1.236063 -2.045975
      ESP Fit Center   33 is at  -1.365363  1.236063 -2.045975
      ESP Fit Center   34 is at  -1.724484  0.614047 -2.045975
      ESP Fit Center   35 is at  -1.006242  0.614047 -2.172621
      ESP Fit Center   36 is at  -1.264867 -0.740186  1.775015
      ESP Fit Center   37 is at  -0.546625 -0.740186  1.648370
      ESP Fit Center   38 is at  -1.623988 -1.362202  1.648370
      ESP Fit Center   39 is at  -0.905746 -1.362202  1.648370
      ESP Fit Center   40 is at  -1.456971 -2.076300  1.283708
      ESP Fit Center   41 is at  -0.704117 -1.968056  1.283708
      ESP Fit Center   42 is at  -0.129298 -1.469972  1.283708
      ESP Fit Center   43 is at  -0.702872 -2.469828  0.725015
      ESP Fit Center   44 is at  -0.129298 -0.010400 -1.933678
      ESP Fit Center   45 is at  -2.148833  0.279966 -1.933678
      ESP Fit Center   46 is at  -1.456971 -2.076300 -1.933678
      ESP Fit Center   47 is at  -0.546625 -0.740186 -2.298339
      ESP Fit Center   48 is at  -0.905746 -0.118170 -2.298339
      ESP Fit Center   49 is at  -1.623988 -0.118170 -2.298339
      ESP Fit Center   50 is at  -1.983109 -0.740186 -2.298339
      ESP Fit Center   51 is at  -1.623988 -1.362202 -2.298339
      ESP Fit Center   52 is at  -0.905746 -1.362202 -2.298339
      ESP Fit Center   53 is at  -1.264867 -0.740186 -2.424985
      ESP Fit Center   54 is at  -2.567683 -1.234269  1.806262
      ESP Fit Center   55 is at  -1.849441 -1.234269  1.679617
      ESP Fit Center   56 is at  -2.208562 -0.612253  1.679617
      ESP Fit Center   57 is at  -2.926804 -1.856285  1.679617
      ESP Fit Center   58 is at  -2.208562 -1.856285  1.679617
      ESP Fit Center   59 is at  -3.451649 -2.254420  1.314955
      ESP Fit Center   60 is at  -2.759787 -2.570383  1.314955
      ESP Fit Center   61 is at  -2.006933 -2.462139  1.314955
      ESP Fit Center   62 is at  -1.350766 -2.585792  0.756262
      ESP Fit Center   63 is at  -2.759787  0.101846 -1.902431
      ESP Fit Center   64 is at  -3.862858 -1.614567 -1.902431
      ESP Fit Center   65 is at  -2.208562 -0.612253 -2.267092
      ESP Fit Center   66 is at  -2.926804 -0.612253 -2.267092
      ESP Fit Center   67 is at  -3.285925 -1.234269 -2.267092
      ESP Fit Center   68 is at  -2.926804 -1.856285 -2.267092
      ESP Fit Center   69 is at  -2.208562 -1.856285 -2.267092
      ESP Fit Center   70 is at  -2.567683 -1.234269 -2.393738
      ESP Fit Center   71 is at  -3.617097 -0.361737  2.093102
      ESP Fit Center   72 is at  -2.898855 -0.361737  1.966457
      ESP Fit Center   73 is at  -3.257976 -0.983753  1.966457
      ESP Fit Center   74 is at  -2.267243 -0.361737  1.601795
      ESP Fit Center   75 is at  -4.501063  0.658415 -1.615591
      ESP Fit Center   76 is at  -3.257976  0.260279 -1.980252
      ESP Fit Center   77 is at  -3.976218  0.260279 -1.980252
      ESP Fit Center   78 is at  -3.976218 -0.983753 -1.980252
      ESP Fit Center   79 is at  -3.617097 -0.361737 -2.106898
      ESP Fit Center   80 is at  -3.385408  0.992838  2.336478
      ESP Fit Center   81 is at  -2.667166  0.992838  2.209833
      ESP Fit Center   82 is at  -3.026287  1.614854  2.209833
      ESP Fit Center   83 is at  -3.744529  1.614854  2.209833
      ESP Fit Center   84 is at  -4.103650  0.992838  2.209833
      ESP Fit Center   85 is at  -3.744529  0.370822  2.209833
      ESP Fit Center   86 is at  -3.026287  0.370822  2.209833
      ESP Fit Center   87 is at  -4.680583  0.612540  1.845171
      ESP Fit Center   88 is at  -3.575509  2.801529 -0.813522
      ESP Fit Center   89 is at  -3.577512  2.328953 -1.372215
      ESP Fit Center   90 is at  -4.269374  2.012990 -1.372215
      ESP Fit Center   91 is at  -4.680583  1.373136 -1.372215
      ESP Fit Center   92 is at  -3.026287  1.614854 -1.736876
      ESP Fit Center   93 is at  -3.744529  1.614854 -1.736876
      ESP Fit Center   94 is at  -4.103650  0.992838 -1.736876
      ESP Fit Center   95 is at  -3.385408  0.992838 -1.863522
      ESP Fit Center   96 is at  -2.079834  1.472624  2.296752
      ESP Fit Center   97 is at  -1.361592  1.472624  2.170107
      ESP Fit Center   98 is at  -1.720713  2.094640  2.170107
      ESP Fit Center   99 is at  -2.438955  2.094640  2.170107
      ESP Fit Center  100 is at  -2.438955  0.850608  2.170107
      ESP Fit Center  101 is at  -1.720713  0.850608  2.170107
      ESP Fit Center  102 is at  -0.944265  2.202410  1.805445
      ESP Fit Center  103 is at  -2.963800  2.492776  1.805445
      ESP Fit Center  104 is at  -2.271938  0.136510  1.805445
      ESP Fit Center  105 is at  -2.989161  3.047624 -0.853248
      ESP Fit Center  106 is at  -1.519084  2.700495 -1.411941
      ESP Fit Center  107 is at  -2.271938  2.808739 -1.411941
      ESP Fit Center  108 is at  -2.963800  2.492776 -1.411941
      ESP Fit Center  109 is at  -1.720713  2.094640 -1.776602
      ESP Fit Center  110 is at  -2.438955  2.094640 -1.776602
      ESP Fit Center  111 is at  -2.798076  1.472624 -1.776602
      ESP Fit Center  112 is at  -2.438955  0.850608 -1.776602
      ESP Fit Center  113 is at  -2.079834  1.472624 -1.903248
      ESP Fit Center  114 is at  -5.260807 -0.978731  2.419273
      ESP Fit Center  115 is at  -4.525347 -0.978731  2.302788
      ESP Fit Center  116 is at  -4.893077 -0.341803  2.302788
      ESP Fit Center  117 is at  -5.628537 -0.341803  2.302788
      ESP Fit Center  118 is at  -5.996267 -0.978731  2.302788
      ESP Fit Center  119 is at  -5.628537 -1.615658  2.302788
      ESP Fit Center  120 is at  -4.893077 -1.615658  2.302788
      ESP Fit Center  121 is at  -4.561343  0.232777  1.964733
      ESP Fit Center  122 is at  -5.260807  0.420198  1.964733
      ESP Fit Center  123 is at  -5.960271  0.232777  1.964733
      ESP Fit Center  124 is at  -6.472315 -0.279266  1.964733
      ESP Fit Center  125 is at  -6.659736 -0.978731  1.964733
      ESP Fit Center  126 is at  -6.472315 -1.678195  1.964733
      ESP Fit Center  127 is at  -5.960271 -2.190239  1.964733
      ESP Fit Center  128 is at  -5.260807 -2.377660  1.964733
      ESP Fit Center  129 is at  -4.561343 -2.190239  1.964733
      ESP Fit Center  130 is at  -4.049299 -1.678195  1.964733
      ESP Fit Center  131 is at  -5.997649  0.800163  1.438202
      ESP Fit Center  132 is at  -6.622313  0.382775  1.438202
      ESP Fit Center  133 is at  -7.039700 -0.241889  1.438202
      ESP Fit Center  134 is at  -7.186267 -0.978731  1.438202
      ESP Fit Center  135 is at  -7.039700 -1.715573  1.438202
      ESP Fit Center  136 is at  -6.622313 -2.340237  1.438202
      ESP Fit Center  137 is at  -5.997649 -2.757624  1.438202
      ESP Fit Center  138 is at  -5.260807 -2.904191  1.438202
      ESP Fit Center  139 is at  -4.523965 -2.757624  1.438202
      ESP Fit Center  140 is at  -3.899301 -2.340237  1.438202
      ESP Fit Center  141 is at  -6.170050  1.094135  0.774733
      ESP Fit Center  142 is at  -6.793844  0.686591  0.774733
      ESP Fit Center  143 is at  -7.251509  0.098583  0.774733
      ESP Fit Center  144 is at  -7.493450 -0.606169  0.774733
      ESP Fit Center  145 is at  -7.493450 -1.351293  0.774733
      ESP Fit Center  146 is at  -7.251509 -2.056045  0.774733
      ESP Fit Center  147 is at  -6.793844 -2.644053  0.774733
      ESP Fit Center  148 is at  -6.170050 -3.051597  0.774733
      ESP Fit Center  149 is at  -5.447727 -3.234514  0.774733
      ESP Fit Center  150 is at  -4.705147 -3.172982  0.774733
      ESP Fit Center  151 is at  -4.022782 -2.873669  0.774733
      ESP Fit Center  152 is at  -6.450807  1.082410  0.039273
      ESP Fit Center  153 is at  -7.005470  0.640080  0.039273
      ESP Fit Center  154 is at  -7.405113  0.053912  0.039273
      ESP Fit Center  155 is at  -7.614224 -0.624010  0.039273
      ESP Fit Center  156 is at  -7.614224 -1.333451  0.039273
      ESP Fit Center  157 is at  -7.405113 -2.011374  0.039273
      ESP Fit Center  158 is at  -7.005470 -2.597542  0.039273
      ESP Fit Center  159 is at  -6.450807 -3.039871  0.039273
      ESP Fit Center  160 is at  -5.790407 -3.299059  0.039273
      ESP Fit Center  161 is at  -5.082949 -3.352076  0.039273
      ESP Fit Center  162 is at  -4.391295 -3.194210  0.039273
      ESP Fit Center  163 is at  -5.447727  1.277053 -0.696187
      ESP Fit Center  164 is at  -6.170050  1.094135 -0.696187
      ESP Fit Center  165 is at  -6.793844  0.686591 -0.696187
      ESP Fit Center  166 is at  -7.251509  0.098583 -0.696187
      ESP Fit Center  167 is at  -7.493450 -0.606169 -0.696187
      ESP Fit Center  168 is at  -7.493450 -1.351293 -0.696187
      ESP Fit Center  169 is at  -7.251509 -2.056045 -0.696187
      ESP Fit Center  170 is at  -6.793844 -2.644053 -0.696187
      ESP Fit Center  171 is at  -6.170050 -3.051597 -0.696187
      ESP Fit Center  172 is at  -5.447727 -3.234514 -0.696187
      ESP Fit Center  173 is at  -4.705147 -3.172982 -0.696187
      ESP Fit Center  174 is at  -5.260807  0.946730 -1.359656
      ESP Fit Center  175 is at  -5.997649  0.800163 -1.359656
      ESP Fit Center  176 is at  -6.622313  0.382775 -1.359656
      ESP Fit Center  177 is at  -7.039700 -0.241889 -1.359656
      ESP Fit Center  178 is at  -7.186267 -0.978731 -1.359656
      ESP Fit Center  179 is at  -7.039700 -1.715573 -1.359656
      ESP Fit Center  180 is at  -6.622313 -2.340237 -1.359656
      ESP Fit Center  181 is at  -5.997649 -2.757624 -1.359656
      ESP Fit Center  182 is at  -5.260807 -2.904191 -1.359656
      ESP Fit Center  183 is at  -4.523965 -2.757624 -1.359656
      ESP Fit Center  184 is at  -4.561343  0.232777 -1.886187
      ESP Fit Center  185 is at  -5.260807  0.420198 -1.886187
      ESP Fit Center  186 is at  -5.960271  0.232777 -1.886187
      ESP Fit Center  187 is at  -6.472315 -0.279266 -1.886187
      ESP Fit Center  188 is at  -6.659736 -0.978731 -1.886187
      ESP Fit Center  189 is at  -6.472315 -1.678195 -1.886187
      ESP Fit Center  190 is at  -5.960271 -2.190239 -1.886187
      ESP Fit Center  191 is at  -5.260807 -2.377660 -1.886187
      ESP Fit Center  192 is at  -4.561343 -2.190239 -1.886187
      ESP Fit Center  193 is at  -4.049299 -1.678195 -1.886187
      ESP Fit Center  194 is at  -4.525347 -0.978731 -2.224241
      ESP Fit Center  195 is at  -4.893077 -0.341803 -2.224241
      ESP Fit Center  196 is at  -5.628537 -0.341803 -2.224241
      ESP Fit Center  197 is at  -5.996267 -0.978731 -2.224241
      ESP Fit Center  198 is at  -5.628537 -1.615658 -2.224241
      ESP Fit Center  199 is at  -4.893077 -1.615658 -2.224241
      ESP Fit Center  200 is at  -5.260807 -0.978731 -2.340727
      ESP Fit Center  201 is at   0.368080  1.218494  2.007777
      ESP Fit Center  202 is at   1.086322  1.218494  1.881132
      ESP Fit Center  203 is at   0.727201  1.840510  1.881132
      ESP Fit Center  204 is at   0.008959  1.840510  1.881132
      ESP Fit Center  205 is at  -0.350162  1.218494  1.881132
      ESP Fit Center  206 is at   0.008959  0.596478  1.881132
      ESP Fit Center  207 is at  -0.515886  2.238646  1.516470
      ESP Fit Center  208 is at   1.086322  1.218494 -2.065577
      ESP Fit Center  209 is at   0.727201  1.840510 -2.065577
      ESP Fit Center  210 is at   0.008959  1.840510 -2.065577
      ESP Fit Center  211 is at  -0.350162  1.218494 -2.065577
      ESP Fit Center  212 is at   0.008959  0.596478 -2.065577
      ESP Fit Center  213 is at   0.727201  0.596478 -2.065577
      ESP Fit Center  214 is at   0.368080  1.218494 -2.192223
      ESP Fit Center  215 is at   1.420656  0.348907  2.077721
      ESP Fit Center  216 is at   1.061535  0.970923  1.951076
      ESP Fit Center  217 is at   0.702414  0.348907  1.951076
      ESP Fit Center  218 is at   1.061535 -0.273109  1.951076
      ESP Fit Center  219 is at   1.779777 -0.273109  1.951076
      ESP Fit Center  220 is at   0.125481 -0.031391  1.586414
      ESP Fit Center  221 is at   1.982651 -1.380735 -1.072279
      ESP Fit Center  222 is at   1.228552 -0.987207 -1.630972
      ESP Fit Center  223 is at   1.981406 -0.878963 -1.630972
      ESP Fit Center  224 is at   2.556225 -0.380879 -1.630972
      ESP Fit Center  225 is at   2.138898  0.348907 -1.995633
      ESP Fit Center  226 is at   1.779777  0.970923 -1.995633
      ESP Fit Center  227 is at   0.702414  0.348907 -1.995633
      ESP Fit Center  228 is at   1.061535 -0.273109 -1.995633
      ESP Fit Center  229 is at   1.779777 -0.273109 -1.995633
      ESP Fit Center  230 is at   1.420656  0.348907 -2.122279
      ESP Fit Center  231 is at   2.411773  0.234297  2.026609
      ESP Fit Center  232 is at   2.411773  0.234297 -1.920100
      ESP Fit Center  233 is at   3.715266 -0.332427  2.248148
      ESP Fit Center  234 is at   4.433508 -0.332427  2.121503
      ESP Fit Center  235 is at   4.074387  0.289589  2.121503
      ESP Fit Center  236 is at   3.356145  0.289589  2.121503
      ESP Fit Center  237 is at   2.997024 -0.332427  2.121503
      ESP Fit Center  238 is at   4.276016  0.895443  1.756841
      ESP Fit Center  239 is at   4.850835 -1.062213  1.756841
      ESP Fit Center  240 is at   2.831300 -1.352578 -1.460545
      ESP Fit Center  241 is at   3.523162 -1.668541 -1.460545
      ESP Fit Center  242 is at   4.276016 -1.560297 -1.460545
      ESP Fit Center  243 is at   2.997024 -0.332427 -1.825206
      ESP Fit Center  244 is at   3.356145 -0.954443 -1.825206
      ESP Fit Center  245 is at   4.074387 -0.954443 -1.825206
      ESP Fit Center  246 is at   3.715266 -0.332427 -1.951852
      ESP Fit Center  247 is at   5.026320 -0.079443  2.002549
      ESP Fit Center  248 is at   5.744562 -0.079443  1.875904
      ESP Fit Center  249 is at   5.385441  0.542573  1.875904
      ESP Fit Center  250 is at   4.667199  0.542573  1.875904
      ESP Fit Center  251 is at   5.385441 -0.701459  1.875904
      ESP Fit Center  252 is at   6.376174 -0.079443  1.511242
      ESP Fit Center  253 is at   6.161889  0.650343  1.511242
      ESP Fit Center  254 is at   5.587070  1.148427  1.511242
      ESP Fit Center  255 is at   4.834216  1.256672  1.511242
      ESP Fit Center  256 is at   6.687743  0.660270  0.952549
      ESP Fit Center  257 is at   6.243237  1.272080  0.952549
      ESP Fit Center  258 is at   5.588315  1.650199  0.952549
      ESP Fit Center  259 is at   4.836219  1.729248  0.952549
      ESP Fit Center  260 is at   6.954762  0.667640  0.267210
      ESP Fit Center  261 is at   6.554662  1.313825  0.267210
      ESP Fit Center  262 is at   5.217140  1.979831  0.267210
      ESP Fit Center  263 is at   4.308078 -0.079443 -2.070805
      ESP Fit Center  264 is at   4.667199 -0.701459 -2.070805
      ESP Fit Center  265 is at   5.385441 -0.701459 -2.070805
      ESP Fit Center  266 is at   5.879801 -1.192054  1.824663
      ESP Fit Center  267 is at   6.629861 -1.192054  1.675467
      ESP Fit Center  268 is at   6.254831 -0.542483  1.675467
      ESP Fit Center  269 is at   6.254831 -1.841625  1.675467
      ESP Fit Center  270 is at   7.265730 -1.192054  1.250592
      ESP Fit Center  271 is at   7.080051 -0.499089  1.250592
      ESP Fit Center  272 is at   6.572766 -2.392304  1.250592
      ESP Fit Center  273 is at   7.080051 -1.885019  1.250592
      ESP Fit Center  274 is at   7.690605 -1.192054  0.614723
      ESP Fit Center  275 is at   7.534053 -0.455534  0.614723
      ESP Fit Center  276 is at   7.091465  0.153636  0.614723
      ESP Fit Center  277 is at   7.091465 -2.537743  0.614723
      ESP Fit Center  278 is at   7.534053 -1.928574  0.614723
      ESP Fit Center  279 is at   7.839801 -1.192054 -0.135337
      ESP Fit Center  280 is at   7.707447 -0.484020 -0.135337
      ESP Fit Center  281 is at   7.328258  0.128390 -0.135337
      ESP Fit Center  282 is at   6.753448 -2.946574 -0.135337
      ESP Fit Center  283 is at   7.328258 -2.512497 -0.135337
      ESP Fit Center  284 is at   7.707447 -1.900088 -0.135337
      ESP Fit Center  285 is at   7.690605 -1.192054 -0.885397
      ESP Fit Center  286 is at   7.534053 -0.455534 -0.885397
      ESP Fit Center  287 is at   7.091465  0.153636 -0.885397
      ESP Fit Center  288 is at   6.439370 -2.914231 -0.885397
      ESP Fit Center  289 is at   7.091465 -2.537743 -0.885397
      ESP Fit Center  290 is at   7.534053 -1.928574 -0.885397
      ESP Fit Center  291 is at   7.265730 -1.192054 -1.521266
      ESP Fit Center  292 is at   7.080051 -0.499089 -1.521266
      ESP Fit Center  293 is at   4.679551 -1.885019 -1.521266
      ESP Fit Center  294 is at   5.186836 -2.392304 -1.521266
      ESP Fit Center  295 is at   5.879801 -2.577983 -1.521266
      ESP Fit Center  296 is at   6.572766 -2.392304 -1.521266
      ESP Fit Center  297 is at   7.080051 -1.885019 -1.521266
      ESP Fit Center  298 is at   6.629861 -1.192054 -1.946141
      ESP Fit Center  299 is at   6.254831 -0.542483 -1.946141
      ESP Fit Center  300 is at   5.129741 -1.192054 -1.946141
      ESP Fit Center  301 is at   5.504771 -1.841625 -1.946141
      ESP Fit Center  302 is at   6.254831 -1.841625 -1.946141
      ESP Fit Center  303 is at   5.879801 -1.192054 -2.095337
      ESP Fit Center  304 is at   0.546135  2.431851  1.783773
      ESP Fit Center  305 is at   1.296195  2.431851  1.634577
      ESP Fit Center  306 is at   0.921165  3.081422  1.634577
      ESP Fit Center  307 is at   0.171105  3.081422  1.634577
      ESP Fit Center  308 is at  -0.203924  2.431851  1.634577
      ESP Fit Center  309 is at   1.746385  3.124816  1.209702
      ESP Fit Center  310 is at   1.239100  3.632101  1.209702
      ESP Fit Center  311 is at   0.546135  3.817780  1.209702
      ESP Fit Center  312 is at  -0.146830  3.632101  1.209702
      ESP Fit Center  313 is at   2.200387  3.168371  0.573833
      ESP Fit Center  314 is at   1.757799  3.777541  0.573833
      ESP Fit Center  315 is at   1.105704  4.154028  0.573833
      ESP Fit Center  316 is at   0.356854  4.232735  0.573833
      ESP Fit Center  317 is at  -0.359267  4.000053  0.573833
      ESP Fit Center  318 is at   2.373781  3.139885 -0.176227
      ESP Fit Center  319 is at   1.994593  3.752295 -0.176227
      ESP Fit Center  320 is at   1.419782  4.186371 -0.176227
      ESP Fit Center  321 is at   0.726981  4.383490 -0.176227
      ESP Fit Center  322 is at   0.009756  4.317029 -0.176227
      ESP Fit Center  323 is at  -0.635029  3.995965 -0.176227
      ESP Fit Center  324 is at   2.200387  3.168371 -0.926287
      ESP Fit Center  325 is at   1.757799  3.777541 -0.926287
      ESP Fit Center  326 is at   1.105704  4.154028 -0.926287
      ESP Fit Center  327 is at   0.356854  4.232735 -0.926287
      ESP Fit Center  328 is at  -0.359267  4.000053 -0.926287
      ESP Fit Center  329 is at  -0.918836  3.496215 -0.926287
      ESP Fit Center  330 is at   1.746385  3.124816 -1.562156
      ESP Fit Center  331 is at   1.239100  3.632101 -1.562156
      ESP Fit Center  332 is at   0.546135  3.817780 -1.562156
      ESP Fit Center  333 is at  -0.146830  3.632101 -1.562156
      ESP Fit Center  334 is at  -0.654115  3.124816 -1.562156
      ESP Fit Center  335 is at  -0.839794  2.431851 -1.562156
      ESP Fit Center  336 is at   1.296195  2.431851 -1.987031
      ESP Fit Center  337 is at   0.921165  3.081422 -1.987031
      ESP Fit Center  338 is at   0.171105  3.081422 -1.987031
      ESP Fit Center  339 is at  -0.203924  2.431851 -1.987031
      ESP Fit Center  340 is at   0.546135  2.431851 -2.136227
      ESP Fit Center  341 is at   3.352074 -1.454139  2.471110
      ESP Fit Center  342 is at   4.102134 -1.454139  2.321914
      ESP Fit Center  343 is at   3.727104 -0.804568  2.321914
      ESP Fit Center  344 is at   2.977044 -0.804568  2.321914
      ESP Fit Center  345 is at   2.602014 -1.454139  2.321914
      ESP Fit Center  346 is at   2.977044 -2.103710  2.321914
      ESP Fit Center  347 is at   3.727104 -2.103710  2.321914
      ESP Fit Center  348 is at   4.738003 -1.454139  1.897039
      ESP Fit Center  349 is at   2.151824 -0.761174  1.897039
      ESP Fit Center  350 is at   1.966145 -1.454139  1.897039
      ESP Fit Center  351 is at   2.151824 -2.147104  1.897039
      ESP Fit Center  352 is at   2.659109 -2.654389  1.897039
      ESP Fit Center  353 is at   3.352074 -2.840068  1.897039
      ESP Fit Center  354 is at   4.045039 -2.654389  1.897039
      ESP Fit Center  355 is at   4.552324 -2.147104  1.897039
      ESP Fit Center  356 is at   1.887103 -2.518503  1.261170
      ESP Fit Center  357 is at   2.446672 -3.022341  1.261170
      ESP Fit Center  358 is at   3.162793 -3.255023  1.261170
      ESP Fit Center  359 is at   3.911643 -3.176316  1.261170
      ESP Fit Center  360 is at   1.685648 -2.485946  0.511110
      ESP Fit Center  361 is at   2.170910 -3.018253  0.511110
      ESP Fit Center  362 is at   2.815695 -3.339317  0.511110
      ESP Fit Center  363 is at   3.532920 -3.405778  0.511110
      ESP Fit Center  364 is at   4.225721 -3.208659  0.511110
      ESP Fit Center  365 is at   1.887103 -2.518503 -0.238950
      ESP Fit Center  366 is at   2.446672 -3.022341 -0.238950
      ESP Fit Center  367 is at   3.162793 -3.255023 -0.238950
      ESP Fit Center  368 is at   3.911643 -3.176316 -0.238950
      ESP Fit Center  369 is at   2.151824 -2.147104 -0.874819
      ESP Fit Center  370 is at   2.659109 -2.654389 -0.874819
      ESP Fit Center  371 is at   3.352074 -2.840068 -0.874819
      ESP Fit Center  372 is at   4.045039 -2.654389 -0.874819
      ESP Fit Center  373 is at   2.602014 -1.454139 -1.299694
      ESP Fit Center  374 is at   2.977044 -2.103710 -1.299694
      ESP Fit Center  375 is at   3.727104 -2.103710 -1.299694
      ESP Fit Center  376 is at  -0.094136 -2.053273  0.933565
      ESP Fit Center  377 is at  -0.864485 -2.671197  0.467400
      ESP Fit Center  378 is at  -0.052711 -2.671197  0.467400
      ESP Fit Center  379 is at   0.604027 -2.194048  0.467400
      ESP Fit Center  380 is at  -1.039398 -2.953449 -0.206228
      ESP Fit Center  381 is at  -0.261174 -3.047943 -0.206228
      ESP Fit Center  382 is at   0.471823 -2.769954 -0.206228
      ESP Fit Center  383 is at  -1.039398 -2.953449 -0.953898
      ESP Fit Center  384 is at  -0.261174 -3.047943 -0.953898
      ESP Fit Center  385 is at   0.471823 -2.769954 -0.953898
      ESP Fit Center  386 is at   0.991672 -2.183166 -0.953898
      ESP Fit Center  387 is at   0.854879 -1.422006 -1.627526
      ESP Fit Center  388 is at  -0.864485 -2.671197 -1.627526
      ESP Fit Center  389 is at  -0.052711 -2.671197 -1.627526
      ESP Fit Center  390 is at   0.604027 -2.194048 -1.627526
      ESP Fit Center  391 is at   0.270327 -1.422006 -2.093691
      ESP Fit Center  392 is at  -0.094136 -0.790739 -2.093691
      ESP Fit Center  393 is at  -0.823060 -2.053273 -2.093691
      ESP Fit Center  394 is at  -0.094136 -2.053273 -2.093691
      ESP Fit Center  395 is at  -0.458598 -1.422006 -2.260063
      ESP Fit Center  396 is at  -3.133378 -2.911958  1.017674
      ESP Fit Center  397 is at  -2.404454 -2.911958  1.017674
      ESP Fit Center  398 is at  -3.831541 -3.052733  0.551509
      ESP Fit Center  399 is at  -3.174803 -3.529882  0.551509
      ESP Fit Center  400 is at  -2.363029 -3.529882  0.551509
      ESP Fit Center  401 is at  -1.706291 -3.052733  0.551509
      ESP Fit Center  402 is at  -3.994886 -3.366805 -0.122119
      ESP Fit Center  403 is at  -3.349716 -3.812134 -0.122119
      ESP Fit Center  404 is at  -2.571492 -3.906628 -0.122119
      ESP Fit Center  405 is at  -1.838495 -3.628639 -0.122119
      ESP Fit Center  406 is at  -1.318646 -3.041851 -0.122119
      ESP Fit Center  407 is at  -3.994886 -3.366805 -0.869789
      ESP Fit Center  408 is at  -3.349716 -3.812134 -0.869789
      ESP Fit Center  409 is at  -2.571492 -3.906628 -0.869789
      ESP Fit Center  410 is at  -1.838495 -3.628639 -0.869789
      ESP Fit Center  411 is at  -1.318646 -3.041851 -0.869789
      ESP Fit Center  412 is at  -3.831541 -3.052733 -1.543417
      ESP Fit Center  413 is at  -3.174803 -3.529882 -1.543417
      ESP Fit Center  414 is at  -2.363029 -3.529882 -1.543417
      ESP Fit Center  415 is at  -1.706291 -3.052733 -1.543417
      ESP Fit Center  416 is at  -3.497841 -2.280691 -2.009582
      ESP Fit Center  417 is at  -3.133378 -2.911958 -2.009582
      ESP Fit Center  418 is at  -2.404454 -2.911958 -2.009582
      ESP Fit Center  419 is at  -2.768916 -2.280691 -2.175954
      ESP Fit Center  420 is at  -4.216001  1.656713  2.131158
      ESP Fit Center  421 is at  -3.851539  2.287980  1.964786
      ESP Fit Center  422 is at  -4.580463  2.287980  1.964786
      ESP Fit Center  423 is at  -4.944926  1.656713  1.964786
      ESP Fit Center  424 is at  -4.580463  1.025446  1.964786
      ESP Fit Center  425 is at  -3.810114  2.905904  1.498621
      ESP Fit Center  426 is at  -4.621888  2.905904  1.498621
      ESP Fit Center  427 is at  -5.278626  2.428756  1.498621
      ESP Fit Center  428 is at  -5.529478  1.656713  1.498621
      ESP Fit Center  429 is at  -4.018576  3.282650  0.824993
      ESP Fit Center  430 is at  -4.796801  3.188157  0.824993
      ESP Fit Center  431 is at  -5.441971  2.742828  0.824993
      ESP Fit Center  432 is at  -5.806286  2.048683  0.824993
      ESP Fit Center  433 is at  -5.806286  1.264743  0.824993
      ESP Fit Center  434 is at  -4.018576  3.282650  0.077323
      ESP Fit Center  435 is at  -4.796801  3.188157  0.077323
      ESP Fit Center  436 is at  -5.441971  2.742828  0.077323
      ESP Fit Center  437 is at  -5.806286  2.048683  0.077323
      ESP Fit Center  438 is at  -3.810114  2.905904 -0.596305
      ESP Fit Center  439 is at  -4.621888  2.905904 -0.596305
      ESP Fit Center  440 is at  -5.278626  2.428756 -0.596305
      ESP Fit Center  441 is at  -5.529478  1.656713 -0.596305
      ESP Fit Center  442 is at  -4.580463  2.287980 -1.062470
      ESP Fit Center  443 is at  -4.944926  1.656713 -1.062470
      ESP Fit Center  444 is at  -1.868727  2.522361  2.051106
      ESP Fit Center  445 is at  -1.139802  2.522361  1.884734
      ESP Fit Center  446 is at  -1.504265  3.153628  1.884734
      ESP Fit Center  447 is at  -2.233189  3.153628  1.884734
      ESP Fit Center  448 is at  -0.806102  3.294403  1.418569
      ESP Fit Center  449 is at  -1.462840  3.771552  1.418569
      ESP Fit Center  450 is at  -2.274614  3.771552  1.418569
      ESP Fit Center  451 is at  -2.931352  3.294403  1.418569
      ESP Fit Center  452 is at  -0.938306  3.870309  0.744941
      ESP Fit Center  453 is at  -1.671302  4.148298  0.744941
      ESP Fit Center  454 is at  -2.449527  4.053805  0.744941
      ESP Fit Center  455 is at  -3.094697  3.608476  0.744941
      ESP Fit Center  456 is at  -0.938306  3.870309 -0.002729
      ESP Fit Center  457 is at  -1.671302  4.148298 -0.002729
      ESP Fit Center  458 is at  -2.449527  4.053805 -0.002729
      ESP Fit Center  459 is at  -3.094697  3.608476 -0.002729
      ESP Fit Center  460 is at  -1.462840  3.771552 -0.676357
      ESP Fit Center  461 is at  -2.274614  3.771552 -0.676357
      ESP Fit Center  462 is at  -2.931352  3.294403 -0.676357
      ESP Fit Center  463 is at  -1.504265  3.153628 -1.142522
      ESP Fit Center  464 is at  -2.233189  3.153628 -1.142522
      ESP Fit Center  465 is at   1.304876 -0.608604  1.966123
      ESP Fit Center  466 is at   2.033801 -0.608604  1.799751
      ESP Fit Center  467 is at   0.575951 -0.608604  1.799751
      ESP Fit Center  468 is at   0.940414 -1.239871  1.799751
      ESP Fit Center  469 is at   1.669338 -1.239871  1.799751
      ESP Fit Center  470 is at   0.242251 -1.380646  1.333586
      ESP Fit Center  471 is at   0.898989 -1.857795  1.333586
      ESP Fit Center  472 is at   0.724076 -2.140047  0.659958
      ESP Fit Center  473 is at   1.502300 -2.234541  0.659958
      ESP Fit Center  474 is at   1.502300 -2.234541 -0.087712
      ESP Fit Center  475 is at   1.710763 -1.857795 -0.761340
      ESP Fit Center  476 is at   4.443067  2.240026 -0.447867
      ESP Fit Center  477 is at   3.923218  2.826814 -0.447867
      ESP Fit Center  478 is at   3.190222  3.104803 -0.447867
      ESP Fit Center  479 is at   2.411997  3.010309 -0.447867
      ESP Fit Center  480 is at   4.443067  2.240026 -1.195537
      ESP Fit Center  481 is at   3.923218  2.826814 -1.195537
      ESP Fit Center  482 is at   3.190222  3.104803 -1.195537
      ESP Fit Center  483 is at   2.411997  3.010309 -1.195537
      ESP Fit Center  484 is at   4.306274  1.478866 -1.869165
      ESP Fit Center  485 is at   4.055422  2.250908 -1.869165
      ESP Fit Center  486 is at   3.398684  2.728057 -1.869165
      ESP Fit Center  487 is at   2.586910  2.728057 -1.869165
      ESP Fit Center  488 is at   1.930172  2.250908 -1.869165
      ESP Fit Center  489 is at   1.679320  1.478866 -1.869165
      ESP Fit Center  490 is at   3.398684  0.229675 -1.869165
      ESP Fit Center  491 is at   3.721722  1.478866 -2.335330
      ESP Fit Center  492 is at   3.357259  2.110133 -2.335330
      ESP Fit Center  493 is at   2.628335  2.110133 -2.335330
      ESP Fit Center  494 is at   2.263872  1.478866 -2.335330
      ESP Fit Center  495 is at   2.628335  0.847599 -2.335330
      ESP Fit Center  496 is at   3.357259  0.847599 -2.335330
      ESP Fit Center  497 is at   2.992797  1.478866 -2.501702
      ESP Fit Center  498 is at   2.910670  1.501068  2.613869
      ESP Fit Center  499 is at   3.639595  1.501068  2.447497
      ESP Fit Center  500 is at   3.275132  2.132335  2.447497
      ESP Fit Center  501 is at   2.546208  2.132335  2.447497
      ESP Fit Center  502 is at   2.181745  1.501068  2.447497
      ESP Fit Center  503 is at   2.546208  0.869801  2.447497
      ESP Fit Center  504 is at   3.275132  0.869801  2.447497
      ESP Fit Center  505 is at   4.224147  1.501068  1.981332
      ESP Fit Center  506 is at   3.973295  2.273110  1.981332
      ESP Fit Center  507 is at   3.316557  2.750259  1.981332
      ESP Fit Center  508 is at   2.504783  2.750259  1.981332
      ESP Fit Center  509 is at   1.848045  2.273110  1.981332
      ESP Fit Center  510 is at   1.597193  1.501068  1.981332
      ESP Fit Center  511 is at   3.973295  0.729026  1.981332
      ESP Fit Center  512 is at   4.548549  1.501068  1.307704
      ESP Fit Center  513 is at   4.360940  2.262228  1.307704
      ESP Fit Center  514 is at   3.841091  2.849016  1.307704
      ESP Fit Center  515 is at   3.108095  3.127005  1.307704
      ESP Fit Center  516 is at   2.329870  3.032511  1.307704
      ESP Fit Center  517 is at   4.360940  2.262228  0.560034
      ESP Fit Center  518 is at   3.841091  2.849016  0.560034
      ESP Fit Center  519 is at   3.108095  3.127005  0.560034
      ESP Fit Center  520 is at   2.329870  3.032511  0.560034
      ESP Fit Center  521 is at   5.727197  1.866284  0.277746
      ESP Fit Center  522 is at   6.771580  1.378253 -0.395882
      ESP Fit Center  523 is at   6.251731  1.965041 -0.395882
      ESP Fit Center  524 is at   5.518735  2.243030 -0.395882
      ESP Fit Center  525 is at   4.740510  2.148536 -0.395882
      ESP Fit Center  526 is at   6.959189  0.617093 -1.143552
      ESP Fit Center  527 is at   6.771580  1.378253 -1.143552
      ESP Fit Center  528 is at   6.251731  1.965041 -1.143552
      ESP Fit Center  529 is at   5.518735  2.243030 -1.143552
      ESP Fit Center  530 is at   4.740510  2.148536 -1.143552
      ESP Fit Center  531 is at   6.634787  0.617093 -1.817180
      ESP Fit Center  532 is at   6.383935  1.389135 -1.817180
      ESP Fit Center  533 is at   5.727197  1.866284 -1.817180
      ESP Fit Center  534 is at   4.915423  1.866284 -1.817180
      ESP Fit Center  535 is at   6.383935 -0.154949 -1.817180
      ESP Fit Center  536 is at   6.050235  0.617093 -2.283345
      ESP Fit Center  537 is at   5.685772  1.248360 -2.283345
      ESP Fit Center  538 is at   4.956848  1.248360 -2.283345
      ESP Fit Center  539 is at   4.592385  0.617093 -2.283345
      ESP Fit Center  540 is at   4.956848 -0.014174 -2.283345
      ESP Fit Center  541 is at   5.685772 -0.014174 -2.283345
      ESP Fit Center  542 is at   5.321310  0.617093 -2.449717
      ESP Fit Center  543 is at   5.264740 -1.912083  1.814277
      ESP Fit Center  544 is at   4.900278 -2.543350  1.647905
      ESP Fit Center  545 is at   5.629202 -2.543350  1.647905
      ESP Fit Center  546 is at   4.858853 -3.161274  1.181740
      ESP Fit Center  547 is at   5.670627 -3.161274  1.181740
      ESP Fit Center  548 is at   6.327365 -2.684125  1.181740
      ESP Fit Center  549 is at   4.683940 -3.443526  0.508112
      ESP Fit Center  550 is at   5.462164 -3.538020  0.508112
      ESP Fit Center  551 is at   6.195161 -3.260031  0.508112
      ESP Fit Center  552 is at   4.683940 -3.443526 -0.239558
      ESP Fit Center  553 is at   5.462164 -3.538020 -0.239558
      ESP Fit Center  554 is at   6.195161 -3.260031 -0.239558
      ESP Fit Center  555 is at   4.202115 -2.684125 -0.913186
      ESP Fit Center  556 is at   4.858853 -3.161274 -0.913186
      ESP Fit Center  557 is at   5.670627 -3.161274 -0.913186
      ESP Fit Center  558 is at   4.535815 -1.912083 -1.379351
      ESP Fit Center  559 is at   4.900278 -2.543350 -1.379351
      ESP Fit Center  560 is at  -1.006242  0.614047  2.295707
      ESP Fit Center  561 is at  -0.274388  0.614047  2.179793
      ESP Fit Center  562 is at  -0.640315  1.247851  2.179793
      ESP Fit Center  563 is at  -1.372169 -0.019757  2.179793
      ESP Fit Center  564 is at  -0.640315 -0.019757  2.179793
      ESP Fit Center  565 is at  -1.204354  1.991946 -1.988639
      ESP Fit Center  566 is at  -0.274388  0.614047 -2.325035
      ESP Fit Center  567 is at  -0.640315  1.247851 -2.325035
      ESP Fit Center  568 is at  -1.372169  1.247851 -2.325035
      ESP Fit Center  569 is at  -1.738096  0.614047 -2.325035
      ESP Fit Center  570 is at  -1.006242  0.614047 -2.440949
      ESP Fit Center  571 is at  -1.264867 -0.740186  2.043343
      ESP Fit Center  572 is at  -0.533013 -0.740186  1.927429
      ESP Fit Center  573 is at  -1.630794 -1.373990  1.927429
      ESP Fit Center  574 is at  -0.898940 -1.373990  1.927429
      ESP Fit Center  575 is at  -0.686581 -2.006456  1.591033
      ESP Fit Center  576 is at  -0.093785 -1.492795  1.591033
      ESP Fit Center  577 is at  -0.531639 -2.510355  1.067083
      ESP Fit Center  578 is at  -0.093785  0.012423 -2.241003
      ESP Fit Center  579 is at  -2.176478  0.311869 -2.241003
      ESP Fit Center  580 is at  -1.462979 -2.118085 -2.241003
      ESP Fit Center  581 is at  -0.533013 -0.740186 -2.577399
      ESP Fit Center  582 is at  -0.898940 -0.106382 -2.577399
      ESP Fit Center  583 is at  -1.630794 -0.106382 -2.577399
      ESP Fit Center  584 is at  -1.996721 -0.740186 -2.577399
      ESP Fit Center  585 is at  -1.630794 -1.373990 -2.577399
      ESP Fit Center  586 is at  -0.898940 -1.373990 -2.577399
      ESP Fit Center  587 is at  -1.264867 -0.740186 -2.693313
      ESP Fit Center  588 is at  -2.567683 -1.234269  2.074590
      ESP Fit Center  589 is at  -1.835829 -1.234269  1.958676
      ESP Fit Center  590 is at  -2.201756 -0.600465  1.958676
      ESP Fit Center  591 is at  -2.933610 -1.868073  1.958676
      ESP Fit Center  592 is at  -2.201756 -1.868073  1.958676
      ESP Fit Center  593 is at  -3.479294 -2.286324  1.622280
      ESP Fit Center  594 is at  -2.765795 -2.612168  1.622280
      ESP Fit Center  595 is at  -1.989397 -2.500539  1.622280
      ESP Fit Center  596 is at  -1.834455 -3.004438  1.098330
      ESP Fit Center  597 is at  -1.335729 -3.119914  0.438116
      ESP Fit Center  598 is at  -2.765795  0.143630 -2.209756
      ESP Fit Center  599 is at  -3.903363 -1.626460 -2.209756
      ESP Fit Center  600 is at  -1.989397 -2.500539 -2.209756
      ESP Fit Center  601 is at  -2.201756 -0.600465 -2.546152
      ESP Fit Center  602 is at  -2.933610 -0.600465 -2.546152
      ESP Fit Center  603 is at  -3.299537 -1.234269 -2.546152
      ESP Fit Center  604 is at  -2.933610 -1.868073 -2.546152
      ESP Fit Center  605 is at  -2.201756 -1.868073 -2.546152
      ESP Fit Center  606 is at  -2.567683 -1.234269 -2.662066
      ESP Fit Center  607 is at  -3.617097 -0.361737  2.361430
      ESP Fit Center  608 is at  -2.885243 -0.361737  2.245516
[...]
 2669 Fit      -0.002977
 2670 Fit      -0.004127
 2671 Fit       0.003484
 2672 Fit       0.004807
 2673 Fit       0.007066
 2674 Fit       0.005354
 2675 Fit       0.000949
 2676 Fit      -0.010431
 2677 Fit      -0.004737
 2678 Fit      -0.001728
 2679 Fit      -0.010581
 2680 Fit      -0.006230
 2681 Fit      -0.004125
 2682 Fit      -0.012095
 2683 Fit      -0.008934
 2684 Fit      -0.006547
 2685 Fit      -0.008764
 2686 Fit      -0.007439
 2687 Fit      -0.007054
 2688 Fit      -0.006962
 2689 Fit      -0.007330
 2690 Fit      -0.005420
 2691 Fit      -0.004816
 2692 Fit      -0.004461
 2693 Fit      -0.004978
 2694 Fit      -0.005765
 2695 Fit      -0.005918
 2696 Fit      -0.005416
 2697 Fit      -0.004254
 2698 Fit      -0.003930
 2699 Fit      -0.003105
 2700 Fit      -0.003016
 2701 Fit      -0.004110
 2702 Fit      -0.005191
 2703 Fit      -0.005708
 2704 Fit      -0.005916
 2705 Fit      -0.005956
 2706 Fit      -0.005629
 2707 Fit      -0.004934
 2708 Fit      -0.004395
 2709 Fit      -0.000999
 2710 Fit      -0.002875
 2711 Fit      -0.004343
 2712 Fit      -0.005051
 2713 Fit      -0.005259
 2714 Fit      -0.005341
 2715 Fit      -0.005486
 2716 Fit      -0.005606
 2717 Fit      -0.005437
 2718 Fit      -0.004802
 2719 Fit      -0.003896
 2720 Fit      -0.003320
 2721 Fit      -0.003527
 2722 Fit       0.000512
 2723 Fit      -0.002224
 2724 Fit      -0.003848
 2725 Fit      -0.004511
 2726 Fit      -0.004597
 2727 Fit      -0.004499
 2728 Fit      -0.004497
 2729 Fit      -0.004680
 2730 Fit      -0.004936
 2731 Fit      -0.005011
 2732 Fit      -0.004629
 2733 Fit      -0.003667
 2734 Fit      -0.002355
 2735 Fit      -0.001397
 2736 Fit       0.002729
 2737 Fit      -0.001159
 2738 Fit      -0.003222
 2739 Fit      -0.004014
 2740 Fit      -0.004049
 2741 Fit      -0.003779
 2742 Fit      -0.003555
 2743 Fit      -0.003572
 2744 Fit      -0.003842
 2745 Fit      -0.004200
 2746 Fit      -0.004354
 2747 Fit      -0.003976
 2748 Fit      -0.002818
 2749 Fit      -0.000896
 2750 Fit       0.001230
 2751 Fit      -0.000533
 2752 Fit      -0.002827
 2753 Fit      -0.003715
 2754 Fit      -0.003752
 2755 Fit      -0.003384
 2756 Fit      -0.002966
 2757 Fit      -0.002744
 2758 Fit      -0.002822
 2759 Fit      -0.003154
 2760 Fit      -0.003553
 2761 Fit      -0.003729
 2762 Fit      -0.003338
 2763 Fit      -0.002051
 2764 Fit       0.000370
 2765 Fit       0.003876
 2766 Fit       0.000514
 2767 Fit      -0.002355
 2768 Fit      -0.003582
 2769 Fit      -0.003779
 2770 Fit      -0.003414
 2771 Fit      -0.002871
 2772 Fit      -0.002444
 2773 Fit      -0.002306
 2774 Fit      -0.002487
 2775 Fit      -0.002872
 2776 Fit      -0.003215
 2777 Fit      -0.003176
 2778 Fit      -0.002351
 2779 Fit      -0.000296
 2780 Fit       0.003496
 2781 Fit      -0.000524
 2782 Fit      -0.002923
 2783 Fit      -0.003931
 2784 Fit      -0.004013
 2785 Fit      -0.003580
 2786 Fit      -0.002991
 2787 Fit      -0.002525
 2788 Fit      -0.002347
 2789 Fit      -0.002480
 2790 Fit      -0.002802
 2791 Fit      -0.003056
 2792 Fit      -0.002879
 2793 Fit      -0.001824
 2794 Fit       0.000668
 2795 Fit      -0.000231
 2796 Fit      -0.002749
 2797 Fit      -0.004124
 2798 Fit      -0.004547
 2799 Fit      -0.004325
 2800 Fit      -0.003791
 2801 Fit      -0.003246
 2802 Fit      -0.002905
 2803 Fit      -0.002851
 2804 Fit      -0.003015
 2805 Fit      -0.003182
 2806 Fit      -0.003015
 2807 Fit      -0.002072
 2808 Fit       0.000198
 2809 Fit       0.004587
 2810 Fit      -0.000699
 2811 Fit      -0.002432
 2812 Fit      -0.004052
 2813 Fit      -0.004961
 2814 Fit      -0.005135
 2815 Fit      -0.004806
 2816 Fit      -0.004286
 2817 Fit      -0.003849
 2818 Fit      -0.003642
 2819 Fit      -0.003635
 2820 Fit      -0.003614
 2821 Fit      -0.003207
 2822 Fit      -0.001929
 2823 Fit       0.000793
 2824 Fit      -0.003436
 2825 Fit      -0.004179
 2826 Fit      -0.005126
 2827 Fit      -0.005669
 2828 Fit      -0.005687
 2829 Fit      -0.005354
 2830 Fit      -0.004931
 2831 Fit      -0.004612
 2832 Fit      -0.004422
 2833 Fit      -0.004181
 2834 Fit      -0.003538
 2835 Fit      -0.002059
 2836 Fit       0.000628
 2837 Fit      -0.005022
 2838 Fit      -0.005099
 2839 Fit      -0.005676
 2840 Fit      -0.006111
 2841 Fit      -0.006122
 2842 Fit      -0.005827
 2843 Fit      -0.005457
 2844 Fit      -0.005090
 2845 Fit      -0.004530
 2846 Fit      -0.003398
 2847 Fit      -0.001424
 2848 Fit       0.000999
 2849 Fit      -0.003309
 2850 Fit      -0.004825
 2851 Fit      -0.005351
 2852 Fit      -0.005592
 2853 Fit      -0.006043
 2854 Fit      -0.006309
 2855 Fit      -0.006143
 2856 Fit      -0.005691
 2857 Fit      -0.004930
 2858 Fit      -0.003587
 2859 Fit      -0.001992
 2860 Fit      -0.001709
 2861 Fit      -0.004233
 2862 Fit      -0.005271
 2863 Fit      -0.005914
 2864 Fit      -0.005954
 2865 Fit      -0.005170
 2866 Fit      -0.004000
 2867 Fit      -0.005258
 2868 Fit       0.003476
 2869 Fit       0.001611
 2870 Fit       0.000370
 2871 Fit       0.001938
 2872 Fit       0.004225
 2873 Fit      -0.001823
 2874 Fit      -0.003023
 2875 Fit       0.000391
 2876 Fit       0.001808
 2877 Fit      -0.003989
 2878 Fit      -0.006169
 2879 Fit      -0.003092
 2880 Fit       0.000980
 2881 Fit       0.003042
 2882 Fit      -0.000939
 2883 Fit       0.006261
 2884 Fit       0.005808
 2885 Fit       0.005751
 2886 Fit       0.005576
 2887 Fit       0.004768
 2888 Fit       0.006255
 2889 Fit       0.006247
 2890 Fit       0.002985
 2891 Fit       0.010182
 2892 Fit       0.009818
 2893 Fit       0.010488
 2894 Fit       0.007903
 2895 Fit       0.008637
 2896 Fit       0.010651
 2897 Fit       0.011241
 2898 Fit       0.007559
 2899 Fit       0.006268
 2900 Fit       0.008835
 2901 Fit       0.006368
 2902 Fit       0.007170
 2903 Fit       0.020151
 2904 Fit       0.012623
 2905 Fit       0.003054
 2906 Fit       0.014081
 2907 Fit       0.020361
 2908 Fit       0.001359
 2909 Fit       0.000341
 2910 Fit       0.005249
 2911 Fit       0.006864
 2912 Fit       0.002126
 2913 Fit       0.007793
 2914 Fit      -0.004151
 2915 Fit       0.008219
 2916 Fit       0.006960
 2917 Fit       0.012747
 2918 Fit       0.011572
 2919 Fit       0.011036
 2920 Fit       0.017980
 2921 Fit       0.015748
 2922 Fit       0.020770
 2923 Fit      -0.000441
 2924 Fit      -0.003806
 2925 Fit       0.000070
 2926 Fit      -0.004056
 2927 Fit      -0.006963
 2928 Fit      -0.003715
 2929 Fit       0.000598
 2930 Fit       0.005783
 2931 Fit      -0.009808
 2932 Fit      -0.005811
 2933 Fit      -0.001647
 2934 Fit       0.002662
 2935 Fit       0.007684
 2936 Fit      -0.006610
 2937 Fit      -0.001819
 2938 Fit       0.002393
 2939 Fit       0.006497
 2940 Fit       0.011189
 2941 Fit      -0.006312
 2942 Fit      -0.000714
 2943 Fit       0.003824
 2944 Fit       0.007681
 2945 Fit       0.011241
 2946 Fit       0.014996
 2947 Fit       0.002265
 2948 Fit       0.007475
 2949 Fit       0.011654
 2950 Fit       0.015065
 2951 Fit       0.017957
 2952 Fit       0.006491
 2953 Fit       0.012413
 2954 Fit       0.017083
 2955 Fit       0.024837
 2956 Fit       0.012118
 2957 Fit       0.009404
 2958 Fit       0.012922
 2959 Fit       0.018137
 2960 Fit       0.021951
 2961 Fit       0.016095
 2962 Fit       0.013287
 2963 Fit       0.020378
 2964 Fit      -0.006394
 2965 Fit      -0.008506
 2966 Fit      -0.004892
 2967 Fit      -0.006073
 2968 Fit      -0.010415
 2969 Fit      -0.010377
 2970 Fit      -0.004811
 2971 Fit      -0.008347
 2972 Fit      -0.011711
 2973 Fit      -0.011474
 2974 Fit      -0.009901
 2975 Fit      -0.002450
 2976 Fit      -0.006768
 2977 Fit      -0.010096
 2978 Fit      -0.012284
 2979 Fit      -0.011668
 2980 Fit      -0.009546
 2981 Fit       0.000716
 2982 Fit      -0.004149
 2983 Fit      -0.008301
 2984 Fit      -0.011128
 2985 Fit      -0.012178
 2986 Fit      -0.011112
 2987 Fit      -0.008349
 2988 Fit      -0.000911
 2989 Fit      -0.005552
 2990 Fit      -0.009197
 2991 Fit      -0.011492
 2992 Fit      -0.011502
 2993 Fit      -0.009845
 2994 Fit      -0.006166
 2995 Fit       0.003340
 2996 Fit      -0.001663
 2997 Fit      -0.006033
 2998 Fit      -0.009342
 2999 Fit      -0.011260
 3000 Fit      -0.010365
 3001 Fit      -0.008048
 3002 Fit      -0.003363
 3003 Fit       0.002320
 3004 Fit      -0.002261
 3005 Fit      -0.006220
 3006 Fit      -0.009125
 3007 Fit      -0.010620
 3008 Fit      -0.008830
 3009 Fit      -0.005799
 3010 Fit      -0.000036
 3011 Fit       0.001378
 3012 Fit      -0.002614
 3013 Fit      -0.006094
 3014 Fit      -0.008569
 3015 Fit      -0.009616
 3016 Fit      -0.006895
 3017 Fit      -0.002883
 3018 Fit       0.004540
 3019 Fit       0.004211
 3020 Fit       0.001511
 3021 Fit      -0.001933
 3022 Fit      -0.005162
 3023 Fit      -0.007458
 3024 Fit      -0.008225
 3025 Fit      -0.004508
 3026 Fit       0.000631
 3027 Fit       0.009901
 3028 Fit       0.007283
 3029 Fit       0.004484
 3030 Fit       0.002286
 3031 Fit      -0.000517
 3032 Fit      -0.003498
 3033 Fit      -0.005747
 3034 Fit      -0.006364
 3035 Fit      -0.001613
 3036 Fit       0.004832
 3037 Fit       0.007299
 3038 Fit       0.002999
 3039 Fit      -0.000307
 3040 Fit      -0.002938
 3041 Fit      -0.003841
 3042 Fit       0.001789
 3043 Fit       0.009688
 3044 Fit       0.003440
 3045 Fit       0.000038
 3046 Fit       0.005600
 3047 Fit      -0.007205
 3048 Fit      -0.007749
 3049 Fit      -0.010417
 3050 Fit      -0.012308
 3051 Fit      -0.010455
 3052 Fit      -0.008592
 3053 Fit      -0.013698
 3054 Fit      -0.015487
 3055 Fit      -0.014366
 3056 Fit      -0.010201
 3057 Fit      -0.012966
 3058 Fit      -0.016733
 3059 Fit      -0.017977
 3060 Fit      -0.016866
 3061 Fit      -0.012863
 3062 Fit      -0.011707
 3063 Fit      -0.016664
 3064 Fit      -0.019180
 3065 Fit      -0.019738
 3066 Fit      -0.018262
 3067 Fit      -0.013989
 3068 Fit      -0.011304
 3069 Fit      -0.016811
 3070 Fit      -0.019822
 3071 Fit      -0.020944
 3072 Fit      -0.020273
 3073 Fit      -0.017341
 3074 Fit      -0.011229
 3075 Fit      -0.016964
 3076 Fit      -0.020157
 3077 Fit      -0.021497
 3078 Fit      -0.021170
 3079 Fit      -0.018904
 3080 Fit      -0.011827
 3081 Fit      -0.017306
 3082 Fit      -0.020332
 3083 Fit      -0.021570
 3084 Fit      -0.021221
 3085 Fit      -0.019160
 3086 Fit      -0.006259
 3087 Fit      -0.013986
 3088 Fit      -0.018429
 3089 Fit      -0.020616
 3090 Fit      -0.021028
 3091 Fit      -0.019819
 3092 Fit      -0.017186
 3093 Fit      -0.010520
 3094 Fit      -0.016137
 3095 Fit      -0.019029
 3096 Fit      -0.019785
 3097 Fit      -0.018784
 3098 Fit      -0.016582
 3099 Fit      -0.007802
 3100 Fit      -0.013921
 3101 Fit      -0.017055
 3102 Fit      -0.017427
 3103 Fit      -0.015688
 3104 Fit      -0.012609
 3105 Fit      -0.006155
 3106 Fit      -0.011994
 3107 Fit      -0.014167
 3108 Fit      -0.011458
 3109 Fit      -0.009499
 3110 Fit      -0.006117
 3111 Fit      -0.006020
 3112 Fit      -0.002680
 3113 Fit      -0.002215
 3114 Fit      -0.005386
 3115 Fit      -0.008319
 3116 Fit      -0.008325
 3117 Fit      -0.005532
 3118 Fit       0.000241
 3119 Fit      -0.003274
 3120 Fit      -0.006903
 3121 Fit      -0.009401
 3122 Fit      -0.009970
 3123 Fit      -0.008845
 3124 Fit      -0.007159
 3125 Fit      -0.001041
 3126 Fit      -0.005535
 3127 Fit      -0.008814
 3128 Fit      -0.010281
 3129 Fit      -0.009903
 3130 Fit      -0.008017
 3131 Fit      -0.005721
 3132 Fit      -0.004844
 3133 Fit      -0.000267
 3134 Fit      -0.005586
 3135 Fit      -0.008805
 3136 Fit      -0.009963
 3137 Fit      -0.009155
 3138 Fit      -0.006474
 3139 Fit      -0.002533
 3140 Fit       0.003327
 3141 Fit      -0.003489
 3142 Fit      -0.007443
 3143 Fit      -0.008989
 3144 Fit      -0.008337
 3145 Fit      -0.005380
 3146 Fit       0.005026
 3147 Fit      -0.002662
 3148 Fit      -0.006599
 3149 Fit      -0.007684
 3150 Fit      -0.006135
 3151 Fit      -0.001527
 3152 Fit      -0.000122
 3153 Fit      -0.004783
 3154 Fit      -0.006066
 3155 Fit      -0.004345
 3156 Fit       0.000932
 3157 Fit       0.004638
 3158 Fit      -0.001783
 3159 Fit      -0.004171
 3160 Fit      -0.003340
 3161 Fit       0.000906
 3162 Fit       0.005909
 3163 Fit      -0.000145
 3164 Fit      -0.002240
 3165 Fit      -0.000947
 3166 Fit       0.008320
 3167 Fit       0.002737
 3168 Fit       0.000165
 3169 Fit       0.000903
 3170 Fit       0.007121
 3171 Fit       0.003798
 3172 Fit       0.003171
 3173 Fit       0.005195
 3174 Fit       0.010141
 3175 Fit       0.013193
 3176 Fit       0.011120
 3177 Fit       0.007710
 3178 Fit       0.014151
 3179 Fit       0.011580
 3180 Fit       0.007574
 3181 Fit       0.014908
 3182 Fit       0.012634
 3183 Fit       0.009696
 3184 Fit       0.015241
 3185 Fit       0.013571
 3186 Fit       0.011889
 3187 Fit       0.010011
 3188 Fit       0.014052
 3189 Fit       0.013088
 3190 Fit       0.012122
 3191 Fit       0.011395
 3192 Fit       0.010217
 3193 Fit       0.012132
 3194 Fit       0.012054
 3195 Fit       0.011455
 3196 Fit       0.010137
 3197 Fit       0.004589
 3198 Fit       0.007065
 3199 Fit       0.008555
 3200 Fit       0.006757
 3201 Fit       0.008892
 3202 Fit       0.010396
 3203 Fit       0.011854
 3204 Fit       0.005795
 3205 Fit       0.008672
 3206 Fit       0.010600
 3207 Fit       0.012158
 3208 Fit       0.014041
 3209 Fit       0.006617
 3210 Fit       0.009374
 3211 Fit       0.011301
 3212 Fit       0.012939
 3213 Fit       0.014996
 3214 Fit       0.005956
 3215 Fit       0.008878
 3216 Fit       0.010938
 3217 Fit       0.012613
 3218 Fit       0.014473
 3219 Fit       0.004750
 3220 Fit       0.008053
 3221 Fit       0.010361
 3222 Fit       0.012157
 3223 Fit       0.014029
 3224 Fit       0.005561
 3225 Fit       0.008535
 3226 Fit       0.010491
 3227 Fit       0.004247
 3228 Fit       0.006450
 3229 Fit       0.005860
 3230 Fit       0.003937
 3231 Fit       0.008063
 3232 Fit       0.007718
 3233 Fit       0.006845
 3234 Fit       0.005041
 3235 Fit       0.009001
 3236 Fit       0.008531
 3237 Fit       0.007910
 3238 Fit       0.006716
 3239 Fit       0.004579
 3240 Fit       0.009266
 3241 Fit       0.008635
 3242 Fit       0.008142
 3243 Fit       0.007207
 3244 Fit       0.005423
 3245 Fit       0.008235
 3246 Fit       0.007823
 3247 Fit       0.007442
 3248 Fit       0.006548
 3249 Fit       0.004729
 3250 Fit       0.006192
 3251 Fit       0.006248
 3252 Fit       0.005888
 3253 Fit       0.004751
 3254 Fit       0.002396
 3255 Fit       0.004131
 3256 Fit       0.003613
 3257 Fit       0.001718
 3258 Fit      -0.005667
 3259 Fit      -0.002407
 3260 Fit       0.001552
 3261 Fit       0.004417
 3262 Fit      -0.005336
 3263 Fit      -0.000126
 3264 Fit       0.003720
 3265 Fit       0.006791
 3266 Fit      -0.007498
 3267 Fit      -0.001389
 3268 Fit       0.002919
 3269 Fit       0.006409
 3270 Fit      -0.013188
 3271 Fit      -0.004671
 3272 Fit       0.000819
 3273 Fit       0.004872
 3274 Fit       0.008879
 3275 Fit      -0.006912
 3276 Fit      -0.000773
 3277 Fit       0.003519
 3278 Fit       0.007450
 3279 Fit      -0.007270
 3280 Fit      -0.001491
 3281 Fit       0.002449
 3282 Fit      -0.009281
 3283 Fit      -0.003157
 3284 Fit       0.005328
 3285 Fit       0.007633
 3286 Fit       0.002151
 3287 Fit       0.007269
 3288 Fit       0.009105
 3289 Fit       0.020289
 3290 Fit       0.010440
 3291 Fit      -0.001542
 3292 Fit       0.021236
 3293 Fit       0.011392
 3294 Fit       0.000409
 3295 Fit       0.020086
 3296 Fit       0.011002
 3297 Fit       0.001144
 3298 Fit       0.023405
 3299 Fit       0.014412
 3300 Fit       0.005526
 3301 Fit      -0.003829
 3302 Fit       0.024110
 3303 Fit       0.015757
 3304 Fit       0.007658
 3305 Fit       0.001758
 3306 Fit       0.001971
 3307 Fit       0.022150
 3308 Fit       0.016589
 3309 Fit       0.010309
 3310 Fit       0.009987
 3311 Fit       0.014816
 3312 Fit       0.020653
 3313 Fit       0.015781
 3314 Fit       0.008470
 3315 Fit       0.009259
 3316 Fit       0.008553
 3317 Fit       0.007014
 3318 Fit       0.007368
 3319 Fit       0.008231
 3320 Fit       0.008764
 3321 Fit       0.009518
 3322 Fit       0.009703
 3323 Fit       0.008199
 3324 Fit       0.005450
 3325 Fit       0.003556
 3326 Fit       0.004759
 3327 Fit       0.007277
 3328 Fit       0.010413
 3329 Fit       0.010049
 3330 Fit       0.007663
 3331 Fit       0.003801
 3332 Fit      -0.000544
 3333 Fit      -0.003062
 3334 Fit       0.012024
 3335 Fit       0.010091
 3336 Fit       0.006227
 3337 Fit       0.000659
 3338 Fit      -0.006454
 3339 Fit       0.015371
 3340 Fit       0.012291
 3341 Fit       0.007018
 3342 Fit      -0.000579
 3343 Fit       0.007770
 3344 Fit      -0.002756
 3345 Fit       0.016043
 3346 Fit       0.019733
 3347 Fit       0.022536
 3348 Fit       0.024945
 3349 Fit       0.014621
 3350 Fit       0.019353
 3351 Fit       0.022665
 3352 Fit       0.025109
 3353 Fit       0.027105
 3354 Fit       0.011952
 3355 Fit       0.017904
 3356 Fit       0.022025
 3357 Fit       0.024953
 3358 Fit       0.027112
 3359 Fit       0.028923
 3360 Fit       0.015863
 3361 Fit       0.021094
 3362 Fit       0.024783
 3363 Fit       0.027368
 3364 Fit       0.029348
 3365 Fit       0.019135
 3366 Fit       0.023801
 3367 Fit       0.027050
 3368 Fit       0.029233
 3369 Fit       0.021846
 3370 Fit       0.025774
 3371 Fit       0.027755
 3372 Fit       0.026580
 3373 Fit       0.019129
 3374 Fit       0.024199
 3375 Fit      -0.002453
 3376 Fit      -0.001568
 3377 Fit       0.000465
 3378 Fit       0.002187
 3379 Fit       0.003108
 3380 Fit       0.000012
 3381 Fit       0.004443
 3382 Fit       0.005250
 3383 Fit       0.003160
 3384 Fit       0.003584
 3385 Fit       0.006371
 3386 Fit       0.006050
 3387 Fit       0.004938
 3388 Fit       0.006892
 3389 Fit       0.006030
 3390 Fit       0.004831
 3391 Fit       0.006464
 3392 Fit       0.005484
 3393 Fit       0.004849
 3394 Fit       0.005364
 3395 Fit       0.004892
 -----------------------------------------------------------------
 Leave Link  602 at Thu Jan 16 21:49:22 2014, MaxMem=   235929600 cpu:         1.2

 Test job not archived.
 1\1\GINC-G42\SP\RHF\Gen\C9H9Cl1N2O3\KOLAR\16-Jan-2014\0\\# hf/gen pop=
 mk iop(6/33=2,6/41=5,6/42=2)\\na resp\\0,1\C,0,-1.006242,0.614047,-0.0
 72621\C,0,-1.264867,-0.740186,-0.324985\C,0,-2.567683,-1.234269,-0.293
 738\C,0,-3.617097,-0.361737,-0.006898\C,0,-3.385408,0.992838,0.236478\
 C,0,-2.079834,1.472624,0.196752\Cl,0,-5.260807,-0.978731,0.039273\C,0,
 0.36808,1.218494,-0.092223\N,0,1.420656,0.348907,-0.022279\C,0,2.77089
 4,0.856313,0.053254\C,0,3.715266,-0.332427,0.148148\N,0,5.02632,-0.079
 443,-0.097451\O,0,5.879801,-1.192054,-0.135337\O,0,0.546135,2.431851,-
 0.176227\O,0,3.352074,-1.454139,0.51111\H,0,-0.458598,-1.422006,-0.580
 063\H,0,-2.768916,-2.280691,-0.495954\H,0,-4.216001,1.656713,0.451158\
 H,0,-1.868727,2.522361,0.371106\H,0,1.304876,-0.608604,0.286123\H,0,2.
 992797,1.478866,-0.821702\H,0,2.91067,1.501068,0.933869\H,0,5.32131,0.
 617093,-0.769717\H,0,5.26474,-1.912083,0.134277\\Version=AM64L-G09RevD
 .01\State=1-A\HF=-1138.9780306\RMSD=9.859e-09\Dipole=0.4111893,-0.0845
 49,-0.3100608\Quadrupole=-2.0214654,0.0981163,1.923349,3.3309344,-4.64
 95871,1.9958187\PG=C01 [X(C9H9Cl1N2O3)]\\@


 ... THE UNIVERSE IS NOT ONLY QUEERER THAN WE SUPPOSE,
 BUT QUEERER THAN WE CAN SUPPOSE ... 

                                   -- J. B. S. HALDANE
 Job cpu time:       0 days  0 hours  2 minutes 29.7 seconds.
 File lengths (MBytes):  RWF=     31 Int=      0 D2E=      0 Chk=      3 Scr=      1
 Normal termination of Gaussian 09 at Thu Jan 16 21:49:22 2014.
149.30user 0.42system 2:35.93elapsed 96%CPU (0avgtext+0avgdata 603568maxresident)k
11656inputs+132136outputs (2major+170457minor)pagefaults 0swaps
