Linux g30 2.6.38.6-client #1 SMP Tue Jun 12 11:27:21 CEST 2012 x86_64 GNU/Linux
Thu Jan 16 21:46:47 CET 2014

 Entering Gaussian System, Link 0=/usr/local/programs/common/gaussian/gaussian09_d01/arch/amd64-pgi_10.4.0-acml/g09/g09
 Initial command:
 /usr/local/programs/common/gaussian/gaussian09_d01/arch/amd64-pgi_10.4.0-acml/g09/l1.exe "/scratch/kolar/g09_17371/Gau-3026.inp" -scrdir="/scratch/kolar/g09_17371/"
 Entering Link 1 = /usr/local/programs/common/gaussian/gaussian09_d01/arch/amd64-pgi_10.4.0-acml/g09/l1.exe PID=      3032.
  
 Copyright (c) 1988,1990,1992,1993,1995,1998,2003,2009,2013,
            Gaussian, Inc.  All Rights Reserved.
  
 This is part of the Gaussian(R) 09 program.  It is based on
 the Gaussian(R) 03 system (copyright 2003, Gaussian, Inc.),
 the Gaussian(R) 98 system (copyright 1998, Gaussian, Inc.),
 the Gaussian(R) 94 system (copyright 1995, Gaussian, Inc.),
 the Gaussian 92(TM) system (copyright 1992, Gaussian, Inc.),
 the Gaussian 90(TM) system (copyright 1990, Gaussian, Inc.),
 the Gaussian 88(TM) system (copyright 1988, Gaussian, Inc.),
 the Gaussian 86(TM) system (copyright 1986, Carnegie Mellon
 University), and the Gaussian 82(TM) system (copyright 1983,
 Carnegie Mellon University). Gaussian is a federally registered
 trademark of Gaussian, Inc.
  
 This software contains proprietary and confidential information,
 including trade secrets, belonging to Gaussian, Inc.
  
 This software is provided under written license and may be
 used, copied, transmitted, or stored only in accord with that
 written license.
  
 The following legend is applicable only to US Government
 contracts under FAR:
  
                    RESTRICTED RIGHTS LEGEND
  
 Use, reproduction and disclosure by the US Government is
 subject to restrictions as set forth in subparagraphs (a)
 and (c) of the Commercial Computer Software - Restricted
 Rights clause in FAR 52.227-19.
  
 Gaussian, Inc.
 340 Quinnipiac St., Bldg. 40, Wallingford CT 06492
  
  
 ---------------------------------------------------------------
 Warning -- This program may not be used in any manner that
 competes with the business of Gaussian, Inc. or will provide
 assistance to any competitor of Gaussian, Inc.  The licensee
 of this program is prohibited from giving any competitor of
 Gaussian, Inc. access to this program.  By using this program,
 the user acknowledges that Gaussian, Inc. is engaged in the
 business of creating and licensing software in the field of
 computational chemistry and represents and warrants to the
 licensee that it is not a competitor of Gaussian, Inc. and that
 it will not use this program in any manner prohibited above.
 ---------------------------------------------------------------
  

 Cite this work as:
 Gaussian 09, Revision D.01,
 M. J. Frisch, G. W. Trucks, H. B. Schlegel, G. E. Scuseria, 
 M. A. Robb, J. R. Cheeseman, G. Scalmani, V. Barone, B. Mennucci, 
 G. A. Petersson, H. Nakatsuji, M. Caricato, X. Li, H. P. Hratchian, 
 A. F. Izmaylov, J. Bloino, G. Zheng, J. L. Sonnenberg, M. Hada, 
 M. Ehara, K. Toyota, R. Fukuda, J. Hasegawa, M. Ishida, T. Nakajima, 
 Y. Honda, O. Kitao, H. Nakai, T. Vreven, J. A. Montgomery, Jr., 
 J. E. Peralta, F. Ogliaro, M. Bearpark, J. J. Heyd, E. Brothers, 
 K. N. Kudin, V. N. Staroverov, T. Keith, R. Kobayashi, J. Normand, 
 K. Raghavachari, A. Rendell, J. C. Burant, S. S. Iyengar, J. Tomasi, 
 M. Cossi, N. Rega, J. M. Millam, M. Klene, J. E. Knox, J. B. Cross, 
 V. Bakken, C. Adamo, J. Jaramillo, R. Gomperts, R. E. Stratmann, 
 O. Yazyev, A. J. Austin, R. Cammi, C. Pomelli, J. W. Ochterski, 
 R. L. Martin, K. Morokuma, V. G. Zakrzewski, G. A. Voth, 
 P. Salvador, J. J. Dannenberg, S. Dapprich, A. D. Daniels, 
 O. Farkas, J. B. Foresman, J. V. Ortiz, J. Cioslowski, 
 and D. J. Fox, Gaussian, Inc., Wallingford CT, 2013.
 
 ******************************************
 Gaussian 09:  AM64L-G09RevD.01 24-Apr-2013
                16-Jan-2014 
 ******************************************
 %mem=1800mb
 -----------------------------------------
 # hf/gen pop=mk iop(6/33=2,6/41=5,6/42=2)
 -----------------------------------------
 1/38=1/1;
 2/12=2,17=6,18=5,40=1/2;
 3/5=7,11=9,16=1,25=1,30=1/1,2,3;
 4//1;
 5/5=2,38=5/2;
 6/7=2,8=2,9=2,10=2,15=8,20=1,28=1,33=2,41=5,42=2/1,2;
 99/5=1,9=1/99;
 -------
 na resp
 -------
 Symbolic Z-matrix:
 Charge =  0 Multiplicity = 1
 6                    -3.76773  -1.32263  -1.03134 
 6                    -3.55063   0.13921  -0.6257 
 6                    -4.8061    0.71451   0.03523 
 7                    -2.42376   0.25413   0.32195 
 6                    -1.08218   0.15824  -0.26537 
 6                    -0.06943  -0.06157   0.88051 
 1                    -0.02509   0.86066   1.48348 
 6                     1.31992  -0.35917   0.34947 
 6                     1.75871  -1.68672   0.25023 
 6                     3.01732  -2.00178  -0.25757 
 6                     3.87338  -0.98446  -0.6807 
 6                     3.46551   0.34546  -0.59092 
 6                     2.20202   0.64075  -0.08035 
 17                    1.74421   2.34959   0.01824 
 8                    -0.52034  -1.14143   1.67925 
 1                    -4.00972  -1.92869  -0.15083 
 1                    -4.59468  -1.40057  -1.74612 
 1                    -2.8808   -1.75456  -1.50619 
 1                    -3.34439   0.72561  -1.54011 
 1                    -5.03249   0.17412   0.96187 
 1                    -4.67738   1.77619   0.28129 
 1                    -5.6698    0.63012  -0.63233 
 1                    -1.04991  -0.7211   -0.91629 
 1                    -0.80376   1.03435  -0.87105 
 1                     1.08805  -2.463     0.60129 
 1                     3.33058  -3.04034  -0.31802 
 1                     4.85821  -1.21814  -1.07547 
 1                     4.11674   1.15276  -0.9088 
 1                    -1.49582  -1.06067   1.63705 
 1                    -2.49699   1.15163   0.80153 
 
                          Input orientation:                          
 ---------------------------------------------------------------------
 Center     Atomic      Atomic             Coordinates (Angstroms)
 Number     Number       Type             X           Y           Z
 ---------------------------------------------------------------------
      1          6           0       -3.767727   -1.322626   -1.031337
      2          6           0       -3.550625    0.139211   -0.625704
      3          6           0       -4.806098    0.714509    0.035234
      4          7           0       -2.423756    0.254127    0.321946
      5          6           0       -1.082178    0.158240   -0.265366
      6          6           0       -0.069430   -0.061568    0.880512
      7          1           0       -0.025094    0.860656    1.483480
      8          6           0        1.319922   -0.359166    0.349467
      9          6           0        1.758707   -1.686719    0.250226
     10          6           0        3.017320   -2.001778   -0.257567
     11          6           0        3.873376   -0.984462   -0.680697
     12          6           0        3.465506    0.345458   -0.590921
     13          6           0        2.202016    0.640749   -0.080353
     14         17           0        1.744207    2.349593    0.018241
     15          8           0       -0.520338   -1.141426    1.679249
     16          1           0       -4.009723   -1.928687   -0.150829
     17          1           0       -4.594680   -1.400569   -1.746119
     18          1           0       -2.880804   -1.754561   -1.506194
     19          1           0       -3.344386    0.725608   -1.540106
     20          1           0       -5.032486    0.174119    0.961874
     21          1           0       -4.677380    1.776185    0.281290
     22          1           0       -5.669804    0.630115   -0.632332
     23          1           0       -1.049907   -0.721096   -0.916292
     24          1           0       -0.803760    1.034354   -0.871048
     25          1           0        1.088051   -2.463000    0.601294
     26          1           0        3.330580   -3.040345   -0.318018
     27          1           0        4.858206   -1.218140   -1.075474
     28          1           0        4.116736    1.152759   -0.908802
     29          1           0       -1.495824   -1.060673    1.637054
     30          1           0       -2.496987    1.151626    0.801532
 ---------------------------------------------------------------------
                    Distance matrix (angstroms):
                    1          2          3          4          5
     1  C    0.000000
     2  C    1.532527   0.000000
     3  C    2.523035   1.531019   0.000000
     4  N    2.474628   1.476848   2.443299   0.000000
     5  C    3.160989   2.494682   3.777218   1.467638   0.000000
     6  C    4.350038   3.798384   4.873686   2.440187   1.544995
     7  H    5.009823   4.171152   4.997677   2.733243   2.160851
     8  C    5.359016   4.992150   6.227330   3.793680   2.532946
     9  C    5.684755   5.682454   6.993481   4.611401   3.426417
    10  C    6.862713   6.917894   8.286725   5.918636   4.633748
    11  C    7.656615   7.508759   8.873124   6.495634   5.102527
    12  C    7.436137   7.019248   8.303475   5.960291   4.563164
    13  C    6.355867   5.800157   7.009455   4.659301   3.324601
    14  Cl   6.705835   5.773708   6.751317   4.674947   3.587605
    15  O    4.233869   4.016899   4.951264   2.722653   2.405478
    16  H    1.095977   2.170825   2.766824   2.739249   3.597069
    17  H    1.095828   2.171705   2.773350   3.424591   4.118275
    18  H    1.094847   2.193239   3.489852   2.754236   2.904052
    19  H    2.152516   1.105679   2.149051   2.130045   2.657904
    20  H    2.795130   2.171989   1.096328   2.687263   4.136581
    21  H    3.486128   2.184468   1.097391   2.719767   3.980208
    22  H    2.755050   2.175305   1.094877   3.404239   4.626407
    23  H    2.785968   2.660481   4.132231   2.090874   1.094522
    24  H    3.790270   2.899438   4.116109   2.157864   1.100883
    25  H    5.248287   5.458419   6.719969   4.449000   3.511679
    26  H    7.337939   7.586516   8.968235   6.661493   5.450335
    27  H    8.626679   8.529545   9.918043   7.559585   6.151330
    28  H    8.264823   7.739241   8.983331   6.715677   5.332146
    29  H    3.514324   3.283596   4.083505   2.078284   2.296966
    30  H    3.331083   2.042582   2.471898   1.020230   2.031446
                    6          7          8          9         10
     6  C    0.000000
     7  H    1.102739   0.000000
     8  C    1.516863   2.140799   0.000000
     9  C    2.525957   3.345442   1.401705   0.000000
    10  C    3.819380   4.525600   2.438816   1.393278   0.000000
    11  C    4.339911   4.825577   2.823537   2.414872   1.395279
    12  C    3.850527   4.093025   2.446294   2.783960   2.412781
    13  C    2.564367   2.730193   1.400951   2.392261   2.771114
    14  Cl   3.137911   2.737569   2.761721   4.042999   4.542171
    15  O    1.416825   2.071696   2.401418   2.744722   4.123892
    16  H    4.480592   5.131147   5.578423   5.787416   7.028234
    17  H    5.400926   6.035277   6.360701   6.665793   7.779446
    18  H    4.057883   4.892095   4.799657   4.961318   6.033909
    19  H    4.147816   4.491994   5.148105   5.921669   7.039520
    20  H    4.969315   5.081081   6.404102   7.077391   8.427392
    21  H    4.996960   4.891546   6.366475   7.308617   8.589050
    22  H    5.842201   6.032625   7.127333   7.831309   9.084791
    23  H    2.150539   3.051407   2.710946   3.190847   4.314673
    24  H    2.192772   2.486020   2.818081   3.902273   4.918852
    25  H    2.680411   3.614420   2.131501   1.084270   2.161584
    26  H    4.676500   5.451949   3.417163   2.150811   1.086466
    27  H    5.426337   5.892050   3.909955   3.403519   2.161463
    28  H    4.711711   4.791982   3.419258   3.868628   3.403517
    29  H    1.898728   2.424487   3.174652   3.592659   4.984349
    30  H    2.714979   2.580692   4.129849   5.145005   6.439971
                   11         12         13         14         15
    11  C    0.000000
    12  C    1.393953   0.000000
    13  C    2.407316   1.394376   0.000000
    14  Cl   4.017188   2.711182   1.771851   0.000000
    15  O    4.989860   4.821976   3.699129   4.480438   0.000000
    16  H    7.957108   7.825884   6.722549   7.172167   4.018056
    17  H    8.544954   8.327646   7.289501   7.573518   5.329218
    18  H    6.847879   6.747107   5.797033   6.368572   4.011830
    19  H    7.467196   6.886225   5.735909   5.564131   4.671757
    20  H    9.129881   8.640393   7.324070   7.179603   4.754447
    21  H    9.036704   8.313503   6.981840   6.452501   5.267613
    22  H    9.678919   9.139838   7.891156   7.638548   5.915975
    23  H    4.935948   4.651060   3.623316   4.255532   2.682155
    24  H    5.097789   4.333553   3.132860   3.002137   3.364277
    25  H    3.404058   3.867959   3.367316   4.891988   2.344240
    26  H    2.157039   3.399462   3.857537   5.628595   4.735455
    27  H    1.086437   2.149243   3.391324   4.860239   6.043436
    28  H    2.163093   1.084843   2.148170   2.814376   5.784786
    29  H    5.848597   5.617461   4.417957   4.974763   0.979732
    30  H    6.880509   6.175772   4.808258   4.476203   3.152081
                   16         17         18         19         20
    16  H    0.000000
    17  H    1.779335   0.000000
    18  H    1.772510   1.766422   0.000000
    19  H    3.068883   2.475137   2.523350   0.000000
    20  H    2.589584   3.162996   3.800119   3.068180   0.000000
    21  H    3.789270   3.769482   4.346142   2.489592   1.776488
    22  H    3.087909   2.553447   3.772113   2.498148   1.776401
    23  H    3.287053   3.703473   2.183625   2.783295   4.493312
    24  H    4.424537   4.589736   3.534907   2.645325   4.688468
    25  H    5.180587   6.239594   4.549198   5.865093   6.674233
    26  H    7.425886   8.218156   6.453394   7.760868   9.050512
    27  H    8.944272   9.478402   7.769527   8.442544  10.193869
    28  H    8.724057   9.116433   7.600984   7.499956   9.389645
    29  H    3.204631   4.600467   3.504234   4.086848   3.806384
    30  H    3.561417   4.171875   3.730796   2.526429   2.722129
                   21         22         23         24         25
    21  H    0.000000
    22  H    1.770053   0.000000
    23  H    4.563899   4.821810   0.000000
    24  H    4.108908   4.888638   1.773201   0.000000
    25  H    7.163329   7.533777   3.147723   4.240074   0.000000
    26  H    9.364057   9.725121   4.992546   5.831105   2.491465
    27  H   10.086337  10.698197   5.931121   6.096997   4.309907
    28  H    8.896148   9.804385   5.495961   4.922065   4.952478
    29  H    4.473048   5.042914   2.614140   3.340459   3.117007
    30  H    2.326981   3.520612   2.924388   2.382917   5.094911
                   26         27         28         29         30
    26  H    0.000000
    27  H    2.495558   0.000000
    28  H    4.306877   2.489723   0.000000
    29  H    5.570959   6.910593   6.548396   0.000000
    30  H    7.265435   7.952220   6.831294   2.568013   0.000000
 Stoichiometry    C11H16ClNO
 Framework group  C1[X(C11H16ClNO)]
 Deg. of freedom    84
 Full point group                 C1      NOp   1
 Largest Abelian subgroup         C1      NOp   1
 Largest concise Abelian subgroup C1      NOp   1
                         Standard orientation:                         
 ---------------------------------------------------------------------
 Center     Atomic      Atomic             Coordinates (Angstroms)
 Number     Number       Type             X           Y           Z
 ---------------------------------------------------------------------
      1          6           0       -3.767727   -1.322626   -1.031337
      2          6           0       -3.550625    0.139211   -0.625704
      3          6           0       -4.806098    0.714509    0.035234
      4          7           0       -2.423756    0.254127    0.321946
      5          6           0       -1.082178    0.158240   -0.265366
      6          6           0       -0.069430   -0.061568    0.880512
      7          1           0       -0.025094    0.860656    1.483480
      8          6           0        1.319922   -0.359166    0.349467
      9          6           0        1.758707   -1.686719    0.250226
     10          6           0        3.017320   -2.001778   -0.257567
     11          6           0        3.873376   -0.984462   -0.680697
     12          6           0        3.465506    0.345458   -0.590921
     13          6           0        2.202016    0.640749   -0.080353
     14         17           0        1.744207    2.349593    0.018241
     15          8           0       -0.520338   -1.141426    1.679249
     16          1           0       -4.009723   -1.928687   -0.150829
     17          1           0       -4.594680   -1.400569   -1.746119
     18          1           0       -2.880804   -1.754561   -1.506194
     19          1           0       -3.344386    0.725608   -1.540106
     20          1           0       -5.032486    0.174119    0.961874
     21          1           0       -4.677380    1.776185    0.281290
     22          1           0       -5.669804    0.630115   -0.632332
     23          1           0       -1.049907   -0.721096   -0.916292
     24          1           0       -0.803760    1.034354   -0.871048
     25          1           0        1.088051   -2.463000    0.601294
     26          1           0        3.330580   -3.040345   -0.318018
     27          1           0        4.858206   -1.218140   -1.075474
     28          1           0        4.116736    1.152759   -0.908802
     29          1           0       -1.495824   -1.060673    1.637054
     30          1           0       -2.496987    1.151626    0.801532
 ---------------------------------------------------------------------
 Rotational constants (GHZ):      1.0407556      0.3045756      0.2613854
 General basis read from cards:  (5D, 7F)
 There are   246 symmetry adapted cartesian basis functions of A   symmetry.
 There are   232 symmetry adapted basis functions of A   symmetry.
   232 basis functions,   480 primitive gaussians,   246 cartesian basis functions
    57 alpha electrons       57 beta electrons
       nuclear repulsion energy       989.2274081550 Hartrees.
 NAtoms=   30 NActive=   30 NUniq=   30 SFac= 1.00D+00 NAtFMM=   60 NAOKFM=F Big=F
 Integral buffers will be    131072 words long.
 Raffenetti 1 integral format.
 Two-electron integral symmetry is turned on.
 One-electron integrals computed using PRISM.
 NBasis=   232 RedAO= T EigKep=  4.40D-04  NBF=   232
 NBsUse=   232 1.00D-06 EigRej= -1.00D+00 NBFU=   232
 ExpMin= 1.43D-01 ExpMax= 2.52D+04 ExpMxC= 3.78D+03 IAcc=1 IRadAn=         1 AccDes= 0.00D+00
 Harris functional with IExCor=  205 and IRadAn=       1 diagonalized for initial guess.
 HarFok:  IExCor=  205 AccDes= 0.00D+00 IRadAn=         1 IDoV= 1 UseB2=F ITyADJ=14
 ICtDFT=  3500011 ScaDFX=  1.000000  1.000000  1.000000  1.000000
 FoFCou: FMM=F IPFlag=           0 FMFlag=      100000 FMFlg1=           0
         NFxFlg=           0 DoJE=T BraDBF=F KetDBF=T FulRan=T
         wScrn=  0.000000 ICntrl=     500 IOpCl=  0 I1Cent=   200000004 NGrid=           0
         NMat0=    1 NMatS0=      1 NMatT0=    0 NMatD0=    1 NMtDS0=    0 NMtDT0=    0
 Petite list used in FoFCou.
 Requested convergence on RMS density matrix=1.00D-08 within 128 cycles.
 Requested convergence on MAX density matrix=1.00D-06.
 Requested convergence on             energy=1.00D-06.
 No special actions if energy rises.
 Integral accuracy reduced to 1.0D-05 until final iterations.
 Initial convergence to 1.0D-05 achieved.  Increase integral accuracy.
 SCF Done:  E(RHF) =  -1014.64008096     A.U. after   15 cycles
            NFock= 15  Conv=0.49D-08     -V/T= 2.0004

 **********************************************************************

            Population analysis using the SCF density.

 **********************************************************************

 Orbital symmetries:
 BldTbl:  Degeneracy threshold= 1.00D-02
       Occupied  (A) (A) (A) (A) (A) (A) (A) (A) (A) (A) (A) (A)
                 (A) (A) (A) (A) (A) (A) (A) (A) (A) (A) (A) (A)
                 (A) (A) (A) (A) (A) (A) (A) (A) (A) (A) (A) (A)
                 (A) (A) (A) (A) (A) (A) (A) (A) (A) (A) (A) (A)
                 (A) (A) (A) (A) (A) (A) (A) (A) (A)
       Virtual   (A) (A) (A) (A) (A) (A) (A) (A) (A) (A) (A) (A)
                 (A) (A) (A) (A) (A) (A) (A) (A) (A) (A) (A) (A)
                 (A) (A) (A) (A) (A) (A) (A) (A) (A) (A) (A) (A)
                 (A) (A) (A) (A) (A) (A) (A) (A) (A) (A) (A) (A)
                 (A) (A) (A) (A) (A) (A) (A) (A) (A) (A) (A) (A)
                 (A) (A) (A) (A) (A) (A) (A) (A) (A) (A) (A) (A)
                 (A) (A) (A) (A) (A) (A) (A) (A) (A) (A) (A) (A)
                 (A) (A) (A) (A) (A) (A) (A) (A) (A) (A) (A) (A)
                 (A) (A) (A) (A) (A) (A) (A) (A) (A) (A) (A) (A)
                 (A) (A) (A) (A) (A) (A) (A) (A) (A) (A) (A) (A)
                 (A) (A) (A) (A) (A) (A) (A) (A) (A) (A) (A) (A)
                 (A) (A) (A) (A) (A) (A) (A) (A) (A) (A) (A) (A)
                 (A) (A) (A) (A) (A) (A) (A) (A) (A) (A) (A) (A)
                 (A) (A) (A) (A) (A) (A) (A) (A) (A) (A) (A) (A)
                 (A) (A) (A) (A) (A) (A) (A)
 The electronic state is 1-A.
 Alpha  occ. eigenvalues -- -104.81890 -20.54553 -15.56002 -11.30186 -11.28542
 Alpha  occ. eigenvalues --  -11.26563 -11.25439 -11.25182 -11.24633 -11.24218
 Alpha  occ. eigenvalues --  -11.23883 -11.23531 -11.22185 -11.21654 -10.55722
 Alpha  occ. eigenvalues --   -8.02576  -8.02259  -8.02252  -1.35436  -1.21700
 Alpha  occ. eigenvalues --   -1.18266  -1.10973  -1.05842  -1.03498  -0.99440
 Alpha  occ. eigenvalues --   -0.95359  -0.93861  -0.85821  -0.82238  -0.79365
 Alpha  occ. eigenvalues --   -0.78923  -0.69796  -0.68128  -0.67004  -0.64757
 Alpha  occ. eigenvalues --   -0.64384  -0.62740  -0.61092  -0.60675  -0.58583
 Alpha  occ. eigenvalues --   -0.57715  -0.54909  -0.54256  -0.53580  -0.53002
 Alpha  occ. eigenvalues --   -0.51798  -0.51480  -0.50103  -0.49861  -0.48347
 Alpha  occ. eigenvalues --   -0.46965  -0.46052  -0.45371  -0.43179  -0.38706
 Alpha  occ. eigenvalues --   -0.33455  -0.32807
 Alpha virt. eigenvalues --    0.13202   0.13525   0.19682   0.21205   0.24891
 Alpha virt. eigenvalues --    0.26342   0.26460   0.27136   0.28611   0.29860
 Alpha virt. eigenvalues --    0.30299   0.30666   0.30985   0.32391   0.32611
 Alpha virt. eigenvalues --    0.33507   0.34187   0.34657   0.35441   0.37830
 Alpha virt. eigenvalues --    0.38522   0.39969   0.42028   0.42555   0.43707
 Alpha virt. eigenvalues --    0.44950   0.46889   0.47952   0.48627   0.52507
 Alpha virt. eigenvalues --    0.54069   0.60046   0.61637   0.65647   0.66877
 Alpha virt. eigenvalues --    0.70074   0.70879   0.72044   0.72474   0.72768
 Alpha virt. eigenvalues --    0.74750   0.75989   0.77583   0.78966   0.80727
 Alpha virt. eigenvalues --    0.82213   0.83069   0.83846   0.84222   0.84677
 Alpha virt. eigenvalues --    0.85233   0.87274   0.89281   0.91239   0.91591
 Alpha virt. eigenvalues --    0.93694   0.94684   0.96770   0.97547   0.98261
 Alpha virt. eigenvalues --    0.99776   1.00915   1.02744   1.05236   1.07909
 Alpha virt. eigenvalues --    1.08807   1.09983   1.11125   1.11639   1.12197
 Alpha virt. eigenvalues --    1.13556   1.14205   1.15037   1.15316   1.16744
 Alpha virt. eigenvalues --    1.17047   1.18166   1.18494   1.18589   1.20181
 Alpha virt. eigenvalues --    1.21320   1.21932   1.22516   1.23567   1.24124
 Alpha virt. eigenvalues --    1.25224   1.27588   1.28148   1.28802   1.32605
 Alpha virt. eigenvalues --    1.33775   1.34916   1.35886   1.39697   1.40410
 Alpha virt. eigenvalues --    1.42499   1.46512   1.47336   1.49443   1.51987
 Alpha virt. eigenvalues --    1.57550   1.59711   1.61719   1.65017   1.67711
 Alpha virt. eigenvalues --    1.69342   1.69893   1.72113   1.73651   1.75544
 Alpha virt. eigenvalues --    1.77165   1.79304   1.84051   1.87398   1.91689
 Alpha virt. eigenvalues --    1.93684   1.96642   2.01336   2.04673   2.07950
 Alpha virt. eigenvalues --    2.08228   2.08781   2.09774   2.12601   2.14127
 Alpha virt. eigenvalues --    2.17469   2.21286   2.22762   2.23686   2.24548
 Alpha virt. eigenvalues --    2.26983   2.30087   2.31084   2.32635   2.36464
 Alpha virt. eigenvalues --    2.39101   2.39245   2.40458   2.41369   2.43611
 Alpha virt. eigenvalues --    2.45135   2.45758   2.48784   2.49163   2.50737
 Alpha virt. eigenvalues --    2.56016   2.58185   2.58623   2.60024   2.60680
 Alpha virt. eigenvalues --    2.62654   2.66658   2.70584   2.73186   2.76162
 Alpha virt. eigenvalues --    2.78155   2.83076   2.85271   2.88921   2.90338
 Alpha virt. eigenvalues --    2.91878   2.93264   2.98372   3.00801   3.05481
 Alpha virt. eigenvalues --    3.08848   3.09083   3.10337   3.13691   3.18340
 Alpha virt. eigenvalues --    3.20983   3.29493   3.32703   3.45457   3.76234
          Condensed to atoms (all electrons):
               1          2          3          4          5          6
     1  C    5.166908   0.350982  -0.061242  -0.070094  -0.004402  -0.000124
     2  C    0.350982   4.850637   0.365472   0.255816  -0.042839   0.004764
     3  C   -0.061242   0.365472   5.157416  -0.063308   0.004066  -0.000140
     4  N   -0.070094   0.255816  -0.063308   7.286313   0.229957  -0.058785
     5  C   -0.004402  -0.042839   0.004066   0.229957   5.033159   0.360874
     6  C   -0.000124   0.004764  -0.000140  -0.058785   0.360874   4.708652
     7  H    0.000000  -0.000247  -0.000002  -0.002846  -0.052904   0.418005
     8  C   -0.000005  -0.000060   0.000001   0.003922  -0.056616   0.345643
     9  C    0.000000  -0.000003   0.000000   0.000029  -0.004594  -0.033964
    10  C    0.000000   0.000000   0.000000   0.000001  -0.000118   0.002615
    11  C    0.000000   0.000000   0.000000   0.000000   0.000022   0.000017
    12  C    0.000000   0.000000   0.000000   0.000001  -0.000070   0.002329
    13  C    0.000000  -0.000002   0.000000   0.000006  -0.002029  -0.040967
    14  Cl   0.000000   0.000003   0.000000   0.000029  -0.002494  -0.001719
    15  O    0.000139   0.000034  -0.000005  -0.016840  -0.048097   0.210567
    16  H    0.382639  -0.036270  -0.004780   0.001216   0.000260  -0.000060
    17  H    0.384590  -0.035481  -0.004052   0.003753   0.000015   0.000001
    18  H    0.390912  -0.032944   0.004251  -0.001902  -0.000430  -0.000004
    19  H   -0.057886   0.414546  -0.048464  -0.055534  -0.002835  -0.000250
    20  H   -0.005390  -0.035501   0.382944   0.000182  -0.000104  -0.000003
    21  H    0.004697  -0.036358   0.388844  -0.002552  -0.000108  -0.000003
    22  H   -0.003185  -0.035197   0.389768   0.003810  -0.000095   0.000002
    23  H    0.000530  -0.004471   0.000020  -0.042246   0.394819  -0.037695
    24  H    0.000040  -0.002812  -0.000070  -0.042470   0.388800  -0.039880
    25  H    0.000000   0.000000   0.000000  -0.000017   0.000498  -0.005507
    26  H    0.000000   0.000000   0.000000   0.000000   0.000001  -0.000089
    27  H    0.000000   0.000000   0.000000   0.000000   0.000000   0.000004
    28  H    0.000000   0.000000   0.000000   0.000000   0.000001  -0.000077
    29  H   -0.000245  -0.001011  -0.000047   0.036645  -0.014535  -0.038293
    30  H    0.005258  -0.037171  -0.006583   0.323810  -0.035744  -0.002612
               7          8          9         10         11         12
     1  C    0.000000  -0.000005   0.000000   0.000000   0.000000   0.000000
     2  C   -0.000247  -0.000060  -0.000003   0.000000   0.000000   0.000000
     3  C   -0.000002   0.000001   0.000000   0.000000   0.000000   0.000000
     4  N   -0.002846   0.003922   0.000029   0.000001   0.000000   0.000001
     5  C   -0.052904  -0.056616  -0.004594  -0.000118   0.000022  -0.000070
     6  C    0.418005   0.345643  -0.033964   0.002615   0.000017   0.002329
     7  H    0.549966  -0.061605   0.003125   0.000025  -0.000008   0.000089
     8  C   -0.061605   4.961667   0.551342  -0.039136  -0.028585  -0.043706
     9  C    0.003125   0.551342   4.922461   0.526187  -0.042415  -0.037957
    10  C    0.000025  -0.039136   0.526187   4.921283   0.541613  -0.040177
    11  C   -0.000008  -0.028585  -0.042415   0.541613   4.894237   0.544554
    12  C    0.000089  -0.043706  -0.037957  -0.040177   0.544554   4.948999
    13  C   -0.001796   0.503156  -0.033630  -0.040426  -0.041002   0.520093
    14  Cl  -0.002569  -0.068882   0.001675   0.000247   0.002165  -0.069212
    15  O   -0.037703  -0.043405  -0.005116   0.000407   0.000000  -0.000035
    16  H    0.000002   0.000000   0.000000   0.000000   0.000000   0.000000
    17  H    0.000000   0.000000   0.000000   0.000000   0.000000   0.000000
    18  H   -0.000005   0.000003  -0.000005   0.000000   0.000000   0.000000
    19  H    0.000005   0.000009   0.000000   0.000000   0.000000   0.000000
    20  H    0.000000   0.000000   0.000000   0.000000   0.000000   0.000000
    21  H   -0.000001   0.000000   0.000000   0.000000   0.000000   0.000000
    22  H    0.000000   0.000000   0.000000   0.000000   0.000000   0.000000
    23  H    0.004606  -0.003493   0.001925   0.000023  -0.000016  -0.000025
    24  H    0.000353   0.001160   0.000433   0.000004  -0.000002  -0.000036
    25  H    0.000280  -0.026061   0.377549  -0.030144   0.002106   0.000081
    26  H    0.000002   0.002096  -0.029040   0.382524  -0.030175   0.002510
    27  H    0.000000   0.000192   0.002190  -0.028452   0.383059  -0.030772
    28  H    0.000000   0.001363   0.000233   0.002171  -0.025085   0.382297
    29  H    0.000824   0.005212   0.000122   0.000004   0.000000   0.000002
    30  H    0.002846  -0.000174  -0.000003   0.000000   0.000000   0.000000
              13         14         15         16         17         18
     1  C    0.000000   0.000000   0.000139   0.382639   0.384590   0.390912
     2  C   -0.000002   0.000003   0.000034  -0.036270  -0.035481  -0.032944
     3  C    0.000000   0.000000  -0.000005  -0.004780  -0.004052   0.004251
     4  N    0.000006   0.000029  -0.016840   0.001216   0.003753  -0.001902
     5  C   -0.002029  -0.002494  -0.048097   0.000260   0.000015  -0.000430
     6  C   -0.040967  -0.001719   0.210567  -0.000060   0.000001  -0.000004
     7  H   -0.001796  -0.002569  -0.037703   0.000002   0.000000  -0.000005
     8  C    0.503156  -0.068882  -0.043405   0.000000   0.000000   0.000003
     9  C   -0.033630   0.001675  -0.005116   0.000000   0.000000  -0.000005
    10  C   -0.040426   0.000247   0.000407   0.000000   0.000000   0.000000
    11  C   -0.041002   0.002165   0.000000   0.000000   0.000000   0.000000
    12  C    0.520093  -0.069212  -0.000035   0.000000   0.000000   0.000000
    13  C    5.107107   0.219190   0.001391   0.000000   0.000000   0.000000
    14  Cl   0.219190  16.938626   0.000151   0.000000   0.000000   0.000000
    15  O    0.001391   0.000151   8.495390  -0.000018   0.000000  -0.000021
    16  H    0.000000   0.000000  -0.000018   0.529701  -0.025045  -0.026946
    17  H    0.000000   0.000000   0.000000  -0.025045   0.537268  -0.027115
    18  H    0.000000   0.000000  -0.000021  -0.026946  -0.027115   0.526567
    19  H    0.000000  -0.000002  -0.000022   0.004693   0.000236  -0.002629
    20  H    0.000000   0.000000  -0.000008   0.003246   0.000341  -0.000080
    21  H    0.000000   0.000000   0.000001  -0.000068  -0.000072  -0.000097
    22  H    0.000000   0.000000   0.000000   0.000212   0.001644  -0.000038
    23  H    0.000936   0.000044   0.002202  -0.000003  -0.000062   0.000139
    24  H   -0.000265   0.000046   0.002669   0.000023   0.000013   0.000056
    25  H    0.003306  -0.000088   0.009249   0.000000   0.000000   0.000000
    26  H    0.000194   0.000008  -0.000003   0.000000   0.000000   0.000000
    27  H    0.002592  -0.000101   0.000000   0.000000   0.000000   0.000000
    28  H   -0.029747   0.000595   0.000000   0.000000   0.000000   0.000000
    29  H   -0.000104  -0.000003   0.252597   0.000487   0.000008   0.000022
    30  H    0.000018   0.000024   0.000653  -0.000113  -0.000110  -0.000148
              19         20         21         22         23         24
     1  C   -0.057886  -0.005390   0.004697  -0.003185   0.000530   0.000040
     2  C    0.414546  -0.035501  -0.036358  -0.035197  -0.004471  -0.002812
     3  C   -0.048464   0.382944   0.388844   0.389768   0.000020  -0.000070
     4  N   -0.055534   0.000182  -0.002552   0.003810  -0.042246  -0.042470
     5  C   -0.002835  -0.000104  -0.000108  -0.000095   0.394819   0.388800
     6  C   -0.000250  -0.000003  -0.000003   0.000002  -0.037695  -0.039880
     7  H    0.000005   0.000000  -0.000001   0.000000   0.004606   0.000353
     8  C    0.000009   0.000000   0.000000   0.000000  -0.003493   0.001160
     9  C    0.000000   0.000000   0.000000   0.000000   0.001925   0.000433
    10  C    0.000000   0.000000   0.000000   0.000000   0.000023   0.000004
    11  C    0.000000   0.000000   0.000000   0.000000  -0.000016  -0.000002
    12  C    0.000000   0.000000   0.000000   0.000000  -0.000025  -0.000036
    13  C    0.000000   0.000000   0.000000   0.000000   0.000936  -0.000265
    14  Cl  -0.000002   0.000000   0.000000   0.000000   0.000044   0.000046
    15  O   -0.000022  -0.000008   0.000001   0.000000   0.002202   0.002669
    16  H    0.004693   0.003246  -0.000068   0.000212  -0.000003   0.000023
    17  H    0.000236   0.000341  -0.000072   0.001644  -0.000062   0.000013
    18  H   -0.002629  -0.000080  -0.000097  -0.000038   0.000139   0.000056
    19  H    0.596036   0.004783  -0.003714  -0.000854  -0.000716   0.004179
    20  H    0.004783   0.526360  -0.028502  -0.024664  -0.000003   0.000009
    21  H   -0.003714  -0.028502   0.537878  -0.025597  -0.000001  -0.000014
    22  H   -0.000854  -0.024664  -0.025597   0.521145  -0.000001   0.000004
    23  H   -0.000716  -0.000003  -0.000001  -0.000001   0.524676  -0.028988
    24  H    0.004179   0.000009  -0.000014   0.000004  -0.028988   0.541073
    25  H    0.000000   0.000000   0.000000   0.000000   0.000361  -0.000007
    26  H    0.000000   0.000000   0.000000   0.000000   0.000002   0.000000
    27  H    0.000000   0.000000   0.000000   0.000000   0.000000   0.000000
    28  H    0.000000   0.000000   0.000000   0.000000   0.000000   0.000000
    29  H    0.000156   0.000087  -0.000007   0.000000  -0.000557   0.001008
    30  H   -0.000537  -0.000127   0.003804   0.000040   0.004770  -0.003188
              25         26         27         28         29         30
     1  C    0.000000   0.000000   0.000000   0.000000  -0.000245   0.005258
     2  C    0.000000   0.000000   0.000000   0.000000  -0.001011  -0.037171
     3  C    0.000000   0.000000   0.000000   0.000000  -0.000047  -0.006583
     4  N   -0.000017   0.000000   0.000000   0.000000   0.036645   0.323810
     5  C    0.000498   0.000001   0.000000   0.000001  -0.014535  -0.035744
     6  C   -0.005507  -0.000089   0.000004  -0.000077  -0.038293  -0.002612
     7  H    0.000280   0.000002   0.000000   0.000000   0.000824   0.002846
     8  C   -0.026061   0.002096   0.000192   0.001363   0.005212  -0.000174
     9  C    0.377549  -0.029040   0.002190   0.000233   0.000122  -0.000003
    10  C   -0.030144   0.382524  -0.028452   0.002171   0.000004   0.000000
    11  C    0.002106  -0.030175   0.383059  -0.025085   0.000000   0.000000
    12  C    0.000081   0.002510  -0.030772   0.382297   0.000002   0.000000
    13  C    0.003306   0.000194   0.002592  -0.029747  -0.000104   0.000018
    14  Cl  -0.000088   0.000008  -0.000101   0.000595  -0.000003   0.000024
    15  O    0.009249  -0.000003   0.000000   0.000000   0.252597   0.000653
    16  H    0.000000   0.000000   0.000000   0.000000   0.000487  -0.000113
    17  H    0.000000   0.000000   0.000000   0.000000   0.000008  -0.000110
    18  H    0.000000   0.000000   0.000000   0.000000   0.000022  -0.000148
    19  H    0.000000   0.000000   0.000000   0.000000   0.000156  -0.000537
    20  H    0.000000   0.000000   0.000000   0.000000   0.000087  -0.000127
    21  H    0.000000   0.000000   0.000000   0.000000  -0.000007   0.003804
    22  H    0.000000   0.000000   0.000000   0.000000   0.000000   0.000040
    23  H    0.000361   0.000002   0.000000   0.000000  -0.000557   0.004770
    24  H   -0.000007   0.000000   0.000000   0.000000   0.001008  -0.003188
    25  H    0.419955  -0.001075  -0.000091   0.000008  -0.000187   0.000000
    26  H   -0.001075   0.463320  -0.001333  -0.000093   0.000000   0.000000
    27  H   -0.000091  -0.001333   0.462277  -0.001561   0.000000   0.000000
    28  H    0.000008  -0.000093  -0.001561   0.440142   0.000000   0.000000
    29  H   -0.000187   0.000000   0.000000   0.000000   0.269827  -0.000721
    30  H    0.000000   0.000000   0.000000   0.000000  -0.000721   0.394084
 Mulliken charges:
               1
     1  C   -0.484123
     2  C    0.058114
     3  C   -0.504089
     4  N   -0.788896
     5  C   -0.144458
     6  C    0.206699
     7  H    0.179557
     8  C   -0.004036
     9  C   -0.200543
    10  C   -0.198652
    11  C   -0.200487
    12  C   -0.178964
    13  C   -0.168020
    14  Cl  -0.017731
    15  O   -0.824179
    16  H    0.170825
    17  H    0.164066
    18  H    0.170414
    19  H    0.148799
    20  H    0.176430
    21  H    0.161869
    22  H    0.173005
    23  H    0.183222
    24  H    0.177861
    25  H    0.249784
    26  H    0.211153
    27  H    0.211998
    28  H    0.229752
    29  H    0.488708
    30  H    0.351922
 Sum of Mulliken charges =   0.00000
 Mulliken charges with hydrogens summed into heavy atoms:
               1
     1  C    0.021182
     2  C    0.206913
     3  C    0.007215
     4  N   -0.436974
     5  C    0.216625
     6  C    0.386256
     8  C   -0.004036
     9  C    0.049241
    10  C    0.012502
    11  C    0.011511
    12  C    0.050788
    13  C   -0.168020
    14  Cl  -0.017731
    15  O   -0.335471
 DipInt: DoE/N= T F RetVal/Mat= T F Init=T NMatP=  1 IDeriv=0 Min/MaxMlt=  0  4
 Entering OneElI...
 OneElI was handed   235772052 working-precision words.
 Multipole integrals L=0 to 4 MinM= 0 MaxM= 0.
 Requested accuracy = 0.1000D-12
 PrtBox:  NBox=     1 Levels=  1 BoxLen=   38.94 SMaxX=       19.90
          Shift=           10.714377            5.745420            3.299686
 Box      1 Number                   0 centers from      1 to     89:
 ShPair: Thresh= 1.00D-13 NBox=     1 BxSize= 3.89D+01 RnKept= 2.02D+01
         NSMCal=                 4005 NSMKep=                3368
 PrsmSu:  NPrtUS=   1 ThrOK=F IAlg=1 NPAlg=1 LenDen=           0.
 Prism:   IPart=     0 DynPar=F LinDyn=F Incr=          33.
 PRISM was handed   235481106 working-precision words and  3368 shell-pairs
 IPart=  0 NShTot=        3368 NBatch=          97 AvBLen=        34.7
 PrSmSu:  NxtVal=             34.
 Electronic moments (au):
       -114.00000000         -0.54321437         -0.01140973         -0.74187550
      -3185.11207199       -801.17527215       -294.61572396         -4.20164890
         -2.12076906          2.27917535       5632.45322991       -448.12090513
       -160.65171692      -1541.28603145        711.54089562       2145.20876648
        383.19727339        318.50328515         41.85172660        136.31230320
    -173778.11539839     -13788.61636470      -2520.68491810       9394.86481291
       -807.16568970      -1769.73886420       -290.03876434       -343.94558080
        310.45728118     -18754.00522617      -7296.65376484      -1603.15336560
      -3434.54646872       -231.98449355       -623.57973503
 Electronic spatial extent (au):  <R**2>=           4280.9031
 DipInt: DoE/N= F T RetVal/Mat= T F Init=T NMatP=  1 IDeriv=0 Min/MaxMlt=  0  4
 Nuclear    moments (au):
        114.00000000          0.00000000          0.00000000          0.00000000
       3125.92300197        732.88174763        222.14338016          0.00000000
          0.00002424         -0.00005889      -5620.08174982        440.49468523
        164.33410461       1540.48820225       -719.74860009      -2170.36438800
       -398.26636051       -305.46902364        -40.14125347       -136.73954598
     162817.96359238      11121.96046157       1455.86729674      -9445.47310457
        614.15280857       1674.50277212        282.17885931        330.71948325
       -304.59805759      16421.84987113       5187.46669871        941.79333105
       3438.19500474        184.80329074        659.15707782
 Total      moments (au):
          0.00000000         -0.54321437         -0.01140973         -0.74187550
        -59.18907003        -68.29352452        -72.47234380         -4.20164890
         -2.12074482          2.27911646         12.37148009         -7.62621991
          3.68238768         -0.79782920         -8.20770446        -25.15562152
        -15.06908712         13.03426151          1.71047313         -0.42724278
     -10960.15180602      -2666.65590313      -1064.81762136        -50.60829166
       -193.01288114        -95.23609208         -7.85990503        -13.22609755
          5.85922359      -2332.15535504      -2109.18706612       -661.36003454
          3.64853602        -47.18120281         35.57734279
 Traceless Quadrup. (au):
          7.46257609         -1.64187840         -5.82069769         -4.20164890
         -2.12074482          2.27911646
 Charge=              0.0000 electrons
 Dipole moment (field-independent basis, Debye):
    X=             -1.3807    Y=             -0.0290    Z=             -1.8857  Tot=              2.3373
 Quadrupole moment (field-independent basis, Debye-Ang):
   XX=            -79.6113   YY=            -91.8571   ZZ=            -97.4778
   XY=             -5.6514   XZ=             -2.8525   YZ=              3.0655
 Traceless Quadrupole moment (field-independent basis, Debye-Ang):
   XX=             10.0374   YY=             -2.2084   ZZ=             -7.8290
   XY=             -5.6514   XZ=             -2.8525   YZ=              3.0655
 Octapole moment (field-independent basis, Debye-Ang**2):
  XXX=              8.8055  YYY=             -5.4280  ZZZ=              2.6210  XYY=             -0.5679
  XXY=             -5.8419  XXZ=            -17.9048  XZZ=            -10.7256  YZZ=              9.2773
  YYZ=              1.2174  XYZ=             -0.3041
 Hexadecapole moment (field-independent basis, Debye-Ang**3):
 XXXX=          -4128.1185 YYYY=          -1004.3904 ZZZZ=           -401.0613 XXXY=            -19.0615
 XXXZ=            -72.6979 YYYX=            -35.8705 YYYZ=             -2.9604 ZZZX=             -4.9816
 ZZZY=              2.2069 XXYY=           -878.4015 XXZZ=           -794.4209 YYZZ=           -249.0999
 XXYZ=              1.3742 YYXZ=            -17.7707 ZZXY=             13.4001
 N-N= 9.892274081550D+02 E-N=-4.369404273282D+03  KE= 1.014284018013D+03
 Entering OneElI...
 OneElI was handed   235808143 working-precision words.
 Calculate electrostatic properties
    NBasis =   232  MinDer = 0  MaxDer = 0
    NGrid  =    30  NMatD  =   1
 Requested accuracy = 0.1000D-12
 PrtBox:  NBox=     1 Levels=  1 BoxLen=   32.45 SMaxX=       19.90
          Shift=           10.714377            5.745420            3.299686
 Box      1 Number                   0 centers from      1 to     89:
 ShPair: Thresh= 1.00D-13 NBox=     1 BxSize= 3.24D+01 RnKept= 1.83D+01
         NSMCal=                 4005 NSMKep=                3009
 PrsmSu:  NPrtUS=   1 ThrOK=F IAlg=1 NPAlg=1 LenDen=           0.
 Prism:   IPart=     0 DynPar=F LinDyn=F Incr=         512.
 PRISM was handed   235547488 working-precision words and  3009 shell-pairs
 IPart=  0 NShTot=       90270 NBatch=        3087 AvBLen=        29.2
 PrSmSu:  NxtVal=            513.
 --------------------------------------------------------
       Center         ----      EFG at Nuclei      ----
                      3XX-RR        3YY-RR        3ZZ-RR
 --------------------------------------------------------
     1   Atom        0.002942     -0.022102      0.019160
     2   Atom       -0.082229      0.102066     -0.019838
     3   Atom       -0.005692     -0.001888      0.007580
     4   Atom       -0.555770      0.364749      0.191021
     5   Atom       -0.155255      0.121396      0.033859
     6   Atom        0.060614     -0.076951      0.016337
     7   Atom        0.132197     -0.147407      0.015210
     8   Atom        0.073911      0.167866     -0.241777
     9   Atom        0.114317      0.151665     -0.265981
    10   Atom        0.114629      0.139541     -0.254170
    11   Atom        0.074580      0.181099     -0.255678
    12   Atom        0.048795      0.187443     -0.236238
    13   Atom        0.269512     -0.283584      0.014072
    14   Atom        1.515483     -3.225156      1.709673
    15   Atom       -1.017057      0.076405      0.940652
    16   Atom        0.130006      0.009990     -0.139996
    17   Atom       -0.103773      0.141585     -0.037811
    18   Atom       -0.147773      0.078050      0.069722
    19   Atom        0.117984      0.023496     -0.141480
    20   Atom        0.128726      0.038871     -0.167597
    21   Atom        0.135194     -0.265263      0.130069
    22   Atom       -0.129684      0.148648     -0.018964
    23   Atom        0.134624     -0.130911     -0.003714
    24   Atom        0.107585     -0.125594      0.018009
    25   Atom       -0.019190     -0.096915      0.116105
    26   Atom        0.109017     -0.270089      0.161072
    27   Atom       -0.225084      0.122239      0.102844
    28   Atom       -0.018637     -0.105726      0.124363
    29   Atom       -0.388069      0.184517      0.203552
    30   Atom        0.152083     -0.238550      0.086467
 --------------------------------------------------------
                        XY            XZ            YZ
 --------------------------------------------------------
     1   Atom       -0.008744     -0.004091     -0.001904
     2   Atom       -0.011833     -0.150657     -0.014126
     3   Atom        0.006004      0.014052     -0.016630
     4   Atom        0.102185     -0.098723     -0.791191
     5   Atom        0.020969      0.090771     -0.006004
     6   Atom       -0.088418      0.101879      0.202357
     7   Atom       -0.012860     -0.003390     -0.185317
     8   Atom       -0.037346     -0.151031     -0.021360
     9   Atom       -0.003806     -0.200439     -0.043111
    10   Atom        0.000916     -0.188816     -0.030878
    11   Atom        0.010712     -0.168577     -0.034747
    12   Atom       -0.019919     -0.144266     -0.020756
    13   Atom        0.176247     -0.150057     -0.061872
    14   Atom        1.268905      0.022395     -0.263451
    15   Atom       -0.602148      0.513461      1.265742
    16   Atom       -0.054185      0.081081      0.195244
    17   Atom       -0.021759     -0.221655     -0.021191
    18   Atom        0.138631      0.158168     -0.078360
    19   Atom       -0.042835      0.061263      0.179830
    20   Atom       -0.042452      0.079374      0.184798
    21   Atom       -0.052387     -0.010635     -0.096957
    22   Atom       -0.024784     -0.214204     -0.025013
    23   Atom        0.009989      0.007327     -0.211683
    24   Atom       -0.079695      0.057373      0.186014
    25   Atom       -0.198854      0.089577      0.105808
    26   Atom        0.125487      0.015290     -0.023146
    27   Atom        0.088781      0.157187     -0.034164
    28   Atom       -0.201167      0.089139      0.099712
    29   Atom        0.026996     -0.004638      0.028514
    30   Atom        0.038963      0.010411     -0.249691
 --------------------------------------------------------


 ---------------------------------------------------------------------------------
              Nuclear Quadrupole Coupling Constant in Principal Axis System
 ---------------------------------------------------------------------------------

       Atom             a.u.   MegaHertz   Gauss  10(-4) cm-1        Axes

              Baa    -0.5686     2.731     0.974     0.911  0.9909  0.0058  0.1348
     4 N(14)  Bbb    -0.5175     2.485     0.887     0.829 -0.1039  0.6707  0.7344
              Bcc     1.0861    -5.216    -1.861    -1.740  0.0862  0.7417 -0.6651
 
              Baa    -3.5564   -68.228   -24.346   -22.759 -0.2426  0.9689  0.0495
    14 Cl(35) Bbb     1.7083    32.774    11.695    10.932  0.3215  0.0322  0.9464
              Bcc     1.8480    35.454    12.651    11.826  0.9153  0.2455 -0.3193
 

 ---------------------------------------------------------------------------------

 No NMR shielding tensors so no spin-rotation constants.
 Leave Link  601 at Thu Jan 16 21:49:40 2014, MaxMem=   235929600 cpu:         0.4
 FitSet:  NAtFit=    30 NAtPot=    30 NAtFrz=     0 MDM=    34 TotChg=   0.00000
 Merz-Kollman atomic radii used.
 Atom Element Radius
    1     6    1.50
    2     6    1.50
    3     6    1.50
    4     7    1.50
    5     6    1.50
    6     6    1.50
    7     1    1.20
    8     6    1.50
    9     6    1.50
   10     6    1.50
   11     6    1.50
   12     6    1.50
   13     6    1.50
   14    17    1.70
   15     8    1.40
   16     1    1.20
   17     1    1.20
   18     1    1.20
   19     1    1.20
   20     1    1.20
   21     1    1.20
   22     1    1.20
   23     1    1.20
   24     1    1.20
   25     1    1.20
   26     1    1.20
   27     1    1.20
   28     1    1.20
   29     1    1.20
   30     1    1.20
 Generate VDW surfaces: Layer= 5 Dens= 2 Start= 1.400 Inc= 0.179

 **********************************************************************

            Electrostatic Properties Using The SCF Density

 **********************************************************************

       Atomic Center    1 is at  -3.767727 -1.322626 -1.031337
       Atomic Center    2 is at  -3.550625  0.139211 -0.625704
       Atomic Center    3 is at  -4.806098  0.714509  0.035234
       Atomic Center    4 is at  -2.423756  0.254127  0.321946
       Atomic Center    5 is at  -1.082178  0.158240 -0.265366
       Atomic Center    6 is at  -0.069430 -0.061568  0.880512
       Atomic Center    7 is at  -0.025094  0.860656  1.483480
       Atomic Center    8 is at   1.319922 -0.359166  0.349467
       Atomic Center    9 is at   1.758707 -1.686719  0.250226
       Atomic Center   10 is at   3.017320 -2.001778 -0.257567
       Atomic Center   11 is at   3.873376 -0.984462 -0.680697
       Atomic Center   12 is at   3.465506  0.345458 -0.590921
       Atomic Center   13 is at   2.202016  0.640749 -0.080353
       Atomic Center   14 is at   1.744207  2.349593  0.018241
       Atomic Center   15 is at  -0.520338 -1.141426  1.679249
       Atomic Center   16 is at  -4.009723 -1.928687 -0.150829
       Atomic Center   17 is at  -4.594680 -1.400569 -1.746119
       Atomic Center   18 is at  -2.880804 -1.754561 -1.506194
       Atomic Center   19 is at  -3.344386  0.725608 -1.540106
       Atomic Center   20 is at  -5.032486  0.174119  0.961874
       Atomic Center   21 is at  -4.677380  1.776185  0.281290
       Atomic Center   22 is at  -5.669804  0.630115 -0.632332
       Atomic Center   23 is at  -1.049907 -0.721096 -0.916292
       Atomic Center   24 is at  -0.803760  1.034354 -0.871048
       Atomic Center   25 is at   1.088051 -2.463000  0.601294
       Atomic Center   26 is at   3.330580 -3.040345 -0.318018
       Atomic Center   27 is at   4.858206 -1.218140 -1.075474
       Atomic Center   28 is at   4.116736  1.152759 -0.908802
       Atomic Center   29 is at  -1.495824 -1.060673  1.637054
       Atomic Center   30 is at  -2.496987  1.151626  0.801532
      ESP Fit Center   31 is at  -2.106304 -2.062339  0.018663
      ESP Fit Center   32 is at  -4.333688 -3.311774 -1.395998
      ESP Fit Center   33 is at  -3.576907 -3.381900 -1.395998
      ESP Fit Center   34 is at  -3.957828 -3.131316 -2.081337
      ESP Fit Center   35 is at  -3.408606 -0.700610 -3.004691
      ESP Fit Center   36 is at  -5.690064  1.734661  1.643927
      ESP Fit Center   37 is at  -6.277419  1.783487  1.085234
      ESP Fit Center   38 is at  -6.585009  1.092628  1.085234
      ESP Fit Center   39 is at  -6.564429  1.803222  0.399895
      ESP Fit Center   40 is at  -6.564429 -0.374203  0.399895
      ESP Fit Center   41 is at  -5.715425  2.289509 -1.014766
      ESP Fit Center   42 is at  -4.998202  2.050624 -1.573459
      ESP Fit Center   43 is at  -2.423756  0.254127  2.421946
      ESP Fit Center   44 is at  -3.141998  0.254127  2.295301
      ESP Fit Center   45 is at  -3.718931  0.634425  1.930639
      ESP Fit Center   46 is at  -3.307722 -0.766025  1.930639
      ESP Fit Center   47 is at  -3.333083 -1.320873  1.371946
      ESP Fit Center   48 is at  -2.613857  2.062818 -0.728054
      ESP Fit Center   49 is at   0.267676  0.158240 -1.874059
      ESP Fit Center   50 is at  -0.363936  0.158240 -2.238720
      ESP Fit Center   51 is at  -1.800420  0.158240 -2.238720
      ESP Fit Center   52 is at  -1.082178  0.158240 -2.365366
      ESP Fit Center   53 is at   0.648812 -0.061568  2.853867
      ESP Fit Center   54 is at   1.280424 -0.061568  2.489205
      ESP Fit Center   55 is at  -0.025094  0.860656  3.163480
      ESP Fit Center   56 is at   0.703831  0.860656  2.997108
      ESP Fit Center   57 is at   0.339368  1.491923  2.997108
      ESP Fit Center   58 is at  -0.389556  1.491923  2.997108
      ESP Fit Center   59 is at  -0.754019  0.860656  2.997108
      ESP Fit Center   60 is at   0.339368  0.229389  2.997108
      ESP Fit Center   61 is at   1.288383  0.860656  2.530943
      ESP Fit Center   62 is at   1.037531  1.632698  2.530943
      ESP Fit Center   63 is at   0.380793  2.109847  2.530943
      ESP Fit Center   64 is at  -0.430981  2.109847  2.530943
      ESP Fit Center   65 is at  -1.087719  1.632698  2.530943
      ESP Fit Center   66 is at  -1.338571  0.860656  2.530943
      ESP Fit Center   67 is at   0.172331  2.486593  1.857315
      ESP Fit Center   68 is at  -0.605894  2.392099  1.857315
      ESP Fit Center   69 is at  -1.251064  1.946771  1.857315
      ESP Fit Center   70 is at  -0.605894  2.392099  1.109645
      ESP Fit Center   71 is at   1.319922 -0.359166  2.449467
      ESP Fit Center   72 is at   2.038164 -0.359166  2.322822
      ESP Fit Center   73 is at   1.679043  0.262850  2.322822
      ESP Fit Center   74 is at   1.679043 -0.981182  2.322822
      ESP Fit Center   75 is at   2.669776 -0.359166  1.958160
      ESP Fit Center   76 is at   0.601680 -0.359166 -1.623887
      ESP Fit Center   77 is at   0.960801 -0.981182 -1.623887
      ESP Fit Center   78 is at   1.319922 -0.359166 -1.750533
      ESP Fit Center   79 is at   1.758707 -1.686719  2.350226
      ESP Fit Center   80 is at   2.476949 -1.686719  2.223581
      ESP Fit Center   81 is at   2.117828 -1.064703  2.223581
      ESP Fit Center   82 is at   2.117828 -2.308735  2.223581
      ESP Fit Center   83 is at   3.108561 -1.686719  1.858919
      ESP Fit Center   84 is at   2.894276 -0.956933  1.858919
      ESP Fit Center   85 is at   2.319457 -2.914589  1.858919
      ESP Fit Center   86 is at   2.894276 -2.416505  1.858919
      ESP Fit Center   87 is at   2.320702 -3.416361  1.300226
      ESP Fit Center   88 is at  -0.020204 -2.064838 -0.799774
      ESP Fit Center   89 is at   1.568606 -3.495410 -0.799774
      ESP Fit Center   90 is at   0.463532 -1.306421 -1.358467
      ESP Fit Center   91 is at   0.463532 -2.067017 -1.358467
      ESP Fit Center   92 is at   0.874741 -2.706871 -1.358467
      ESP Fit Center   93 is at   1.399586 -1.064703 -1.723128
      ESP Fit Center   94 is at   1.040465 -1.686719 -1.723128
      ESP Fit Center   95 is at   1.399586 -2.308735 -1.723128
      ESP Fit Center   96 is at   3.735562 -2.001778  1.715788
      ESP Fit Center   97 is at   3.376441 -1.379762  1.715788
      ESP Fit Center   98 is at   3.376441 -2.623794  1.715788
      ESP Fit Center   99 is at   4.367174 -2.001778  1.351126
      ESP Fit Center  100 is at   2.825216 -3.337892  1.351126
      ESP Fit Center  101 is at   3.578070 -3.229648  1.351126
      ESP Fit Center  102 is at   4.152889 -2.731564  1.351126
      ESP Fit Center  103 is at   4.678742 -2.741491  0.792433
      ESP Fit Center  104 is at   4.945762 -2.748861  0.107094
      ESP Fit Center  105 is at   1.771014 -3.652155 -0.622228
      ESP Fit Center  106 is at   2.133354 -0.981627 -1.866260
      ESP Fit Center  107 is at   1.722145 -1.621480 -1.866260
      ESP Fit Center  108 is at   1.722145 -2.382076 -1.866260
      ESP Fit Center  109 is at   2.133354 -3.021930 -1.866260
      ESP Fit Center  110 is at   4.152889 -2.731564 -1.866260
      ESP Fit Center  111 is at   2.299078 -2.001778 -2.230921
      ESP Fit Center  112 is at   2.658199 -2.623794 -2.230921
      ESP Fit Center  113 is at   3.376441 -2.623794 -2.230921
      ESP Fit Center  114 is at   3.017320 -2.001778 -2.357567
      ESP Fit Center  115 is at   3.873376 -0.984462  1.419303
      ESP Fit Center  116 is at   4.591618 -0.984462  1.292658
      ESP Fit Center  117 is at   4.232497 -0.362446  1.292658
      ESP Fit Center  118 is at   5.223230 -0.984462  0.927996
      ESP Fit Center  119 is at   5.008945 -0.254676  0.927996
      ESP Fit Center  120 is at   5.008945 -1.714248  0.927996
      ESP Fit Center  121 is at   5.692029 -0.984462  0.369303
      ESP Fit Center  122 is at   5.534799 -0.244749  0.369303
      ESP Fit Center  123 is at   5.090293 -2.335985  0.369303
      ESP Fit Center  124 is at   4.435371 -2.714104 -1.730697
      ESP Fit Center  125 is at   2.578201 -0.604164 -2.289390
      ESP Fit Center  126 is at   2.578201 -1.364760 -2.289390
      ESP Fit Center  127 is at   3.681272 -2.320577 -2.289390
      ESP Fit Center  128 is at   4.232497 -0.362446 -2.654051
      ESP Fit Center  129 is at   3.514255 -0.362446 -2.654051
      ESP Fit Center  130 is at   3.155134 -0.984462 -2.654051
      ESP Fit Center  131 is at   3.514255 -1.606478 -2.654051
      ESP Fit Center  132 is at   4.232497 -1.606478 -2.654051
      ESP Fit Center  133 is at   3.873376 -0.984462 -2.780697
      ESP Fit Center  134 is at   4.183748  0.345458  1.382434
      ESP Fit Center  135 is at   3.824627  0.967474  1.382434
      ESP Fit Center  136 is at   3.824627 -0.276558  1.382434
      ESP Fit Center  137 is at   4.815360  0.345458  1.017772
      ESP Fit Center  138 is at   4.601075  1.075244  1.017772
      ESP Fit Center  139 is at   4.026256  1.573328  1.017772
      ESP Fit Center  140 is at   5.284159  0.345458  0.459079
      ESP Fit Center  141 is at   5.126929  1.085171  0.459079
      ESP Fit Center  142 is at   5.533602  0.345458 -0.226260
      ESP Fit Center  143 is at   2.581540  1.365609 -2.199614
      ESP Fit Center  144 is at   2.170331  0.725756 -2.199614
      ESP Fit Center  145 is at   2.170331 -0.034840 -2.199614
      ESP Fit Center  146 is at   4.183748  0.345458 -2.564275
      ESP Fit Center  147 is at   3.824627  0.967474 -2.564275
      ESP Fit Center  148 is at   3.106385  0.967474 -2.564275
      ESP Fit Center  149 is at   2.747264  0.345458 -2.564275
      ESP Fit Center  150 is at   3.106385 -0.276558 -2.564275
      ESP Fit Center  151 is at   3.465506  0.345458 -2.690921
      ESP Fit Center  152 is at   2.202016  0.640749  2.019647
      ESP Fit Center  153 is at   2.920258  0.640749  1.893002
      ESP Fit Center  154 is at   3.551870  0.640749  1.528340
      ESP Fit Center  155 is at   3.337585  1.370535  1.528340
      ESP Fit Center  156 is at   3.337585 -0.089037  1.528340
      ESP Fit Center  157 is at   0.906841  0.260451 -1.689046
      ESP Fit Center  158 is at   1.483774  0.640749 -2.053707
      ESP Fit Center  159 is at   1.842895  0.018733 -2.053707
      ESP Fit Center  160 is at   1.744207  2.349593  2.398241
      ESP Fit Center  161 is at   2.479668  2.349593  2.281756
      ESP Fit Center  162 is at   2.111937  2.986520  2.281756
      ESP Fit Center  163 is at   1.376477  2.986520  2.281756
      ESP Fit Center  164 is at   1.008747  2.349593  2.281756
      ESP Fit Center  165 is at   1.376477  1.712666  2.281756
      ESP Fit Center  166 is at   2.111937  1.712666  2.281756
      ESP Fit Center  167 is at   3.143136  2.349593  1.943702
      ESP Fit Center  168 is at   2.955715  3.049057  1.943702
      ESP Fit Center  169 is at   2.443672  3.561101  1.943702
      ESP Fit Center  170 is at   1.744207  3.748522  1.943702
      ESP Fit Center  171 is at   1.044743  3.561101  1.943702
      ESP Fit Center  172 is at   0.532699  3.049057  1.943702
      ESP Fit Center  173 is at   2.955715  1.650128  1.943702
      ESP Fit Center  174 is at   3.669668  2.349593  1.417170
      ESP Fit Center  175 is at   3.523101  3.086435  1.417170
      ESP Fit Center  176 is at   3.105713  3.711099  1.417170
      ESP Fit Center  177 is at   2.481049  4.128486  1.417170
      ESP Fit Center  178 is at   1.744207  4.275053  1.417170
      ESP Fit Center  179 is at   1.007365  4.128486  1.417170
      ESP Fit Center  180 is at   0.382701  3.711099  1.417170
      ESP Fit Center  181 is at  -0.034686  3.086435  1.417170
      ESP Fit Center  182 is at   3.523101  1.612751  1.417170
      ESP Fit Center  183 is at   4.007722  2.349593  0.753702
      ESP Fit Center  184 is at   3.885078  3.084555  0.753702
      ESP Fit Center  185 is at   3.530438  3.739872  0.753702
      ESP Fit Center  186 is at   2.982232  4.244531  0.753702
      ESP Fit Center  187 is at   2.299867  4.543845  0.753702
      ESP Fit Center  188 is at   1.557288  4.605376  0.753702
      ESP Fit Center  189 is at   0.834964  4.422459  0.753702
      ESP Fit Center  190 is at   0.211170  4.014915  0.753702
      ESP Fit Center  191 is at  -0.246494  3.426907  0.753702
      ESP Fit Center  192 is at  -0.488436  2.722155  0.753702
      ESP Fit Center  193 is at   4.018470  3.051110  0.018241
      ESP Fit Center  194 is at   3.710655  3.690295  0.018241
      ESP Fit Center  195 is at   3.228113  4.210352  0.018241
      ESP Fit Center  196 is at   2.613719  4.565072  0.018241
      ESP Fit Center  197 is at   1.922065  4.722938  0.018241
      ESP Fit Center  198 is at   1.214607  4.669921  0.018241
      ESP Fit Center  199 is at   0.554207  4.410733  0.018241
      ESP Fit Center  200 is at  -0.000456  3.968404  0.018241
      ESP Fit Center  201 is at  -0.400099  3.382236  0.018241
      ESP Fit Center  202 is at  -0.609210  2.704314  0.018241
      ESP Fit Center  203 is at   3.885078  3.084555 -0.717219
      ESP Fit Center  204 is at   3.530438  3.739872 -0.717219
      ESP Fit Center  205 is at   2.982232  4.244531 -0.717219
      ESP Fit Center  206 is at   2.299867  4.543845 -0.717219
      ESP Fit Center  207 is at   1.557288  4.605376 -0.717219
      ESP Fit Center  208 is at   0.834964  4.422459 -0.717219
      ESP Fit Center  209 is at   0.211170  4.014915 -0.717219
      ESP Fit Center  210 is at  -0.246494  3.426907 -0.717219
      ESP Fit Center  211 is at  -0.488436  2.722155 -0.717219
      ESP Fit Center  212 is at   3.523101  3.086435 -1.380688
      ESP Fit Center  213 is at   3.105713  3.711099 -1.380688
      ESP Fit Center  214 is at   2.481049  4.128486 -1.380688
      ESP Fit Center  215 is at   1.744207  4.275053 -1.380688
      ESP Fit Center  216 is at   1.007365  4.128486 -1.380688
      ESP Fit Center  217 is at   0.382701  3.711099 -1.380688
      ESP Fit Center  218 is at  -0.034686  3.086435 -1.380688
      ESP Fit Center  219 is at   3.143136  2.349593 -1.907219
      ESP Fit Center  220 is at   2.955715  3.049057 -1.907219
      ESP Fit Center  221 is at   2.443672  3.561101 -1.907219
      ESP Fit Center  222 is at   1.744207  3.748522 -1.907219
      ESP Fit Center  223 is at   1.044743  3.561101 -1.907219
      ESP Fit Center  224 is at   0.532699  3.049057 -1.907219
      ESP Fit Center  225 is at   0.345278  2.349593 -1.907219
      ESP Fit Center  226 is at   0.532699  1.650128 -1.907219
      ESP Fit Center  227 is at   1.044743  1.138085 -1.907219
      ESP Fit Center  228 is at   2.479668  2.349593 -2.245273
      ESP Fit Center  229 is at   2.111937  2.986520 -2.245273
      ESP Fit Center  230 is at   1.376477  2.986520 -2.245273
      ESP Fit Center  231 is at   1.008747  2.349593 -2.245273
      ESP Fit Center  232 is at   1.376477  1.712666 -2.245273
      ESP Fit Center  233 is at   2.111937  1.712666 -2.245273
      ESP Fit Center  234 is at   1.744207  2.349593 -2.361759
      ESP Fit Center  235 is at  -0.520338 -1.141426  3.639249
      ESP Fit Center  236 is at   0.229722 -1.141426  3.490053
      ESP Fit Center  237 is at  -0.145308 -0.491855  3.490053
      ESP Fit Center  238 is at  -0.895368 -0.491855  3.490053
      ESP Fit Center  239 is at  -1.270398 -1.141426  3.490053
      ESP Fit Center  240 is at  -0.895368 -1.790997  3.490053
      ESP Fit Center  241 is at  -0.145308 -1.790997  3.490053
      ESP Fit Center  242 is at   0.865591 -1.141426  3.065178
      ESP Fit Center  243 is at   0.679912 -0.448461  3.065178
      ESP Fit Center  244 is at   0.172627  0.058824  3.065178
      ESP Fit Center  245 is at  -0.520338  0.244503  3.065178
      ESP Fit Center  246 is at  -1.213303  0.058824  3.065178
      ESP Fit Center  247 is at  -1.213303 -2.341676  3.065178
      ESP Fit Center  248 is at  -0.520338 -2.527355  3.065178
      ESP Fit Center  249 is at   0.172627 -2.341676  3.065178
      ESP Fit Center  250 is at   0.679912 -1.834391  3.065178
      ESP Fit Center  251 is at   1.290466 -1.141426  2.429309
      ESP Fit Center  252 is at  -1.425740  0.426776  2.429309
      ESP Fit Center  253 is at  -1.425740 -2.709628  2.429309
      ESP Fit Center  254 is at  -0.709619 -2.942310  2.429309
      ESP Fit Center  255 is at   0.039231 -2.863603  2.429309
      ESP Fit Center  256 is at   0.691326 -2.487116  2.429309
      ESP Fit Center  257 is at   1.133914 -1.877946  2.429309
      ESP Fit Center  258 is at  -1.056717 -3.026604  1.679249
      ESP Fit Center  259 is at  -0.339492 -3.093065  1.679249
      ESP Fit Center  260 is at  -1.425740 -2.709628  0.929190
      ESP Fit Center  261 is at  -0.709619 -2.942310  0.929190
      ESP Fit Center  262 is at  -1.213303 -2.341676  0.293320
      ESP Fit Center  263 is at  -4.009723 -1.928687  1.529171
      ESP Fit Center  264 is at  -3.280798 -1.928687  1.362799
      ESP Fit Center  265 is at  -3.645261 -1.297420  1.362799
      ESP Fit Center  266 is at  -4.738648 -1.928687  1.362799
      ESP Fit Center  267 is at  -4.374185 -2.559954  1.362799
      ESP Fit Center  268 is at  -3.645261 -2.559954  1.362799
      ESP Fit Center  269 is at  -5.323200 -1.928687  0.896634
      ESP Fit Center  270 is at  -5.072348 -2.700729  0.896634
      ESP Fit Center  271 is at  -4.415610 -3.177878  0.896634
      ESP Fit Center  272 is at  -3.603836 -3.177878  0.896634
      ESP Fit Center  273 is at  -2.947098 -2.700729  0.896634
      ESP Fit Center  274 is at  -5.600008 -1.536717  0.223006
      ESP Fit Center  275 is at  -5.600008 -2.320657  0.223006
      ESP Fit Center  276 is at  -5.235693 -3.014802  0.223006
      ESP Fit Center  277 is at  -4.590523 -3.460130  0.223006
      ESP Fit Center  278 is at  -3.812299 -3.554624  0.223006
      ESP Fit Center  279 is at  -3.079302 -3.276635  0.223006
      ESP Fit Center  280 is at  -2.559453 -2.689847  0.223006
      ESP Fit Center  281 is at  -5.600008 -2.320657 -0.524664
      ESP Fit Center  282 is at  -5.235693 -3.014802 -0.524664
      ESP Fit Center  283 is at  -4.590523 -3.460130 -0.524664
      ESP Fit Center  284 is at  -3.812299 -3.554624 -0.524664
      ESP Fit Center  285 is at  -3.079302 -3.276635 -0.524664
      ESP Fit Center  286 is at  -5.908157 -1.400569 -0.698656
      ESP Fit Center  287 is at  -6.184965 -1.008599 -1.372284
      ESP Fit Center  288 is at  -6.184965 -1.792539 -1.372284
      ESP Fit Center  289 is at  -5.820650 -2.486683 -1.372284
      ESP Fit Center  290 is at  -5.175480 -2.932012 -1.372284
      ESP Fit Center  291 is at  -5.820650 -0.314454 -2.119954
      ESP Fit Center  292 is at  -6.184965 -1.008599 -2.119954
      ESP Fit Center  293 is at  -6.184965 -1.792539 -2.119954
      ESP Fit Center  294 is at  -5.820650 -2.486683 -2.119954
      ESP Fit Center  295 is at  -5.175480 -2.932012 -2.119954
      ESP Fit Center  296 is at  -4.397256 -3.026506 -2.119954
      ESP Fit Center  297 is at  -4.188793 -0.151378 -2.793582
      ESP Fit Center  298 is at  -5.000567 -0.151378 -2.793582
      ESP Fit Center  299 is at  -5.657305 -0.628527 -2.793582
      ESP Fit Center  300 is at  -5.908157 -1.400569 -2.793582
      ESP Fit Center  301 is at  -5.657305 -2.172611 -2.793582
      ESP Fit Center  302 is at  -5.000567 -2.649760 -2.793582
      ESP Fit Center  303 is at  -4.188793 -2.649760 -2.793582
      ESP Fit Center  304 is at  -3.865755 -1.400569 -3.259747
      ESP Fit Center  305 is at  -4.230218 -0.769302 -3.259747
      ESP Fit Center  306 is at  -4.959142 -0.769302 -3.259747
      ESP Fit Center  307 is at  -5.323605 -1.400569 -3.259747
      ESP Fit Center  308 is at  -4.959142 -2.031836 -3.259747
      ESP Fit Center  309 is at  -4.230218 -2.031836 -3.259747
      ESP Fit Center  310 is at  -4.594680 -1.400569 -3.426119
      ESP Fit Center  311 is at  -2.474917 -3.003752 -0.458731
      ESP Fit Center  312 is at  -1.818179 -2.526603 -0.458731
      ESP Fit Center  313 is at  -2.683380 -3.380498 -1.132359
      ESP Fit Center  314 is at  -1.950383 -3.102509 -1.132359
      ESP Fit Center  315 is at  -1.430534 -2.515721 -1.132359
      ESP Fit Center  316 is at  -3.461604 -3.286004 -1.880029
      ESP Fit Center  317 is at  -2.683380 -3.380498 -1.880029
      ESP Fit Center  318 is at  -1.950383 -3.102509 -1.880029
      ESP Fit Center  319 is at  -1.430534 -2.515721 -1.880029
      ESP Fit Center  320 is at  -1.567327 -1.754561 -2.553657
      ESP Fit Center  321 is at  -1.818179 -0.982519 -2.553657
      ESP Fit Center  322 is at  -2.474917 -0.505370 -2.553657
      ESP Fit Center  323 is at  -3.286691 -3.003752 -2.553657
      ESP Fit Center  324 is at  -2.474917 -3.003752 -2.553657
      ESP Fit Center  325 is at  -1.818179 -2.526603 -2.553657
      ESP Fit Center  326 is at  -2.151879 -1.754561 -3.019822
      ESP Fit Center  327 is at  -2.516342 -1.123294 -3.019822
      ESP Fit Center  328 is at  -3.245266 -2.385828 -3.019822
      ESP Fit Center  329 is at  -2.516342 -2.385828 -3.019822
      ESP Fit Center  330 is at  -2.880804 -1.754561 -3.186194
      ESP Fit Center  331 is at  -2.413965  2.073556 -1.166271
      ESP Fit Center  332 is at  -3.146961  2.351545 -1.166271
      ESP Fit Center  333 is at  -3.925186  2.257051 -1.166271
      ESP Fit Center  334 is at  -2.413965  2.073556 -1.913941
      ESP Fit Center  335 is at  -3.146961  2.351545 -1.913941
      ESP Fit Center  336 is at  -3.925186  2.257051 -1.913941
      ESP Fit Center  337 is at  -4.570356  1.811723 -1.913941
      ESP Fit Center  338 is at  -2.030909  0.725608 -2.587569
      ESP Fit Center  339 is at  -2.281761  1.497650 -2.587569
      ESP Fit Center  340 is at  -2.938499  1.974799 -2.587569
      ESP Fit Center  341 is at  -3.750273  1.974799 -2.587569
      ESP Fit Center  342 is at  -4.407011  1.497650 -2.587569
      ESP Fit Center  343 is at  -4.657863  0.725608 -2.587569
      ESP Fit Center  344 is at  -2.281761 -0.046434 -2.587569
      ESP Fit Center  345 is at  -2.615461  0.725608 -3.053734
      ESP Fit Center  346 is at  -2.979924  1.356875 -3.053734
      ESP Fit Center  347 is at  -3.708848  1.356875 -3.053734
      ESP Fit Center  348 is at  -4.073311  0.725608 -3.053734
      ESP Fit Center  349 is at  -3.708848  0.094341 -3.053734
      ESP Fit Center  350 is at  -2.979924  0.094341 -3.053734
      ESP Fit Center  351 is at  -3.344386  0.725608 -3.220106
      ESP Fit Center  352 is at  -5.032486  0.174119  2.641874
      ESP Fit Center  353 is at  -4.303561  0.174119  2.475502
      ESP Fit Center  354 is at  -4.668024  0.805386  2.475502
      ESP Fit Center  355 is at  -5.396948  0.805386  2.475502
      ESP Fit Center  356 is at  -5.761411  0.174119  2.475502
      ESP Fit Center  357 is at  -5.396948 -0.457148  2.475502
      ESP Fit Center  358 is at  -4.668024 -0.457148  2.475502
      ESP Fit Center  359 is at  -3.719009  0.174119  2.009337
      ESP Fit Center  360 is at  -3.969861  0.946161  2.009337
      ESP Fit Center  361 is at  -4.626599  1.423310  2.009337
      ESP Fit Center  362 is at  -5.438373  1.423310  2.009337
      ESP Fit Center  363 is at  -6.095111  0.946161  2.009337
      ESP Fit Center  364 is at  -6.345963  0.174119  2.009337
      ESP Fit Center  365 is at  -6.095111 -0.597923  2.009337
      ESP Fit Center  366 is at  -5.438373 -1.075072  2.009337
      ESP Fit Center  367 is at  -4.626599 -1.075072  2.009337
      ESP Fit Center  368 is at  -3.969861 -0.597923  2.009337
      ESP Fit Center  369 is at  -6.622771  0.566089  1.335709
      ESP Fit Center  370 is at  -6.622771 -0.217851  1.335709
      ESP Fit Center  371 is at  -6.258456 -0.911995  1.335709
      ESP Fit Center  372 is at  -5.613286 -1.357324  1.335709
      ESP Fit Center  373 is at  -4.835061 -1.451818  1.335709
      ESP Fit Center  374 is at  -6.622771 -0.217851  0.588039
      ESP Fit Center  375 is at  -6.258456 -0.911995  0.588039
      ESP Fit Center  376 is at  -5.613286 -1.357324  0.588039
      ESP Fit Center  377 is at  -4.677380  1.776185  1.961290
      ESP Fit Center  378 is at  -3.948455  1.776185  1.794918
      ESP Fit Center  379 is at  -4.312918  2.407452  1.794918
      ESP Fit Center  380 is at  -5.041842  2.407452  1.794918
      ESP Fit Center  381 is at  -5.406305  1.776185  1.794918
      ESP Fit Center  382 is at  -3.614755  2.548227  1.328753
      ESP Fit Center  383 is at  -4.271493  3.025376  1.328753
      ESP Fit Center  384 is at  -5.083267  3.025376  1.328753
      ESP Fit Center  385 is at  -5.740005  2.548227  1.328753
      ESP Fit Center  386 is at  -3.746959  3.124133  0.655125
      ESP Fit Center  387 is at  -4.479955  3.402122  0.655125
      ESP Fit Center  388 is at  -5.258180  3.307628  0.655125
      ESP Fit Center  389 is at  -5.903350  2.862300  0.655125
      ESP Fit Center  390 is at  -6.267665  2.168155  0.655125
      ESP Fit Center  391 is at  -3.227110  2.537345 -0.092545
      ESP Fit Center  392 is at  -3.746959  3.124133 -0.092545
      ESP Fit Center  393 is at  -4.479955  3.402122 -0.092545
      ESP Fit Center  394 is at  -5.258180  3.307628 -0.092545
      ESP Fit Center  395 is at  -5.903350  2.862300 -0.092545
      ESP Fit Center  396 is at  -3.614755  2.548227 -0.766173
      ESP Fit Center  397 is at  -4.271493  3.025376 -0.766173
      ESP Fit Center  398 is at  -5.083267  3.025376 -0.766173
      ESP Fit Center  399 is at  -5.740005  2.548227 -0.766173
      ESP Fit Center  400 is at  -4.312918  2.407452 -1.232338
      ESP Fit Center  401 is at  -5.041842  2.407452 -1.232338
      ESP Fit Center  402 is at  -6.983281  0.630115  0.415131
      ESP Fit Center  403 is at  -6.732429 -0.141927  0.415131
      ESP Fit Center  404 is at  -6.895774  1.716230 -0.258497
      ESP Fit Center  405 is at  -7.260089  1.022085 -0.258497
      ESP Fit Center  406 is at  -7.260089  0.238145 -0.258497
      ESP Fit Center  407 is at  -6.895774 -0.455999 -0.258497
      ESP Fit Center  408 is at  -6.250604 -0.901328 -0.258497
      ESP Fit Center  409 is at  -6.250604  2.161559 -1.006167
      ESP Fit Center  410 is at  -6.895774  1.716230 -1.006167
      ESP Fit Center  411 is at  -7.260089  1.022085 -1.006167
      ESP Fit Center  412 is at  -7.260089  0.238145 -1.006167
      ESP Fit Center  413 is at  -6.895774 -0.455999 -1.006167
      ESP Fit Center  414 is at  -6.250604 -0.901328 -1.006167
      ESP Fit Center  415 is at  -5.263917  1.879306 -1.679795
      ESP Fit Center  416 is at  -6.075691  1.879306 -1.679795
      ESP Fit Center  417 is at  -6.732429  1.402157 -1.679795
      ESP Fit Center  418 is at  -6.983281  0.630115 -1.679795
      ESP Fit Center  419 is at  -6.732429 -0.141927 -1.679795
      ESP Fit Center  420 is at  -4.940879  0.630115 -2.145960
      ESP Fit Center  421 is at  -5.305342  1.261382 -2.145960
      ESP Fit Center  422 is at  -6.034266  1.261382 -2.145960
      ESP Fit Center  423 is at  -6.398729  0.630115 -2.145960
      ESP Fit Center  424 is at  -6.034266 -0.001152 -2.145960
      ESP Fit Center  425 is at  -5.669804  0.630115 -2.312332
      ESP Fit Center  426 is at  -1.455794 -1.970287  0.131171
      ESP Fit Center  427 is at  -0.852482 -2.347033 -0.542457
      ESP Fit Center  428 is at  -0.852482 -2.347033 -1.290127
      ESP Fit Center  429 is at  -0.119486 -2.069044 -1.290127
      ESP Fit Center  430 is at   0.263570 -0.721096 -1.963755
      ESP Fit Center  431 is at  -0.644020 -1.970287 -1.963755
      ESP Fit Center  432 is at   0.012718 -1.493138 -1.963755
      ESP Fit Center  433 is at  -0.320982 -0.721096 -2.429920
      ESP Fit Center  434 is at  -0.685445 -0.089829 -2.429920
      ESP Fit Center  435 is at  -1.414369 -0.089829 -2.429920
      ESP Fit Center  436 is at  -1.778832 -0.721096 -2.429920
      ESP Fit Center  437 is at  -1.414369 -1.352363 -2.429920
      ESP Fit Center  438 is at  -0.685445 -1.352363 -2.429920
      ESP Fit Center  439 is at  -1.049907 -0.721096 -2.596292
      ESP Fit Center  440 is at  -1.209647  2.283545  0.176415
      ESP Fit Center  441 is at  -0.606335  2.660291 -0.497213
      ESP Fit Center  442 is at  -1.384560  2.565797 -0.497213
      ESP Fit Center  443 is at  -0.606335  2.660291 -1.244883
      ESP Fit Center  444 is at  -1.384560  2.565797 -1.244883
      ESP Fit Center  445 is at  -2.029730  2.120469 -1.244883
      ESP Fit Center  446 is at   0.509717  1.034354 -1.918511
      ESP Fit Center  447 is at   0.258865  1.806396 -1.918511
      ESP Fit Center  448 is at  -0.397873  2.283545 -1.918511
      ESP Fit Center  449 is at  -1.209647  2.283545 -1.918511
      ESP Fit Center  450 is at  -1.866385  1.806396 -1.918511
      ESP Fit Center  451 is at   0.258865  0.262312 -1.918511
      ESP Fit Center  452 is at  -0.074835  1.034354 -2.384676
      ESP Fit Center  453 is at  -0.439298  1.665621 -2.384676
      ESP Fit Center  454 is at  -1.168222  1.665621 -2.384676
      ESP Fit Center  455 is at  -1.532685  1.034354 -2.384676
      ESP Fit Center  456 is at  -1.168222  0.403087 -2.384676
      ESP Fit Center  457 is at  -0.439298  0.403087 -2.384676
      ESP Fit Center  458 is at  -0.803760  1.034354 -2.551048
      ESP Fit Center  459 is at   1.088051 -2.463000  2.281294
      ESP Fit Center  460 is at   0.723589 -3.094267  2.114922
      ESP Fit Center  461 is at   1.452513 -3.094267  2.114922
      ESP Fit Center  462 is at   0.025426 -3.235042  1.648757
      ESP Fit Center  463 is at   0.682164 -3.712191  1.648757
      ESP Fit Center  464 is at   1.493938 -3.712191  1.648757
      ESP Fit Center  465 is at   2.150676 -3.235042  1.648757
      ESP Fit Center  466 is at  -0.137919 -3.549115  0.975129
      ESP Fit Center  467 is at   0.507251 -3.994443  0.975129
      ESP Fit Center  468 is at   1.285475 -4.088937  0.975129
      ESP Fit Center  469 is at   2.018472 -3.810948  0.975129
      ESP Fit Center  470 is at  -0.502234 -2.854970  0.227459
      ESP Fit Center  471 is at  -0.137919 -3.549115  0.227459
      ESP Fit Center  472 is at   0.507251 -3.994443  0.227459
      ESP Fit Center  473 is at   1.285475 -4.088937  0.227459
      ESP Fit Center  474 is at  -0.225426 -2.463000 -0.446169
      ESP Fit Center  475 is at   0.025426 -3.235042 -0.446169
[...]
 2715 Fit      -0.019678
 2716 Fit      -0.017706
 2717 Fit      -0.019385
 2718 Fit      -0.006841
 2719 Fit      -0.021127
 2720 Fit      -0.023994
 2721 Fit      -0.021153
 2722 Fit      -0.018490
 2723 Fit      -0.020222
 2724 Fit      -0.018414
 2725 Fit      -0.016114
 2726 Fit      -0.016734
 2727 Fit      -0.019095
 2728 Fit      -0.012071
 2729 Fit      -0.011317
 2730 Fit      -0.006247
 2731 Fit       0.000747
 2732 Fit       0.000949
 2733 Fit       0.002204
 2734 Fit       0.000212
 2735 Fit      -0.000363
 2736 Fit      -0.000215
 2737 Fit      -0.001799
 2738 Fit      -0.003068
 2739 Fit      -0.004237
 2740 Fit      -0.009264
 2741 Fit      -0.006461
 2742 Fit      -0.015693
 2743 Fit      -0.014329
 2744 Fit      -0.012946
 2745 Fit      -0.016010
 2746 Fit      -0.019308
 2747 Fit      -0.009736
 2748 Fit      -0.010692
 2749 Fit      -0.010286
 2750 Fit      -0.005485
 2751 Fit      -0.005263
 2752 Fit      -0.006136
 2753 Fit      -0.007849
 2754 Fit      -0.001852
 2755 Fit      -0.001544
 2756 Fit      -0.002963
 2757 Fit      -0.004824
 2758 Fit       0.000211
 2759 Fit       0.003722
 2760 Fit       0.003237
 2761 Fit       0.000609
 2762 Fit       0.002508
 2763 Fit      -0.001711
 2764 Fit       0.000217
 2765 Fit      -0.003970
 2766 Fit      -0.002096
 2767 Fit      -0.000087
 2768 Fit       0.001767
 2769 Fit       0.003192
 2770 Fit       0.004324
 2771 Fit      -0.009138
 2772 Fit      -0.007047
 2773 Fit      -0.005046
 2774 Fit      -0.002977
 2775 Fit      -0.001037
 2776 Fit       0.000413
 2777 Fit      -0.006859
 2778 Fit      -0.004399
 2779 Fit      -0.015015
 2780 Fit      -0.017182
 2781 Fit      -0.011225
 2782 Fit      -0.012676
 2783 Fit      -0.011050
 2784 Fit      -0.007449
 2785 Fit      -0.008616
 2786 Fit      -0.006928
 2787 Fit      -0.003612
 2788 Fit      -0.004553
 2789 Fit      -0.002673
 2790 Fit      -0.003005
 2791 Fit       0.000311
 2792 Fit      -0.000443
 2793 Fit      -0.001220
 2794 Fit       0.001713
 2795 Fit       0.001281
 2796 Fit       0.000894
 2797 Fit       0.003025
 2798 Fit       0.005462
 2799 Fit       0.005044
 2800 Fit       0.001068
 2801 Fit       0.003583
 2802 Fit       0.002787
 2803 Fit      -0.007710
 2804 Fit      -0.006541
 2805 Fit      -0.004148
 2806 Fit      -0.001136
 2807 Fit       0.001527
 2808 Fit       0.000418
 2809 Fit      -0.001346
 2810 Fit      -0.004459
 2811 Fit      -0.005441
 2812 Fit      -0.003584
 2813 Fit      -0.000710
 2814 Fit      -0.002687
 2815 Fit      -0.015837
 2816 Fit      -0.018738
 2817 Fit      -0.013004
 2818 Fit      -0.012482
 2819 Fit      -0.009786
 2820 Fit      -0.009147
 2821 Fit      -0.009846
 2822 Fit      -0.006074
 2823 Fit      -0.005532
 2824 Fit      -0.005887
 2825 Fit      -0.001635
 2826 Fit      -0.001779
 2827 Fit       0.002342
 2828 Fit      -0.009711
 2829 Fit       0.002214
 2830 Fit       0.001948
 2831 Fit       0.000237
 2832 Fit      -0.002635
 2833 Fit      -0.005270
 2834 Fit      -0.006641
 2835 Fit      -0.007420
 2836 Fit      -0.008275
 2837 Fit      -0.001155
 2838 Fit      -0.001891
 2839 Fit      -0.004415
 2840 Fit      -0.006107
 2841 Fit      -0.006129
 2842 Fit      -0.003989
 2843 Fit      -0.016877
 2844 Fit      -0.016334
 2845 Fit      -0.018621
 2846 Fit      -0.006092
 2847 Fit      -0.009297
 2848 Fit      -0.007122
 2849 Fit      -0.011135
 2850 Fit      -0.012249
 2851 Fit      -0.010923
 2852 Fit      -0.009383
 2853 Fit      -0.008982
 2854 Fit      -0.011453
 2855 Fit      -0.012951
 2856 Fit      -0.012596
 2857 Fit      -0.011652
 2858 Fit      -0.010537
 2859 Fit      -0.009135
 2860 Fit      -0.007603
 2861 Fit      -0.006089
 2862 Fit      -0.015024
 2863 Fit      -0.013777
 2864 Fit      -0.012276
 2865 Fit      -0.011569
 2866 Fit      -0.010890
 2867 Fit      -0.009920
 2868 Fit      -0.008667
 2869 Fit      -0.007281
 2870 Fit      -0.005795
 2871 Fit      -0.004033
 2872 Fit      -0.001848
 2873 Fit      -0.015536
 2874 Fit      -0.013540
 2875 Fit      -0.011242
 2876 Fit      -0.010759
 2877 Fit      -0.010462
 2878 Fit      -0.009894
 2879 Fit      -0.008941
 2880 Fit      -0.007717
 2881 Fit      -0.006391
 2882 Fit      -0.005036
 2883 Fit      -0.003522
 2884 Fit      -0.001487
 2885 Fit       0.001543
 2886 Fit      -0.012613
 2887 Fit      -0.009280
 2888 Fit      -0.009190
 2889 Fit      -0.009391
 2890 Fit      -0.009248
 2891 Fit      -0.008581
 2892 Fit      -0.007491
 2893 Fit      -0.006187
 2894 Fit      -0.004852
 2895 Fit      -0.003530
 2896 Fit      -0.002044
 2897 Fit       0.000065
 2898 Fit       0.003591
 2899 Fit      -0.006733
 2900 Fit      -0.007736
 2901 Fit      -0.008231
 2902 Fit      -0.008043
 2903 Fit      -0.007271
 2904 Fit      -0.006135
 2905 Fit      -0.004863
 2906 Fit      -0.003613
 2907 Fit      -0.002400
 2908 Fit      -0.001043
 2909 Fit       0.000896
 2910 Fit       0.004222
 2911 Fit      -0.003368
 2912 Fit      -0.005678
 2913 Fit      -0.006959
 2914 Fit      -0.007242
 2915 Fit      -0.006750
 2916 Fit      -0.005770
 2917 Fit      -0.004575
 2918 Fit      -0.003369
 2919 Fit      -0.002228
 2920 Fit      -0.001050
 2921 Fit       0.000489
 2922 Fit       0.002999
 2923 Fit       0.007534
 2924 Fit      -0.003608
 2925 Fit      -0.005743
 2926 Fit      -0.006486
 2927 Fit      -0.006270
 2928 Fit      -0.005469
 2929 Fit      -0.004402
 2930 Fit      -0.003294
 2931 Fit      -0.002241
 2932 Fit      -0.001164
 2933 Fit       0.000217
 2934 Fit       0.002396
 2935 Fit       0.006079
 2936 Fit      -0.002247
 2937 Fit      -0.004941
 2938 Fit      -0.005972
 2939 Fit      -0.005945
 2940 Fit      -0.005304
 2941 Fit      -0.004386
 2942 Fit      -0.003416
 2943 Fit      -0.002463
 2944 Fit      -0.001424
 2945 Fit      -0.000015
 2946 Fit       0.002189
 2947 Fit      -0.002467
 2948 Fit      -0.004983
 2949 Fit      -0.005869
 2950 Fit      -0.005762
 2951 Fit      -0.005131
 2952 Fit      -0.004298
 2953 Fit      -0.003411
 2954 Fit      -0.002412
 2955 Fit      -0.001049
 2956 Fit       0.001050
 2957 Fit      -0.003498
 2958 Fit      -0.005380
 2959 Fit      -0.005986
 2960 Fit      -0.005804
 2961 Fit      -0.005221
 2962 Fit      -0.004458
 2963 Fit      -0.003522
 2964 Fit      -0.002230
 2965 Fit      -0.000305
 2966 Fit      -0.002913
 2967 Fit      -0.005040
 2968 Fit      -0.006035
 2969 Fit      -0.006106
 2970 Fit      -0.005634
 2971 Fit      -0.004839
 2972 Fit      -0.003692
 2973 Fit      -0.002073
 2974 Fit      -0.004016
 2975 Fit      -0.003962
 2976 Fit      -0.005102
 2977 Fit      -0.006094
 2978 Fit      -0.006159
 2979 Fit      -0.005522
 2980 Fit      -0.004409
 2981 Fit      -0.003228
 2982 Fit      -0.003168
 2983 Fit      -0.004951
 2984 Fit      -0.007207
 2985 Fit      -0.005609
 2986 Fit      -0.006067
 2987 Fit      -0.005841
 2988 Fit      -0.005092
 2989 Fit      -0.005551
 2990 Fit      -0.006094
 2991 Fit      -0.005903
 2992 Fit      -0.020989
 2993 Fit      -0.023656
 2994 Fit      -0.020964
 2995 Fit      -0.017699
 2996 Fit      -0.016975
 2997 Fit      -0.019832
 2998 Fit      -0.023178
 2999 Fit      -0.025028
 3000 Fit      -0.022855
 3001 Fit      -0.019579
 3002 Fit      -0.016120
 3003 Fit      -0.013336
 3004 Fit      -0.011747
 3005 Fit      -0.011811
 3006 Fit      -0.014050
 3007 Fit      -0.017812
 3008 Fit      -0.021558
 3009 Fit      -0.024239
 3010 Fit      -0.025483
 3011 Fit      -0.025437
 3012 Fit      -0.023283
 3013 Fit      -0.020007
 3014 Fit      -0.009384
 3015 Fit      -0.007382
 3016 Fit      -0.006292
 3017 Fit      -0.009693
 3018 Fit      -0.013876
 3019 Fit      -0.018053
 3020 Fit      -0.021409
 3021 Fit      -0.023772
 3022 Fit      -0.025333
 3023 Fit      -0.026047
 3024 Fit      -0.008048
 3025 Fit      -0.012752
 3026 Fit      -0.016798
 3027 Fit      -0.019727
 3028 Fit      -0.021661
 3029 Fit      -0.023197
 3030 Fit      -0.024803
 3031 Fit      -0.010411
 3032 Fit      -0.014322
 3033 Fit      -0.016821
 3034 Fit      -0.017975
 3035 Fit      -0.005316
 3036 Fit      -0.009857
 3037 Fit      -0.012839
 3038 Fit      -0.013743
 3039 Fit      -0.008151
 3040 Fit      -0.010225
 3041 Fit      -0.005739
 3042 Fit      -0.007439
 3043 Fit       0.001833
 3044 Fit       0.002192
 3045 Fit       0.001340
 3046 Fit       0.003880
 3047 Fit       0.002765
 3048 Fit       0.001558
 3049 Fit       0.000209
 3050 Fit       0.003772
 3051 Fit       0.003019
 3052 Fit       0.002175
 3053 Fit       0.001012
 3054 Fit      -0.000607
 3055 Fit       0.003702
 3056 Fit       0.003166
 3057 Fit       0.002614
 3058 Fit       0.001913
 3059 Fit       0.000948
 3060 Fit      -0.000413
 3061 Fit      -0.002385
 3062 Fit       0.003186
 3063 Fit       0.002694
 3064 Fit       0.002175
 3065 Fit       0.001527
 3066 Fit       0.000671
 3067 Fit      -0.000462
 3068 Fit       0.001906
 3069 Fit       0.001349
 3070 Fit       0.006080
 3071 Fit       0.004766
 3072 Fit       0.003682
 3073 Fit       0.008284
 3074 Fit       0.006659
 3075 Fit       0.005432
 3076 Fit       0.004356
 3077 Fit       0.003362
 3078 Fit       0.008765
 3079 Fit       0.007478
 3080 Fit       0.006361
 3081 Fit       0.005334
 3082 Fit       0.004355
 3083 Fit       0.003457
 3084 Fit       0.009112
 3085 Fit       0.008901
 3086 Fit       0.008228
 3087 Fit       0.007297
 3088 Fit       0.006298
 3089 Fit       0.005283
 3090 Fit       0.004314
 3091 Fit       0.003545
 3092 Fit       0.007668
 3093 Fit       0.007749
 3094 Fit       0.007293
 3095 Fit       0.006435
 3096 Fit       0.005405
 3097 Fit       0.004458
 3098 Fit       0.006088
 3099 Fit       0.006677
 3100 Fit       0.006328
 3101 Fit       0.005385
 3102 Fit       0.004752
 3103 Fit       0.005671
 3104 Fit      -0.001355
 3105 Fit       0.000988
 3106 Fit       0.001291
 3107 Fit       0.001844
 3108 Fit       0.002318
 3109 Fit       0.002829
 3110 Fit       0.003305
 3111 Fit       0.002570
 3112 Fit       0.003091
 3113 Fit       0.003630
 3114 Fit       0.004100
 3115 Fit       0.003221
 3116 Fit       0.003776
 3117 Fit       0.004331
 3118 Fit       0.004850
 3119 Fit       0.005272
 3120 Fit       0.005798
 3121 Fit       0.003632
 3122 Fit       0.004141
 3123 Fit       0.004723
 3124 Fit       0.004964
 3125 Fit       0.004408
 3126 Fit       0.010856
 3127 Fit       0.008133
 3128 Fit       0.008620
 3129 Fit       0.008740
 3130 Fit       0.006501
 3131 Fit       0.007037
 3132 Fit       0.007497
 3133 Fit       0.007728
 3134 Fit       0.007849
 3135 Fit       0.005924
 3136 Fit       0.006456
 3137 Fit       0.006964
 3138 Fit       0.007338
 3139 Fit       0.007742
 3140 Fit       0.008480
 3141 Fit       0.005793
 3142 Fit       0.005876
 3143 Fit       0.006341
 3144 Fit       0.006860
 3145 Fit       0.007331
 3146 Fit       0.007874
 3147 Fit       0.008249
 3148 Fit       0.006233
 3149 Fit       0.006149
 3150 Fit       0.006392
 3151 Fit       0.006888
 3152 Fit       0.007210
 3153 Fit       0.006842
 3154 Fit       0.006350
 3155 Fit       0.006594
 3156 Fit       0.003134
 3157 Fit       0.002195
 3158 Fit       0.003526
 3159 Fit       0.003797
 3160 Fit       0.003712
 3161 Fit       0.003292
 3162 Fit       0.002290
 3163 Fit       0.003909
 3164 Fit       0.004607
 3165 Fit       0.004101
 3166 Fit       0.003976
 3167 Fit       0.003979
 3168 Fit       0.003784
 3169 Fit       0.003108
 3170 Fit       0.001821
 3171 Fit       0.000399
 3172 Fit       0.003961
 3173 Fit       0.004017
 3174 Fit       0.004103
 3175 Fit       0.004079
 3176 Fit       0.003833
 3177 Fit       0.003195
 3178 Fit       0.001943
 3179 Fit       0.003942
 3180 Fit       0.004056
 3181 Fit       0.004144
 3182 Fit       0.004184
 3183 Fit       0.004199
 3184 Fit       0.004070
 3185 Fit       0.004136
 3186 Fit       0.004305
 3187 Fit       0.008290
 3188 Fit       0.006342
 3189 Fit       0.010017
 3190 Fit       0.007697
 3191 Fit       0.006056
 3192 Fit       0.011006
 3193 Fit       0.008753
 3194 Fit       0.007207
 3195 Fit       0.005939
 3196 Fit       0.013946
 3197 Fit       0.010805
 3198 Fit       0.008988
 3199 Fit       0.007666
 3200 Fit       0.006537
 3201 Fit       0.005536
 3202 Fit       0.014121
 3203 Fit       0.011050
 3204 Fit       0.009289
 3205 Fit       0.008019
 3206 Fit       0.006934
 3207 Fit       0.005966
 3208 Fit       0.012800
 3209 Fit       0.010463
 3210 Fit       0.008991
 3211 Fit       0.007864
 3212 Fit       0.006882
 3213 Fit       0.006042
 3214 Fit       0.011076
 3215 Fit       0.009487
 3216 Fit       0.008330
 3217 Fit       0.007373
 3218 Fit       0.006565
 3219 Fit       0.009194
 3220 Fit       0.008024
 3221 Fit       0.007106
 3222 Fit       0.004770
 3223 Fit       0.004691
 3224 Fit       0.005496
 3225 Fit       0.005608
 3226 Fit       0.005623
 3227 Fit       0.005506
 3228 Fit       0.005266
 3229 Fit       0.006028
 3230 Fit       0.006245
 3231 Fit       0.006442
 3232 Fit       0.006531
 3233 Fit       0.006501
 3234 Fit       0.006384
 3235 Fit       0.006520
 3236 Fit       0.006765
 3237 Fit       0.007051
 3238 Fit       0.007276
 3239 Fit       0.007418
 3240 Fit       0.007551
 3241 Fit       0.007048
 3242 Fit       0.007240
 3243 Fit       0.007582
 3244 Fit       0.007917
 3245 Fit       0.008255
 3246 Fit       0.008878
 3247 Fit       0.007802
 3248 Fit       0.007822
 3249 Fit       0.008205
 3250 Fit       0.008743
 3251 Fit       0.009065
 3252 Fit       0.008520
 3253 Fit       0.008937
 3254 Fit       0.009473
 3255 Fit       0.001897
 3256 Fit       0.002468
 3257 Fit      -0.001551
 3258 Fit      -0.001399
 3259 Fit       0.003395
 3260 Fit       0.000197
 3261 Fit       0.002150
 3262 Fit       0.003966
 3263 Fit       0.004764
 3264 Fit       0.008860
 3265 Fit       0.004678
 3266 Fit       0.001026
 3267 Fit       0.004731
 3268 Fit      -0.000837
 3269 Fit       0.002701
 3270 Fit       0.005712
 3271 Fit       0.000126
 3272 Fit       0.001127
 3273 Fit       0.003843
 3274 Fit       0.005437
 3275 Fit       0.002901
 3276 Fit      -0.015062
 3277 Fit      -0.012695
 3278 Fit      -0.011328
 3279 Fit      -0.007898
 3280 Fit      -0.006728
 3281 Fit      -0.009253
 3282 Fit      -0.005583
 3283 Fit      -0.003317
 3284 Fit      -0.001991
 3285 Fit      -0.007362
 3286 Fit      -0.003908
 3287 Fit      -0.001476
 3288 Fit       0.000428
 3289 Fit       0.002332
 3290 Fit      -0.003524
 3291 Fit      -0.001253
 3292 Fit       0.000635
 3293 Fit       0.002575
 3294 Fit      -0.001342
 3295 Fit      -0.000180
 3296 Fit       0.001146
 3297 Fit       0.002794
 3298 Fit       0.000306
 3299 Fit       0.000815
 3300 Fit      -0.001384
 3301 Fit       0.001074
 3302 Fit       0.001774
 3303 Fit       0.001950
 3304 Fit       0.001425
 3305 Fit       0.003094
 3306 Fit       0.003512
 3307 Fit       0.004027
 3308 Fit       0.004294
 3309 Fit       0.004206
 3310 Fit       0.003748
 3311 Fit       0.002910
 3312 Fit       0.004371
 3313 Fit       0.004972
 3314 Fit       0.005516
 3315 Fit       0.005832
 3316 Fit       0.005900
 3317 Fit       0.005809
 3318 Fit       0.005754
 3319 Fit       0.004615
 3320 Fit       0.005458
 3321 Fit       0.006144
 3322 Fit       0.006608
 3323 Fit       0.006897
 3324 Fit       0.007199
 3325 Fit       0.007948
 3326 Fit       0.003706
 3327 Fit       0.004939
 3328 Fit       0.005879
 3329 Fit       0.006560
 3330 Fit       0.007074
 3331 Fit       0.007660
 3332 Fit       0.008872
 3333 Fit       0.003734
 3334 Fit       0.005099
 3335 Fit       0.006041
 3336 Fit       0.006809
 3337 Fit       0.007915
 3338 Fit       0.003223
 3339 Fit       0.004659
 3340 Fit       0.005588
 3341 Fit       0.001197
 3342 Fit       0.001726
 3343 Fit       0.004239
 3344 Fit       0.003810
 3345 Fit       0.005480
 3346 Fit       0.004929
 3347 Fit       0.004601
 3348 Fit       0.006347
 3349 Fit       0.006158
 3350 Fit       0.006294
 3351 Fit       0.007288
 3352 Fit       0.006828
 3353 Fit       0.006579
 3354 Fit       0.007619
 3355 Fit       0.007563
 3356 Fit       0.007884
 3357 Fit       0.008762
 3358 Fit       0.008096
 3359 Fit       0.007863
 3360 Fit       0.007742
 3361 Fit       0.008106
 3362 Fit       0.008089
 3363 Fit       0.008349
 3364 Fit       0.007994
 3365 Fit       0.008032
 3366 Fit       0.008104
 3367 Fit       0.008139
 3368 Fit       0.007821
 3369 Fit       0.007746
 3370 Fit       0.007727
 3371 Fit       0.006789
 3372 Fit       0.007449
 3373 Fit       0.007761
 3374 Fit       0.006754
 3375 Fit       0.006385
 3376 Fit       0.005416
 3377 Fit       0.006497
 3378 Fit       0.004856
 3379 Fit       0.003958
 3380 Fit      -0.003097
 3381 Fit       0.001767
 3382 Fit       0.000753
 3383 Fit      -0.001283
 3384 Fit       0.005286
 3385 Fit       0.004332
 3386 Fit       0.003195
 3387 Fit       0.001366
 3388 Fit       0.007227
 3389 Fit       0.005941
 3390 Fit       0.004695
 3391 Fit       0.002939
 3392 Fit       0.000180
 3393 Fit       0.007873
 3394 Fit       0.006549
 3395 Fit       0.005256
 3396 Fit       0.003504
 3397 Fit       0.000894
 3398 Fit       0.007249
 3399 Fit       0.006014
 3400 Fit       0.004496
 3401 Fit       0.002250
 3402 Fit       0.005527
 3403 Fit       0.004428
 3404 Fit       0.002347
 3405 Fit      -0.000777
 3406 Fit       0.002948
 3407 Fit       0.001709
 3408 Fit      -0.004334
 3409 Fit      -0.003221
 3410 Fit      -0.003899
 3411 Fit      -0.007568
 3412 Fit      -0.000411
 3413 Fit      -0.000875
 3414 Fit      -0.003401
 3415 Fit       0.001133
 3416 Fit       0.000278
 3417 Fit      -0.002706
 3418 Fit      -0.002515
 3419 Fit       0.005648
 3420 Fit       0.006766
 3421 Fit       0.008411
 3422 Fit       0.009873
 3423 Fit       0.009478
 3424 Fit       0.007083
 3425 Fit       0.010101
 3426 Fit       0.011753
 3427 Fit       0.012412
 3428 Fit       0.011198
 3429 Fit       0.013059
 3430 Fit       0.014220
 3431 Fit       0.010639
 3432 Fit       0.013179
 3433 Fit       0.015009
 3434 Fit       0.013128
 3435 Fit       0.010714
 3436 Fit       0.013263
 -----------------------------------------------------------------
 Leave Link  602 at Thu Jan 16 21:49:41 2014, MaxMem=   235929600 cpu:         1.4

 Test job not archived.
 1\1\GINC-G30\SP\RHF\Gen\C11H16Cl1N1O1\KOLAR\16-Jan-2014\0\\# hf/gen po
 p=mk iop(6/33=2,6/41=5,6/42=2)\\na resp\\0,1\C,0,-3.767727,-1.322626,-
 1.031337\C,0,-3.550625,0.139211,-0.625704\C,0,-4.806098,0.714509,0.035
 234\N,0,-2.423756,0.254127,0.321946\C,0,-1.082178,0.15824,-0.265366\C,
 0,-0.06943,-0.061568,0.880512\H,0,-0.025094,0.860656,1.48348\C,0,1.319
 922,-0.359166,0.349467\C,0,1.758707,-1.686719,0.250226\C,0,3.01732,-2.
 001778,-0.257567\C,0,3.873376,-0.984462,-0.680697\C,0,3.465506,0.34545
 8,-0.590921\C,0,2.202016,0.640749,-0.080353\Cl,0,1.744207,2.349593,0.0
 18241\O,0,-0.520338,-1.141426,1.679249\H,0,-4.009723,-1.928687,-0.1508
 29\H,0,-4.59468,-1.400569,-1.746119\H,0,-2.880804,-1.754561,-1.506194\
 H,0,-3.344386,0.725608,-1.540106\H,0,-5.032486,0.174119,0.961874\H,0,-
 4.67738,1.776185,0.28129\H,0,-5.669804,0.630115,-0.632332\H,0,-1.04990
 7,-0.721096,-0.916292\H,0,-0.80376,1.034354,-0.871048\H,0,1.088051,-2.
 463,0.601294\H,0,3.33058,-3.040345,-0.318018\H,0,4.858206,-1.21814,-1.
 075474\H,0,4.116736,1.152759,-0.908802\H,0,-1.495824,-1.060673,1.63705
 4\H,0,-2.496987,1.151626,0.801532\\Version=AM64L-G09RevD.01\State=1-A\
 HF=-1014.640081\RMSD=4.937e-09\Dipole=-0.5432144,-0.0114097,-0.7418755
 \Quadrupole=7.4625763,-1.6418786,-5.8206977,-4.2016487,-2.1207449,2.27
 91164\PG=C01 [X(C11H16Cl1N1O1)]\\@


 TO ERR IS HUMAN - AND TO BLAME IT ON A COMPUTER IS EVEN MORE SO.
 Job cpu time:       0 days  0 hours  2 minutes 49.0 seconds.
 File lengths (MBytes):  RWF=     31 Int=      0 D2E=      0 Chk=      3 Scr=      1
 Normal termination of Gaussian 09 at Thu Jan 16 21:49:41 2014.
168.69user 0.34system 2:54.25elapsed 96%CPU (0avgtext+0avgdata 603472maxresident)k
10296inputs+127384outputs (1major+171148minor)pagefaults 0swaps
