Linux g59 2.6.38.6-client #1 SMP Tue Jun 12 11:27:21 CEST 2012 x86_64 GNU/Linux
Thu Jan 16 22:36:46 CET 2014

 Entering Gaussian System, Link 0=/usr/local/programs/common/gaussian/gaussian09_d01/arch/amd64-pgi_10.4.0-acml/g09/g09
 Initial command:
 /usr/local/programs/common/gaussian/gaussian09_d01/arch/amd64-pgi_10.4.0-acml/g09/l1.exe "/scratch/kolar/g09_25805/Gau-1776.inp" -scrdir="/scratch/kolar/g09_25805/"
 Entering Link 1 = /usr/local/programs/common/gaussian/gaussian09_d01/arch/amd64-pgi_10.4.0-acml/g09/l1.exe PID=      1781.
  
 Copyright (c) 1988,1990,1992,1993,1995,1998,2003,2009,2013,
            Gaussian, Inc.  All Rights Reserved.
  
 This is part of the Gaussian(R) 09 program.  It is based on
 the Gaussian(R) 03 system (copyright 2003, Gaussian, Inc.),
 the Gaussian(R) 98 system (copyright 1998, Gaussian, Inc.),
 the Gaussian(R) 94 system (copyright 1995, Gaussian, Inc.),
 the Gaussian 92(TM) system (copyright 1992, Gaussian, Inc.),
 the Gaussian 90(TM) system (copyright 1990, Gaussian, Inc.),
 the Gaussian 88(TM) system (copyright 1988, Gaussian, Inc.),
 the Gaussian 86(TM) system (copyright 1986, Carnegie Mellon
 University), and the Gaussian 82(TM) system (copyright 1983,
 Carnegie Mellon University). Gaussian is a federally registered
 trademark of Gaussian, Inc.
  
 This software contains proprietary and confidential information,
 including trade secrets, belonging to Gaussian, Inc.
  
 This software is provided under written license and may be
 used, copied, transmitted, or stored only in accord with that
 written license.
  
 The following legend is applicable only to US Government
 contracts under FAR:
  
                    RESTRICTED RIGHTS LEGEND
  
 Use, reproduction and disclosure by the US Government is
 subject to restrictions as set forth in subparagraphs (a)
 and (c) of the Commercial Computer Software - Restricted
 Rights clause in FAR 52.227-19.
  
 Gaussian, Inc.
 340 Quinnipiac St., Bldg. 40, Wallingford CT 06492
  
  
 ---------------------------------------------------------------
 Warning -- This program may not be used in any manner that
 competes with the business of Gaussian, Inc. or will provide
 assistance to any competitor of Gaussian, Inc.  The licensee
 of this program is prohibited from giving any competitor of
 Gaussian, Inc. access to this program.  By using this program,
 the user acknowledges that Gaussian, Inc. is engaged in the
 business of creating and licensing software in the field of
 computational chemistry and represents and warrants to the
 licensee that it is not a competitor of Gaussian, Inc. and that
 it will not use this program in any manner prohibited above.
 ---------------------------------------------------------------
  

 Cite this work as:
 Gaussian 09, Revision D.01,
 M. J. Frisch, G. W. Trucks, H. B. Schlegel, G. E. Scuseria, 
 M. A. Robb, J. R. Cheeseman, G. Scalmani, V. Barone, B. Mennucci, 
 G. A. Petersson, H. Nakatsuji, M. Caricato, X. Li, H. P. Hratchian, 
 A. F. Izmaylov, J. Bloino, G. Zheng, J. L. Sonnenberg, M. Hada, 
 M. Ehara, K. Toyota, R. Fukuda, J. Hasegawa, M. Ishida, T. Nakajima, 
 Y. Honda, O. Kitao, H. Nakai, T. Vreven, J. A. Montgomery, Jr., 
 J. E. Peralta, F. Ogliaro, M. Bearpark, J. J. Heyd, E. Brothers, 
 K. N. Kudin, V. N. Staroverov, T. Keith, R. Kobayashi, J. Normand, 
 K. Raghavachari, A. Rendell, J. C. Burant, S. S. Iyengar, J. Tomasi, 
 M. Cossi, N. Rega, J. M. Millam, M. Klene, J. E. Knox, J. B. Cross, 
 V. Bakken, C. Adamo, J. Jaramillo, R. Gomperts, R. E. Stratmann, 
 O. Yazyev, A. J. Austin, R. Cammi, C. Pomelli, J. W. Ochterski, 
 R. L. Martin, K. Morokuma, V. G. Zakrzewski, G. A. Voth, 
 P. Salvador, J. J. Dannenberg, S. Dapprich, A. D. Daniels, 
 O. Farkas, J. B. Foresman, J. V. Ortiz, J. Cioslowski, 
 and D. J. Fox, Gaussian, Inc., Wallingford CT, 2013.
 
 ******************************************
 Gaussian 09:  AM64L-G09RevD.01 24-Apr-2013
                16-Jan-2014 
 ******************************************
 %mem=1800mb
 -----------------------------------------
 # hf/gen pop=mk iop(6/33=2,6/41=5,6/42=2)
 -----------------------------------------
 1/38=1/1;
 2/12=2,17=6,18=5,40=1/2;
 3/5=7,11=9,16=1,25=1,30=1/1,2,3;
 4//1;
 5/5=2,38=5/2;
 6/7=2,8=2,9=2,10=2,15=8,20=1,28=1,33=2,41=5,42=2/1,2;
 99/5=1,9=1/99;
 -------
 na resp
 -------
 Symbolic Z-matrix:
 Charge =  0 Multiplicity = 1
 6                    -6.87312   0.09976   0.00085 
 6                    -5.65562  -0.80535  -0.00097 
 8                    -4.48486   0.04183  -0.00106 
 6                    -3.29463  -0.6011   -0.00019 
 8                    -3.19222  -1.8115    0.00034 
 6                    -2.13819   0.34598   0. 
 6                    -2.31749   1.73454  -0.00005 
 6                    -1.19814   2.5649    0.00017 
 6                     0.08224   2.01959   0.00038 
 6                     0.26223   0.62695   0.00038 
 6                    -0.85529  -0.21507   0.00024 
 7                     1.5923    0.15327   0.00055 
 6                     2.03418  -1.1346    0.00024 
 8                     1.33837  -2.13983  -0.00017 
 6                     3.54943  -1.36163   0.00093 
 35                    4.72192   0.2373   -0.0004 
 1                    -7.78584  -0.50601   0.00072 
 1                    -6.88477   0.73917   0.88949 
 1                    -6.8859    0.74122  -0.88629 
 1                    -5.62292  -1.45084  -0.88458 
 1                    -5.62151  -1.45276   0.88114 
 1                    -3.31779   2.15052  -0.00026 
 1                    -1.31994   3.64426   0.00019 
 1                     0.95087   2.67489   0.00055 
 1                    -0.74039  -1.28986   0.00028 
 1                     2.31449   0.86458   0.0007 
 1                     3.81795  -1.92977   0.89072 
 1                     3.8185   -1.9317   -0.88745 
 
                          Input orientation:                          
 ---------------------------------------------------------------------
 Center     Atomic      Atomic             Coordinates (Angstroms)
 Number     Number       Type             X           Y           Z
 ---------------------------------------------------------------------
      1          6           0       -6.873118    0.099756    0.000851
      2          6           0       -5.655618   -0.805345   -0.000971
      3          8           0       -4.484859    0.041827   -0.001057
      4          6           0       -3.294633   -0.601096   -0.000187
      5          8           0       -3.192223   -1.811498    0.000342
      6          6           0       -2.138191    0.345984    0.000001
      7          6           0       -2.317492    1.734537   -0.000053
      8          6           0       -1.198139    2.564896    0.000173
      9          6           0        0.082239    2.019594    0.000377
     10          6           0        0.262228    0.626954    0.000376
     11          6           0       -0.855292   -0.215070    0.000240
     12          7           0        1.592300    0.153266    0.000548
     13          6           0        2.034180   -1.134597    0.000235
     14          8           0        1.338372   -2.139834   -0.000167
     15          6           0        3.549425   -1.361632    0.000933
     16         35           0        4.721922    0.237303   -0.000395
     17          1           0       -7.785840   -0.506012    0.000721
     18          1           0       -6.884769    0.739170    0.889491
     19          1           0       -6.885896    0.741224   -0.886292
     20          1           0       -5.622920   -1.450843   -0.884581
     21          1           0       -5.621508   -1.452762    0.881137
     22          1           0       -3.317786    2.150521   -0.000264
     23          1           0       -1.319939    3.644255    0.000186
     24          1           0        0.950873    2.674886    0.000553
     25          1           0       -0.740392   -1.289858    0.000282
     26          1           0        2.314490    0.864576    0.000695
     27          1           0        3.817954   -1.929769    0.890719
     28          1           0        3.818500   -1.931699   -0.887447
 ---------------------------------------------------------------------
                    Distance matrix (angstroms):
                    1          2          3          4          5
     1  C    0.000000
     2  C    1.517075   0.000000
     3  O    2.388962   1.445122   0.000000
     4  C    3.646471   2.369803   1.352771   0.000000
     5  O    4.147515   2.660951   2.259585   1.214727   0.000000
     6  C    4.741325   3.701061   2.366297   1.494764   2.401190
     7  C    4.840066   4.194531   2.750045   2.531795   3.652331
     8  C    6.187269   5.588170   4.143478   3.797209   4.809282
     9  C    7.215453   6.395568   4.976942   4.274492   5.039778
    10  C    7.154796   6.088710   4.783013   3.762893   4.228390
    11  C    6.026056   4.836482   3.638647   2.469696   2.830164
    12  N    8.465587   7.311036   6.078181   4.944813   5.172229
    13  C    8.992418   7.696844   6.624337   5.355453   5.270055
    14  O    8.511424   7.120166   6.218494   4.881849   4.542477
    15  C   10.524498   9.221837   8.155944   6.886185   6.756641
    16  Br  11.595856  10.429787   9.208856   8.060277   8.175040
    17  H    1.095453   2.151151   3.346133   4.492213   4.775522
    18  H    1.094837   2.165470   2.653098   3.934071   4.575084
    19  H    1.094837   2.165468   2.652881   3.934994   4.576650
    20  H    2.179757   1.094762   2.074575   2.631567   2.611790
    21  H    2.179849   1.094727   2.074616   2.629908   2.608815
    22  H    4.104391   3.768634   2.410114   2.751714   3.964008
    23  H    6.587964   6.212653   4.795228   4.682139   5.768075
    24  H    8.236876   7.467110   6.039883   5.362498   6.106790
    25  H    6.288192   4.939049   3.974219   2.645475   2.506708
    26  H    9.219387   8.143173   6.848946   5.797453   6.122521
    27  H   10.918327   9.581649   8.580161   7.290266   7.067485
    28  H   10.919092   9.581932   8.580575   7.290706   7.067733
                    6          7          8          9         10
     6  C    0.000000
     7  C    1.400082   0.000000
     8  C    2.409827   1.393717   0.000000
     9  C    2.780518   2.416602   1.391662   0.000000
    10  C    2.416807   2.807436   2.426580   1.404223   0.000000
    11  C    1.400218   2.437006   2.801027   2.423363   1.399234
    12  N    3.735466   4.217451   3.688158   2.400722   1.411904
    13  C    4.427279   5.212387   4.912650   3.709312   2.498575
    14  O    4.273849   5.326921   5.344939   4.344964   2.968704
    15  C    5.938428   6.633776   6.160924   4.842940   3.841893
    16  Br   6.860974   7.196878   6.361196   4.970233   4.476684
    17  H    5.711553   5.909559   7.268307   8.263495   8.127423
    18  H    4.845182   4.758368   6.038371   7.139272   7.202964
    19  H    4.845868   4.758404   6.038392   7.139700   7.203812
    20  H    4.019255   4.674921   6.040500   6.736165   6.303599
    21  H    4.018132   4.674601   6.040188   6.735408   6.302326
    22  H    2.155875   1.083342   2.159771   3.402545   3.890727
    23  H    3.398254   2.154561   1.086210   2.146072   3.406957
    24  H    3.868605   3.400951   2.151825   1.088087   2.160615
    25  H    2.151702   3.410896   3.881837   3.410160   2.163196
    26  H    4.482779   4.712970   3.902519   2.513367   2.065973
    27  H    6.438019   7.201688   6.793841   5.508697   4.469086
    28  H    6.438755   7.202718   6.795138   5.510045   4.470124
                   11         12         13         14         15
    11  C    0.000000
    12  N    2.475152   0.000000
    13  C    3.032256   1.361561   0.000000
    14  O    2.918369   2.307117   1.222559   0.000000
    15  C    4.551498   2.474925   1.532160   2.344004   0.000000
    16  Br   5.595530   3.130750   3.017626   4.135117   1.982762
    17  H    6.936652   9.401285   9.840117   9.269338  11.367512
    18  H    6.168949   8.543664   9.156933   8.757865  10.680604
    19  H    6.169977   8.544705   9.158187   8.759241  10.681999
    20  H    5.004030   7.444194   7.714538   7.050992   9.215422
    21  H    5.002467   7.442700   7.712767   7.049021   9.213527
    22  H    3.414659   5.300752   6.279772   6.331426   7.713223
    23  H    3.887195   4.546223   5.838454   6.365713   6.983524
    24  H    3.407943   2.601922   3.960520   4.830288   4.800620
    25  H    1.080912   2.743002   2.778913   2.245823   4.290417
    26  H    3.348605   1.013667   2.018729   3.159001   2.545794
    27  H    5.056913   3.175685   2.146418   2.643129   1.089315
    28  H    5.057582   3.176725   2.146427   2.642276   1.089310
                   16         17         18         19         20
    16  Br   0.000000
    17  H   12.529830   0.000000
    18  H   11.651568   1.775477   0.000000
    19  H   11.652476   1.775469   1.775785   0.000000
    20  H   10.518906   2.520851   3.088001   2.529875   0.000000
    21  H   10.517603   2.521071   2.529914   3.088051   1.765720
    22  H    8.264219   5.198142   3.937886   3.937331   4.366404
    23  H    6.936239   7.683267   6.340167   6.339819   6.727442
    24  H    4.490281   9.297756   8.120006   8.120375   7.811521
    25  H    5.671781   7.088918   6.531540   6.532880   4.964673
    26  H    2.487811  10.192898   9.242946   9.243866   8.315489
    27  H    2.511462  11.724641  11.030481  11.174273   9.618272
    28  H    2.511494  11.725278  11.173675  11.033069   9.453658
                   21         22         23         24         25
    21  H    0.000000
    22  H    4.366652   0.000000
    23  H    6.727492   2.494521   0.000000
    24  H    7.810832   4.300745   2.469061   0.000000
    25  H    4.962634   4.298740   4.968032   4.310403   0.000000
    26  H    8.314162   5.777213   4.575553   2.266423   3.738167
    27  H    9.451512   8.268095   7.632872   5.496853   4.688377
    28  H    9.616185   8.269111   7.634311   5.498405   4.688659
                   26         27         28
    26  H    0.000000
    27  H    3.295590   0.000000
    28  H    3.296968   1.778167   0.000000
 Stoichiometry    C11H12BrNO3
 Framework group  C1[X(C11H12BrNO3)]
 Deg. of freedom    78
 Full point group                 C1      NOp   1
 Largest Abelian subgroup         C1      NOp   1
 Largest concise Abelian subgroup C1      NOp   1
                         Standard orientation:                         
 ---------------------------------------------------------------------
 Center     Atomic      Atomic             Coordinates (Angstroms)
 Number     Number       Type             X           Y           Z
 ---------------------------------------------------------------------
      1          6           0       -6.873118    0.099756    0.000851
      2          6           0       -5.655618   -0.805345   -0.000971
      3          8           0       -4.484859    0.041827   -0.001057
      4          6           0       -3.294633   -0.601096   -0.000187
      5          8           0       -3.192223   -1.811498    0.000342
      6          6           0       -2.138191    0.345984    0.000001
      7          6           0       -2.317492    1.734537   -0.000053
      8          6           0       -1.198139    2.564896    0.000173
      9          6           0        0.082239    2.019594    0.000377
     10          6           0        0.262228    0.626954    0.000376
     11          6           0       -0.855292   -0.215070    0.000240
     12          7           0        1.592300    0.153266    0.000548
     13          6           0        2.034180   -1.134597    0.000235
     14          8           0        1.338372   -2.139834   -0.000167
     15          6           0        3.549425   -1.361632    0.000933
     16         35           0        4.721922    0.237303   -0.000395
     17          1           0       -7.785840   -0.506012    0.000721
     18          1           0       -6.884769    0.739170    0.889491
     19          1           0       -6.885896    0.741224   -0.886292
     20          1           0       -5.622920   -1.450843   -0.884581
     21          1           0       -5.621508   -1.452762    0.881137
     22          1           0       -3.317786    2.150521   -0.000264
     23          1           0       -1.319939    3.644255    0.000186
     24          1           0        0.950873    2.674886    0.000553
     25          1           0       -0.740392   -1.289858    0.000282
     26          1           0        2.314490    0.864576    0.000695
     27          1           0        3.817954   -1.929769    0.890719
     28          1           0        3.818500   -1.931699   -0.887447
 ---------------------------------------------------------------------
 Rotational constants (GHZ):      1.2742628      0.1265337      0.1153537
 General basis read from cards:  (5D, 7F)
 There are   279 symmetry adapted cartesian basis functions of A   symmetry.
 There are   262 symmetry adapted basis functions of A   symmetry.
   262 basis functions,   551 primitive gaussians,   279 cartesian basis functions
    72 alpha electrons       72 beta electrons
       nuclear repulsion energy      1323.1126486086 Hartrees.
 NAtoms=   28 NActive=   28 NUniq=   28 SFac= 1.00D+00 NAtFMM=   60 NAOKFM=F Big=F
 Integral buffers will be    131072 words long.
 Raffenetti 1 integral format.
 Two-electron integral symmetry is turned on.
 One-electron integrals computed using PRISM.
 NBasis=   262 RedAO= T EigKep=  4.41D-04  NBF=   262
 NBsUse=   262 1.00D-06 EigRej= -1.00D+00 NBFU=   262
 ExpMin= 1.43D-01 ExpMax= 5.74D+05 ExpMxC= 5.74D+03 IAcc=2 IRadAn=         4 AccDes= 0.00D+00
 Harris functional with IExCor=  205 and IRadAn=       4 diagonalized for initial guess.
 HarFok:  IExCor=  205 AccDes= 0.00D+00 IRadAn=         4 IDoV= 1 UseB2=F ITyADJ=14
 ICtDFT=  3500011 ScaDFX=  1.000000  1.000000  1.000000  1.000000
 FoFCou: FMM=F IPFlag=           0 FMFlag=      100000 FMFlg1=           0
         NFxFlg=           0 DoJE=T BraDBF=F KetDBF=T FulRan=T
         wScrn=  0.000000 ICntrl=     500 IOpCl=  0 I1Cent=   200000004 NGrid=           0
         NMat0=    1 NMatS0=      1 NMatT0=    0 NMatD0=    1 NMtDS0=    0 NMtDT0=    0
 Petite list used in FoFCou.
 Requested convergence on RMS density matrix=1.00D-08 within 128 cycles.
 Requested convergence on MAX density matrix=1.00D-06.
 Requested convergence on             energy=1.00D-06.
 No special actions if energy rises.
 Integral accuracy reduced to 1.0D-05 until final iterations.
 Initial convergence to 1.0D-05 achieved.  Increase integral accuracy.
 SCF Done:  E(RHF) =  -3272.20237825     A.U. after   17 cycles
            NFock= 17  Conv=0.30D-08     -V/T= 1.9992

 **********************************************************************

            Population analysis using the SCF density.

 **********************************************************************

 Orbital symmetries:
 BldTbl:  Degeneracy threshold= 1.00D-02
       Occupied  (A) (A) (A) (A) (A) (A) (A) (A) (A) (A) (A) (A)
                 (A) (A) (A) (A) (A) (A) (A) (A) (A) (A) (A) (A)
                 (A) (A) (A) (A) (A) (A) (A) (A) (A) (A) (A) (A)
                 (A) (A) (A) (A) (A) (A) (A) (A) (A) (A) (A) (A)
                 (A) (A) (A) (A) (A) (A) (A) (A) (A) (A) (A) (A)
                 (A) (A) (A) (A) (A) (A) (A) (A) (A) (A) (A) (A)
       Virtual   (A) (A) (A) (A) (A) (A) (A) (A) (A) (A) (A) (A)
                 (A) (A) (A) (A) (A) (A) (A) (A) (A) (A) (A) (A)
                 (A) (A) (A) (A) (A) (A) (A) (A) (A) (A) (A) (A)
                 (A) (A) (A) (A) (A) (A) (A) (A) (A) (A) (A) (A)
                 (A) (A) (A) (A) (A) (A) (A) (A) (A) (A) (A) (A)
                 (A) (A) (A) (A) (A) (A) (A) (A) (A) (A) (A) (A)
                 (A) (A) (A) (A) (A) (A) (A) (A) (A) (A) (A) (A)
                 (A) (A) (A) (A) (A) (A) (A) (A) (A) (A) (A) (A)
                 (A) (A) (A) (A) (A) (A) (A) (A) (A) (A) (A) (A)
                 (A) (A) (A) (A) (A) (A) (A) (A) (A) (A) (A) (A)
                 (A) (A) (A) (A) (A) (A) (A) (A) (A) (A) (A) (A)
                 (A) (A) (A) (A) (A) (A) (A) (A) (A) (A) (A) (A)
                 (A) (A) (A) (A) (A) (A) (A) (A) (A) (A) (A) (A)
                 (A) (A) (A) (A) (A) (A) (A) (A) (A) (A) (A) (A)
                 (A) (A) (A) (A) (A) (A) (A) (A) (A) (A) (A) (A)
                 (A) (A) (A) (A) (A) (A) (A) (A) (A) (A)
 The electronic state is 1-A.
 Alpha  occ. eigenvalues -- -489.85847 -64.40303 -58.56947 -58.56801 -58.56787
 Alpha  occ. eigenvalues --  -20.60205 -20.54986 -20.54532 -15.62153 -11.38853
 Alpha  occ. eigenvalues --  -11.38367 -11.32212 -11.30065 -11.28717 -11.25584
 Alpha  occ. eigenvalues --  -11.25479 -11.24975 -11.24658 -11.24197 -11.22407
 Alpha  occ. eigenvalues --   -9.68069  -7.49604  -7.48794  -7.48738  -3.23895
 Alpha  occ. eigenvalues --   -3.23533  -3.23476  -3.22539  -3.22538  -1.45181
 Alpha  occ. eigenvalues --   -1.40478  -1.34979  -1.27347  -1.16000  -1.08613
 Alpha  occ. eigenvalues --   -1.05564  -1.02820  -1.01984  -0.94394  -0.90215
 Alpha  occ. eigenvalues --   -0.86609  -0.84633  -0.79131  -0.78492  -0.74335
 Alpha  occ. eigenvalues --   -0.69691  -0.68959  -0.67648  -0.66608  -0.66511
 Alpha  occ. eigenvalues --   -0.65924  -0.62599  -0.60679  -0.60095  -0.58892
 Alpha  occ. eigenvalues --   -0.58013  -0.56950  -0.54954  -0.54077  -0.52985
 Alpha  occ. eigenvalues --   -0.52111  -0.51859  -0.50589  -0.50269  -0.45343
 Alpha  occ. eigenvalues --   -0.45314  -0.44964  -0.44200  -0.42297  -0.41780
 Alpha  occ. eigenvalues --   -0.34948  -0.31829
 Alpha virt. eigenvalues --    0.08987   0.12270   0.13741   0.18878   0.22484
 Alpha virt. eigenvalues --    0.23877   0.24121   0.24625   0.26131   0.29131
 Alpha virt. eigenvalues --    0.30077   0.30235   0.30301   0.31283   0.32145
 Alpha virt. eigenvalues --    0.34574   0.34826   0.35052   0.36507   0.38517
 Alpha virt. eigenvalues --    0.40119   0.42021   0.44290   0.45978   0.47386
 Alpha virt. eigenvalues --    0.49549   0.49838   0.51973   0.54587   0.58614
 Alpha virt. eigenvalues --    0.59174   0.61525   0.63156   0.63496   0.64533
 Alpha virt. eigenvalues --    0.68233   0.68240   0.68488   0.71075   0.72414
 Alpha virt. eigenvalues --    0.72778   0.73845   0.73938   0.74312   0.75178
 Alpha virt. eigenvalues --    0.75761   0.76849   0.77151   0.78296   0.80267
 Alpha virt. eigenvalues --    0.81802   0.82832   0.83079   0.83121   0.84599
 Alpha virt. eigenvalues --    0.85082   0.85932   0.89594   0.89601   0.91117
 Alpha virt. eigenvalues --    0.92922   0.94800   0.96375   0.97145   1.00323
 Alpha virt. eigenvalues --    1.00974   1.01564   1.01688   1.03990   1.05463
 Alpha virt. eigenvalues --    1.06423   1.07800   1.08965   1.10295   1.11150
 Alpha virt. eigenvalues --    1.11437   1.13092   1.13879   1.15190   1.16530
 Alpha virt. eigenvalues --    1.17567   1.17930   1.18950   1.19826   1.22142
 Alpha virt. eigenvalues --    1.23102   1.23309   1.24715   1.26207   1.27199
 Alpha virt. eigenvalues --    1.29733   1.32068   1.33578   1.35286   1.37222
 Alpha virt. eigenvalues --    1.39802   1.40356   1.43251   1.45358   1.49119
 Alpha virt. eigenvalues --    1.52923   1.53100   1.56130   1.56465   1.58196
 Alpha virt. eigenvalues --    1.60501   1.64424   1.64491   1.66334   1.67048
 Alpha virt. eigenvalues --    1.68485   1.71323   1.72135   1.74511   1.74937
 Alpha virt. eigenvalues --    1.77460   1.78096   1.78473   1.84903   1.88095
 Alpha virt. eigenvalues --    1.94243   1.97648   2.00879   2.05104   2.05580
 Alpha virt. eigenvalues --    2.05930   2.08216   2.08682   2.09733   2.10049
 Alpha virt. eigenvalues --    2.14280   2.14675   2.14861   2.17451   2.18129
 Alpha virt. eigenvalues --    2.19794   2.20720   2.22766   2.25019   2.26562
 Alpha virt. eigenvalues --    2.27690   2.30922   2.31945   2.34355   2.37821
 Alpha virt. eigenvalues --    2.39795   2.41028   2.42134   2.44397   2.46197
 Alpha virt. eigenvalues --    2.46328   2.49089   2.49171   2.52193   2.52433
 Alpha virt. eigenvalues --    2.58527   2.60691   2.62790   2.63165   2.65175
 Alpha virt. eigenvalues --    2.66410   2.66648   2.67844   2.71899   2.73280
 Alpha virt. eigenvalues --    2.78561   2.83419   2.84502   2.92067   2.94082
 Alpha virt. eigenvalues --    2.94961   2.97600   2.98829   3.03489   3.04268
 Alpha virt. eigenvalues --    3.05826   3.06118   3.13392   3.13973   3.18030
 Alpha virt. eigenvalues --    3.25146   3.28650   3.31076   3.33861   3.37462
 Alpha virt. eigenvalues --    3.52116   3.56794   3.69092   3.83173   9.18397
          Condensed to atoms (all electrons):
               1          2          3          4          5          6
     1  C    5.137087   0.338922  -0.044294   0.002169   0.000553   0.000146
     2  C    0.338922   4.818128   0.160777  -0.031884  -0.000113   0.004814
     3  O   -0.044294   0.160777   8.525155   0.281176  -0.077613  -0.088763
     4  C    0.002169  -0.031884   0.281176   3.933518   0.580196   0.407953
     5  O    0.000553  -0.000113  -0.077613   0.580196   8.155643  -0.080652
     6  C    0.000146   0.004814  -0.088763   0.407953  -0.080652   5.029341
     7  C   -0.000083  -0.000164   0.000263  -0.034162   0.002870   0.532276
     8  C    0.000000   0.000001   0.000146   0.001963  -0.000053  -0.038945
     9  C    0.000000   0.000000   0.000000   0.000259   0.000003  -0.030069
    10  C    0.000000   0.000000  -0.000025   0.001563   0.000812  -0.037094
    11  C    0.000001  -0.000067   0.002446  -0.033573   0.002422   0.501241
    12  N    0.000000   0.000000   0.000000  -0.000107  -0.000001   0.002348
    13  C    0.000000   0.000000   0.000000   0.000005   0.000001   0.000146
    14  O    0.000000   0.000000   0.000000  -0.000030  -0.000002   0.000779
    15  C    0.000000   0.000000   0.000000   0.000000   0.000000   0.000007
    16  Br   0.000000   0.000000   0.000000   0.000000   0.000000  -0.000001
    17  H    0.386539  -0.037877   0.002479   0.000005   0.000010   0.000001
    18  H    0.386345  -0.034143   0.000632  -0.000083  -0.000006  -0.000029
    19  H    0.386346  -0.034133   0.000624  -0.000084  -0.000006  -0.000029
    20  H   -0.040256   0.402347  -0.034679  -0.003251   0.003353  -0.000193
    21  H   -0.040219   0.402330  -0.034664  -0.003268   0.003385  -0.000191
    22  H    0.000036  -0.000146   0.005348  -0.002242   0.000073  -0.024773
    23  H    0.000000   0.000000  -0.000004  -0.000068   0.000000   0.001731
    24  H    0.000000   0.000000   0.000000   0.000005   0.000000   0.000216
    25  H    0.000000  -0.000006   0.000189  -0.001881   0.008701  -0.025953
    26  H    0.000000   0.000000   0.000000   0.000001   0.000000  -0.000028
    27  H    0.000000   0.000000   0.000000   0.000000   0.000000   0.000000
    28  H    0.000000   0.000000   0.000000   0.000000   0.000000   0.000000
               7          8          9         10         11         12
     1  C   -0.000083   0.000000   0.000000   0.000000   0.000001   0.000000
     2  C   -0.000164   0.000001   0.000000   0.000000  -0.000067   0.000000
     3  O    0.000263   0.000146   0.000000  -0.000025   0.002446   0.000000
     4  C   -0.034162   0.001963   0.000259   0.001563  -0.033573  -0.000107
     5  O    0.002870  -0.000053   0.000003   0.000812   0.002422  -0.000001
     6  C    0.532276  -0.038945  -0.030069  -0.037094   0.501241   0.002348
     7  C    4.932999   0.530299  -0.049743  -0.026936  -0.055443   0.000587
     8  C    0.530299   4.900749   0.546105  -0.034302  -0.034026   0.002559
     9  C   -0.049743   0.546105   4.967710   0.551487  -0.041635  -0.053613
    10  C   -0.026936  -0.034302   0.551487   4.536385   0.558741   0.175895
    11  C   -0.055443  -0.034026  -0.041635   0.558741   5.011873  -0.041410
    12  N    0.000587   0.002559  -0.053613   0.175895  -0.041410   7.486975
    13  C    0.000000  -0.000063   0.002702  -0.025696  -0.003459   0.281986
    14  O    0.000003  -0.000005   0.000273   0.002041  -0.009588  -0.083625
    15  C    0.000000   0.000000  -0.000135   0.003281   0.000050  -0.099445
    16  Br   0.000000  -0.000004  -0.000305   0.001756  -0.000031  -0.011231
    17  H    0.000001   0.000000   0.000000   0.000000   0.000000   0.000000
    18  H    0.000000   0.000000   0.000000   0.000000   0.000000   0.000000
    19  H    0.000000   0.000000   0.000000   0.000000   0.000000   0.000000
    20  H    0.000027   0.000000   0.000000   0.000000  -0.000004   0.000000
    21  H    0.000026   0.000000   0.000000   0.000000  -0.000004   0.000000
    22  H    0.377672  -0.029827   0.002373   0.000150   0.002242   0.000003
    23  H   -0.026344   0.382268  -0.029608   0.001562   0.000319  -0.000083
    24  H    0.002089  -0.021905   0.376342  -0.037493   0.002416  -0.002614
    25  H    0.001978  -0.000118   0.002200  -0.018339   0.355189  -0.003567
    26  H   -0.000003   0.000104   0.000938  -0.027103   0.001595   0.305359
    27  H    0.000000   0.000000   0.000002  -0.000051   0.000004   0.001018
    28  H    0.000000   0.000000   0.000002  -0.000050   0.000004   0.001031
              13         14         15         16         17         18
     1  C    0.000000   0.000000   0.000000   0.000000   0.386539   0.386345
     2  C    0.000000   0.000000   0.000000   0.000000  -0.037877  -0.034143
     3  O    0.000000   0.000000   0.000000   0.000000   0.002479   0.000632
     4  C    0.000005  -0.000030   0.000000   0.000000   0.000005  -0.000083
     5  O    0.000001  -0.000002   0.000000   0.000000   0.000010  -0.000006
     6  C    0.000146   0.000779   0.000007  -0.000001   0.000001  -0.000029
     7  C    0.000000   0.000003   0.000000   0.000000   0.000001   0.000000
     8  C   -0.000063  -0.000005   0.000000  -0.000004   0.000000   0.000000
     9  C    0.002702   0.000273  -0.000135  -0.000305   0.000000   0.000000
    10  C   -0.025696   0.002041   0.003281   0.001756   0.000000   0.000000
    11  C   -0.003459  -0.009588   0.000050  -0.000031   0.000000   0.000000
    12  N    0.281986  -0.083625  -0.099445  -0.011231   0.000000   0.000000
    13  C    4.141445   0.571936   0.346377  -0.051009   0.000000   0.000000
    14  O    0.571936   8.175257  -0.065501   0.002085   0.000000   0.000000
    15  C    0.346377  -0.065501   5.223083   0.236593   0.000000   0.000000
    16  Br  -0.051009   0.002085   0.236593  35.070294   0.000000   0.000000
    17  H    0.000000   0.000000   0.000000   0.000000   0.526813  -0.024906
    18  H    0.000000   0.000000   0.000000   0.000000  -0.024906   0.519706
    19  H    0.000000   0.000000   0.000000   0.000000  -0.024911  -0.027563
    20  H    0.000000   0.000000   0.000000   0.000000  -0.000491   0.003814
    21  H    0.000000   0.000000   0.000000   0.000000  -0.000494  -0.003828
    22  H    0.000000   0.000000   0.000000   0.000000  -0.000001   0.000044
    23  H    0.000001   0.000000   0.000000   0.000000   0.000000   0.000000
    24  H    0.000028   0.000001   0.000007   0.000029   0.000000   0.000000
    25  H   -0.000429   0.012234   0.000220  -0.000005   0.000000   0.000000
    26  H   -0.015914   0.001848  -0.005687   0.020380   0.000000   0.000000
    27  H   -0.027468   0.000858   0.374509  -0.039967   0.000000   0.000000
    28  H   -0.027488   0.000866   0.374532  -0.039964   0.000000   0.000000
              19         20         21         22         23         24
     1  C    0.386346  -0.040256  -0.040219   0.000036   0.000000   0.000000
     2  C   -0.034133   0.402347   0.402330  -0.000146   0.000000   0.000000
     3  O    0.000624  -0.034679  -0.034664   0.005348  -0.000004   0.000000
     4  C   -0.000084  -0.003251  -0.003268  -0.002242  -0.000068   0.000005
     5  O   -0.000006   0.003353   0.003385   0.000073   0.000000   0.000000
     6  C   -0.000029  -0.000193  -0.000191  -0.024773   0.001731   0.000216
     7  C    0.000000   0.000027   0.000026   0.377672  -0.026344   0.002089
     8  C    0.000000   0.000000   0.000000  -0.029827   0.382268  -0.021905
     9  C    0.000000   0.000000   0.000000   0.002373  -0.029608   0.376342
    10  C    0.000000   0.000000   0.000000   0.000150   0.001562  -0.037493
    11  C    0.000000  -0.000004  -0.000004   0.002242   0.000319   0.002416
    12  N    0.000000   0.000000   0.000000   0.000003  -0.000083  -0.002614
    13  C    0.000000   0.000000   0.000000   0.000000   0.000001   0.000028
    14  O    0.000000   0.000000   0.000000   0.000000   0.000000   0.000001
    15  C    0.000000   0.000000   0.000000   0.000000   0.000000   0.000007
    16  Br   0.000000   0.000000   0.000000   0.000000   0.000000   0.000029
    17  H   -0.024911  -0.000491  -0.000494  -0.000001   0.000000   0.000000
    18  H   -0.027563   0.003814  -0.003828   0.000044   0.000000   0.000000
    19  H    0.519706  -0.003828   0.003811   0.000044   0.000000   0.000000
    20  H   -0.003828   0.523851  -0.037294   0.000015   0.000000   0.000000
    21  H    0.003811  -0.037294   0.523658   0.000015   0.000000   0.000000
    22  H    0.000044   0.000015   0.000015   0.425183  -0.001137  -0.000088
    23  H    0.000000   0.000000   0.000000  -0.001137   0.456907  -0.001430
    24  H    0.000000   0.000000   0.000000  -0.000088  -0.001430   0.463852
    25  H    0.000000  -0.000001  -0.000001  -0.000069   0.000007  -0.000070
    26  H    0.000000   0.000000   0.000000   0.000000  -0.000010   0.004413
    27  H    0.000000   0.000000   0.000000   0.000000   0.000000   0.000000
    28  H    0.000000   0.000000   0.000000   0.000000   0.000000   0.000000
              25         26         27         28
     1  C    0.000000   0.000000   0.000000   0.000000
     2  C   -0.000006   0.000000   0.000000   0.000000
     3  O    0.000189   0.000000   0.000000   0.000000
     4  C   -0.001881   0.000001   0.000000   0.000000
     5  O    0.008701   0.000000   0.000000   0.000000
     6  C   -0.025953  -0.000028   0.000000   0.000000
     7  C    0.001978  -0.000003   0.000000   0.000000
     8  C   -0.000118   0.000104   0.000000   0.000000
     9  C    0.002200   0.000938   0.000002   0.000002
    10  C   -0.018339  -0.027103  -0.000051  -0.000050
    11  C    0.355189   0.001595   0.000004   0.000004
    12  N   -0.003567   0.305359   0.001018   0.001031
    13  C   -0.000429  -0.015914  -0.027468  -0.027488
    14  O    0.012234   0.001848   0.000858   0.000866
    15  C    0.000220  -0.005687   0.374509   0.374532
    16  Br  -0.000005   0.020380  -0.039967  -0.039964
    17  H    0.000000   0.000000   0.000000   0.000000
    18  H    0.000000   0.000000   0.000000   0.000000
    19  H    0.000000   0.000000   0.000000   0.000000
    20  H   -0.000001   0.000000   0.000000   0.000000
    21  H   -0.000001   0.000000   0.000000   0.000000
    22  H   -0.000069   0.000000   0.000000   0.000000
    23  H    0.000007  -0.000010   0.000000   0.000000
    24  H   -0.000070   0.004413   0.000000   0.000000
    25  H    0.345038  -0.000113  -0.000003  -0.000003
    26  H   -0.000113   0.276034   0.000383   0.000383
    27  H   -0.000003   0.000383   0.441935  -0.018794
    28  H   -0.000003   0.000383  -0.018794   0.441889
 Mulliken charges:
               1
     1  C   -0.513293
     2  C    0.011213
     3  O   -0.699195
     4  C    0.901819
     5  O   -0.599575
     6  C   -0.154280
     7  C   -0.188213
     8  C   -0.204948
     9  C   -0.245291
    10  C    0.373418
    11  C   -0.219302
    12  N   -0.962068
    13  C    0.806897
    14  O   -0.609430
    15  C   -0.387891
    16  Br  -0.188623
    17  H    0.172832
    18  H    0.180018
    19  H    0.180023
    20  H    0.186589
    21  H    0.186734
    22  H    0.245085
    23  H    0.215888
    24  H    0.214202
    25  H    0.324802
    26  H    0.437419
    27  H    0.267575
    28  H    0.267594
 Sum of Mulliken charges =   0.00000
 Mulliken charges with hydrogens summed into heavy atoms:
               1
     1  C    0.019580
     2  C    0.384537
     3  O   -0.699195
     4  C    0.901819
     5  O   -0.599575
     6  C   -0.154280
     7  C    0.056872
     8  C    0.010940
     9  C   -0.031089
    10  C    0.373418
    11  C    0.105500
    12  N   -0.524648
    13  C    0.806897
    14  O   -0.609430
    15  C    0.147277
    16  Br  -0.188623
 DipInt: DoE/N= T F RetVal/Mat= T F Init=T NMatP=  1 IDeriv=0 Min/MaxMlt=  0  4
 Entering OneElI...
 OneElI was handed   235728052 working-precision words.
 Multipole integrals L=0 to 4 MinM= 0 MaxM= 0.
 Requested accuracy = 0.1000D-12
 PrtBox:  NBox=     1 Levels=  1 BoxLen=   38.93 SMaxX=       23.64
          Shift=           14.713105            4.043700            1.677032
 Box      1 Number                   0 centers from      1 to     96:
 ShPair: Thresh= 1.00D-13 NBox=     1 BxSize= 3.89D+01 RnKept= 2.22D+01
         NSMCal=                 4656 NSMKep=                3478
 PrsmSu:  NPrtUS=   1 ThrOK=F IAlg=1 NPAlg=1 LenDen=           0.
 Prism:   IPart=     0 DynPar=F LinDyn=F Incr=          34.
 PRISM was handed   235408169 working-precision words and  3478 shell-pairs
 IPart=  0 NShTot=        3478 NBatch=         140 AvBLen=        24.8
 PrSmSu:  NxtVal=             35.
 Electronic moments (au):
       -144.00000000          0.13507787          1.41102785          0.00097453
      -7336.07410802       -851.21779997        -96.55187200         -4.42964469
          0.00715058         -0.00077141      11604.29911360       -524.22596312
         -0.06466735        886.43306513       1754.86346198          1.48465893
        151.76547726         11.07264056         -0.24033953          0.57812614
    -707732.86375741     -15549.18558082       -381.00328791     -18521.68879412
         18.14819182       3706.28113875         -0.38359741         -0.32855413
         -0.04586080     -20054.05719417      -5655.12282667       -685.19579235
         -0.22436951         -0.79206081        120.48358956
 Electronic spatial extent (au):  <R**2>=           8283.8438
 DipInt: DoE/N= F T RetVal/Mat= T F Init=T NMatP=  1 IDeriv=0 Min/MaxMlt=  0  4
 Nuclear    moments (au):
        144.00000000          0.00000000          0.00000000          0.00000000
       7271.66198710        770.79592921         16.84318946          0.00000000
          0.00028588          0.00002013     -11614.03178553        580.39992946
          0.04906973       -797.98886817      -1792.09869770         -1.47535312
        -91.67081298        -27.99548020          0.23569722         -0.60688894
     687221.02725666      12654.60887735         47.28383134      18783.94975210
        -17.88609350      -3712.06938495          0.37311982          0.30846286
          0.01159604      15978.64716319       1875.54478842        128.07204513
          0.16731093          0.81399979        -88.83600747
 Total      moments (au):
          0.00000000          0.13507787          1.41102785          0.00097453
        -64.41212092        -80.42187076        -79.70868255         -4.42964469
          0.00743647         -0.00075128         -9.73267193         56.17396633
         -0.01559763         88.44419696        -37.23523571          0.00930580
         60.09466428        -16.92283963         -0.00464232         -0.02876281
     -20511.83650075      -2894.57670347       -333.71945657        262.26095798
          0.26209832         -5.78824620         -0.01047759         -0.02009126
         -0.03426475      -4075.41003098      -3779.57803825       -557.12374721
         -0.05705857          0.02193898         31.64758209
 Traceless Quadrup. (au):
         10.43543716         -5.57431269         -4.86112447         -4.42964469
          0.00743647         -0.00075128
 Charge=              0.0000 electrons
 Dipole moment (field-independent basis, Debye):
    X=              0.3433    Y=              3.5865    Z=              0.0025  Tot=              3.6029
 Quadrupole moment (field-independent basis, Debye-Ang):
   XX=            -86.6365   YY=           -108.1702   ZZ=           -107.2109
   XY=             -5.9580   XZ=              0.0100   YZ=             -0.0010
 Traceless Quadrupole moment (field-independent basis, Debye-Ang):
   XX=             14.0360   YY=             -7.4976   ZZ=             -6.5384
   XY=             -5.9580   XZ=              0.0100   YZ=             -0.0010
 Octapole moment (field-independent basis, Debye-Ang**2):
  XXX=             -6.9273  YYY=             39.9825  ZZZ=             -0.0111  XYY=             62.9512
  XXY=            -26.5026  XXZ=              0.0066  XZZ=             42.7731  YZZ=            -12.0450
  YYZ=             -0.0033  XYZ=             -0.0205
 Hexadecapole moment (field-independent basis, Debye-Ang**3):
 XXXX=          -7725.7407 YYYY=          -1090.2363 ZZZZ=           -125.6947 XXXY=             98.7800
 XXXZ=              0.0987 YYYX=             -2.1801 YYYZ=             -0.0039 ZZZX=             -0.0076
 ZZZY=             -0.0129 XXYY=          -1534.9947 XXZZ=          -1423.5702 YYZZ=           -209.8395
 XXYZ=             -0.0215 YYXZ=              0.0083 ZZXY=             11.9200
 N-N= 1.323112648609D+03 E-N=-1.044325751186D+04  KE= 3.274749918411D+03
 Entering OneElI...
 OneElI was handed   235775347 working-precision words.
 Calculate electrostatic properties
    NBasis =   262  MinDer = 0  MaxDer = 0
    NGrid  =    28  NMatD  =   1
 Requested accuracy = 0.1000D-12
 PrtBox:  NBox=     1 Levels=  1 BoxLen=   32.44 SMaxX=       23.64
          Shift=           14.713105            4.043700            1.677032
 Box      1 Number                   0 centers from      1 to     96:
 ShPair: Thresh= 1.00D-13 NBox=     1 BxSize= 3.24D+01 RnKept= 1.74D+01
         NSMCal=                 4656 NSMKep=                2966
 PrsmSu:  NPrtUS=   1 ThrOK=F IAlg=1 NPAlg=1 LenDen=           0.
 Prism:   IPart=     0 DynPar=F LinDyn=F Incr=         512.
 PRISM was handed   235492773 working-precision words and  2966 shell-pairs
 IPart=  0 NShTot=       83048 NBatch=        3063 AvBLen=        27.1
 PrSmSu:  NxtVal=            513.
 --------------------------------------------------------
       Center         ----      EFG at Nuclei      ----
                      3XX-RR        3YY-RR        3ZZ-RR
 --------------------------------------------------------
     1   Atom       -0.018530     -0.009485      0.028015
     2   Atom       -0.269495      0.011393      0.258102
     3   Atom       -1.658157      0.374439      1.283718
     4   Atom        0.130236      0.385943     -0.516179
     5   Atom        1.665872     -0.811425     -0.854447
     6   Atom        0.099101      0.148268     -0.247369
     7   Atom        0.187678      0.170919     -0.358597
     8   Atom        0.182884      0.142980     -0.325864
     9   Atom        0.162920      0.119820     -0.282740
    10   Atom       -0.047264      0.264406     -0.217142
    11   Atom        0.126379      0.243522     -0.369901
    12   Atom       -0.458196     -0.432617      0.890812
    13   Atom        0.281349      0.223337     -0.504686
    14   Atom        0.837313     -0.156390     -0.680923
    15   Atom       -0.056361     -0.247019      0.303380
    16   Atom       -0.510531     -2.932785      3.443316
    17   Atom       -0.162943      0.008603      0.154340
    18   Atom        0.147229     -0.002012     -0.145217
    19   Atom        0.147224     -0.002994     -0.144230
    20   Atom        0.133481      0.000400     -0.133881
    21   Atom        0.133466     -0.000495     -0.132970
    22   Atom       -0.237735      0.073932      0.163803
    23   Atom        0.136975     -0.303388      0.166412
    24   Atom       -0.148095     -0.021248      0.169343
    25   Atom        0.138752     -0.293851      0.155100
    26   Atom       -0.113270     -0.118599      0.231869
    27   Atom        0.113990      0.031434     -0.145423
    28   Atom        0.113877      0.030613     -0.144490
 --------------------------------------------------------
                        XY            XZ            YZ
 --------------------------------------------------------
     1   Atom        0.026506      0.000066     -0.000066
     2   Atom       -0.331923      0.000083     -0.000138
     3   Atom       -0.113757     -0.001126      0.000644
     4   Atom        0.158181      0.000238     -0.000282
     5   Atom        0.235267      0.001365      0.000078
     6   Atom       -0.081382      0.000068     -0.000031
     7   Atom        0.010334      0.000112      0.000013
     8   Atom        0.015732      0.000095      0.000017
     9   Atom       -0.045221      0.000070      0.000019
    10   Atom        0.167294      0.000021      0.000040
    11   Atom       -0.040293      0.000072     -0.000003
    12   Atom        0.076244     -0.000138     -0.000367
    13   Atom        0.087399      0.000262      0.000186
    14   Atom       -1.219243     -0.000090     -0.000088
    15   Atom       -0.332686      0.000263      0.000513
    16   Atom       -4.428777      0.004015      0.004991
    17   Atom       -0.202218     -0.000035     -0.000043
    18   Atom        0.007108      0.001758     -0.211759
    19   Atom        0.007382     -0.002114      0.212078
    20   Atom       -0.003936      0.011886     -0.205976
    21   Atom       -0.003624     -0.012309      0.206282
    22   Atom        0.166143     -0.000081      0.000037
    23   Atom        0.050184     -0.000004     -0.000006
    24   Atom       -0.211451     -0.000063     -0.000043
    25   Atom        0.042480     -0.000012      0.000019
    26   Atom       -0.253726     -0.000063     -0.000069
    27   Atom        0.051964     -0.091788      0.188625
    28   Atom        0.052286      0.091842     -0.188969
 --------------------------------------------------------


 ---------------------------------------------------------------------------------
              Nuclear Quadrupole Coupling Constant in Principal Axis System
 ---------------------------------------------------------------------------------

       Atom             a.u.   MegaHertz   Gauss  10(-4) cm-1        Axes

              Baa    -0.5227     2.510     0.896     0.837  0.7634 -0.6460 -0.0001
    12 N(14)  Bbb    -0.3681     1.768     0.631     0.590  0.6460  0.7634  0.0003
              Bcc     0.8908    -4.278    -1.527    -1.427 -0.0001 -0.0003  1.0000
 
              Baa    -6.3131   464.287   165.669   154.870  0.6067  0.7949 -0.0007
    16 Br(79) Bbb     2.8697  -211.052   -75.309   -70.399  0.7949 -0.6067 -0.0003
              Bcc     3.4433  -253.235   -90.361   -84.470  0.0006  0.0003  1.0000
 

 ---------------------------------------------------------------------------------

 No NMR shielding tensors so no spin-rotation constants.
 Leave Link  601 at Thu Jan 16 22:40:38 2014, MaxMem=   235929600 cpu:         0.4
 FitSet:  NAtFit=    28 NAtPot=    28 NAtFrz=     0 MDM=    32 TotChg=   0.00000
 Merz-Kollman atomic radii used.
 Atom Element Radius
    1     6    1.50
    2     6    1.50
    3     8    1.40
    4     6    1.50
    5     8    1.40
    6     6    1.50
    7     6    1.50
    8     6    1.50
    9     6    1.50
   10     6    1.50
   11     6    1.50
   12     7    1.50
   13     6    1.50
   14     8    1.40
   15     6    1.50
   16    35    2.30
   17     1    1.20
   18     1    1.20
   19     1    1.20
   20     1    1.20
   21     1    1.20
   22     1    1.20
   23     1    1.20
   24     1    1.20
   25     1    1.20
   26     1    1.20
   27     1    1.20
   28     1    1.20
 Generate VDW surfaces: Layer= 5 Dens= 2 Start= 1.400 Inc= 0.179

 **********************************************************************

            Electrostatic Properties Using The SCF Density

 **********************************************************************

       Atomic Center    1 is at  -6.873118  0.099756  0.000851
       Atomic Center    2 is at  -5.655618 -0.805345 -0.000971
       Atomic Center    3 is at  -4.484859  0.041827 -0.001057
       Atomic Center    4 is at  -3.294633 -0.601096 -0.000187
       Atomic Center    5 is at  -3.192223 -1.811498  0.000342
       Atomic Center    6 is at  -2.138191  0.345984  0.000001
       Atomic Center    7 is at  -2.317492  1.734537 -0.000053
       Atomic Center    8 is at  -1.198139  2.564896  0.000173
       Atomic Center    9 is at   0.082239  2.019594  0.000377
       Atomic Center   10 is at   0.262228  0.626954  0.000376
       Atomic Center   11 is at  -0.855292 -0.215070  0.000240
       Atomic Center   12 is at   1.592300  0.153266  0.000548
       Atomic Center   13 is at   2.034180 -1.134597  0.000235
       Atomic Center   14 is at   1.338372 -2.139834 -0.000167
       Atomic Center   15 is at   3.549425 -1.361632  0.000933
       Atomic Center   16 is at   4.721922  0.237303 -0.000395
       Atomic Center   17 is at  -7.785840 -0.506012  0.000721
       Atomic Center   18 is at  -6.884769  0.739170  0.889491
       Atomic Center   19 is at  -6.885896  0.741224 -0.886292
       Atomic Center   20 is at  -5.622920 -1.450843 -0.884581
       Atomic Center   21 is at  -5.621508 -1.452762  0.881137
       Atomic Center   22 is at  -3.317786  2.150521 -0.000264
       Atomic Center   23 is at  -1.319939  3.644255  0.000186
       Atomic Center   24 is at   0.950873  2.674886  0.000553
       Atomic Center   25 is at  -0.740392 -1.289858  0.000282
       Atomic Center   26 is at   2.314490  0.864576  0.000695
       Atomic Center   27 is at   3.817954 -1.929769  0.890719
       Atomic Center   28 is at   3.818500 -1.931699 -0.887447
      ESP Fit Center   29 is at  -7.232239 -0.522260  1.974205
      ESP Fit Center   30 is at  -6.513997 -0.522260  1.974205
      ESP Fit Center   31 is at  -8.631449  1.188468  0.365512
      ESP Fit Center   32 is at  -8.631449  1.188468 -0.363810
      ESP Fit Center   33 is at  -7.232239 -0.522260 -1.972504
      ESP Fit Center   34 is at  -6.513997 -0.522260 -1.972504
      ESP Fit Center   35 is at  -5.296497 -0.183329  1.972383
      ESP Fit Center   36 is at  -6.901924 -2.455721  0.363690
      ESP Fit Center   37 is at  -6.901924 -2.455721 -0.365632
      ESP Fit Center   38 is at  -5.296497 -0.183329 -1.974326
      ESP Fit Center   39 is at  -4.484859  0.041827  1.958943
      ESP Fit Center   40 is at  -4.109829  0.691398  1.809747
      ESP Fit Center   41 is at  -4.859889  0.691398  1.809747
      ESP Fit Center   42 is at  -4.484859  1.427756  1.384872
      ESP Fit Center   43 is at  -5.177824  1.242077  1.384872
      ESP Fit Center   44 is at  -5.390261  1.610029  0.749002
      ESP Fit Center   45 is at  -5.021238  1.927005 -0.001057
      ESP Fit Center   46 is at  -5.390261  1.610029 -0.751117
      ESP Fit Center   47 is at  -4.484859  1.427756 -1.386986
      ESP Fit Center   48 is at  -5.177824  1.242077 -1.386986
      ESP Fit Center   49 is at  -4.109829  0.691398 -1.811861
      ESP Fit Center   50 is at  -4.859889  0.691398 -1.811861
      ESP Fit Center   51 is at  -4.484859  0.041827 -1.961057
      ESP Fit Center   52 is at  -3.294633 -0.601096  2.099813
      ESP Fit Center   53 is at  -2.576391 -0.601096  1.973167
      ESP Fit Center   54 is at  -2.935512  0.020920  1.973167
      ESP Fit Center   55 is at  -3.653754  0.020920  1.973167
      ESP Fit Center   56 is at  -4.012875 -0.601096  1.973167
      ESP Fit Center   57 is at  -3.653754 -1.223112  1.973167
      ESP Fit Center   58 is at  -2.935512 -1.223112  1.973167
      ESP Fit Center   59 is at  -3.486737  0.735018  1.608506
      ESP Fit Center   60 is at  -2.159064 -1.330882  1.608506
      ESP Fit Center   61 is at  -3.486737  0.735018 -1.608880
      ESP Fit Center   62 is at  -2.159064 -1.330882 -1.608880
      ESP Fit Center   63 is at  -2.576391 -0.601096 -1.973542
      ESP Fit Center   64 is at  -2.935512  0.020920 -1.973542
      ESP Fit Center   65 is at  -3.653754  0.020920 -1.973542
      ESP Fit Center   66 is at  -4.012875 -0.601096 -1.973542
      ESP Fit Center   67 is at  -3.653754 -1.223112 -1.973542
      ESP Fit Center   68 is at  -2.935512 -1.223112 -1.973542
      ESP Fit Center   69 is at  -3.294633 -0.601096 -2.100187
      ESP Fit Center   70 is at  -3.192223 -1.811498  1.960342
      ESP Fit Center   71 is at  -2.442163 -1.811498  1.811146
      ESP Fit Center   72 is at  -3.942282 -1.811498  1.811146
      ESP Fit Center   73 is at  -3.567253 -2.461069  1.811146
      ESP Fit Center   74 is at  -2.817193 -2.461069  1.811146
      ESP Fit Center   75 is at  -1.806294 -1.811498  1.386271
      ESP Fit Center   76 is at  -4.392473 -2.504463  1.386271
      ESP Fit Center   77 is at  -3.885188 -3.011748  1.386271
      ESP Fit Center   78 is at  -3.192223 -3.197427  1.386271
      ESP Fit Center   79 is at  -2.499258 -3.011748  1.386271
      ESP Fit Center   80 is at  -1.991973 -2.504463  1.386271
      ESP Fit Center   81 is at  -4.657194 -2.875862  0.750401
      ESP Fit Center   82 is at  -4.097625 -3.379700  0.750401
      ESP Fit Center   83 is at  -3.381503 -3.612382  0.750401
      ESP Fit Center   84 is at  -2.632654 -3.533675  0.750401
      ESP Fit Center   85 is at  -1.980559 -3.157188  0.750401
      ESP Fit Center   86 is at  -4.858649 -2.843305  0.000342
      ESP Fit Center   87 is at  -4.373387 -3.375612  0.000342
      ESP Fit Center   88 is at  -3.728602 -3.696676  0.000342
      ESP Fit Center   89 is at  -3.011377 -3.763137  0.000342
      ESP Fit Center   90 is at  -2.318576 -3.566018  0.000342
      ESP Fit Center   91 is at  -1.743765 -3.131941  0.000342
      ESP Fit Center   92 is at  -4.657194 -2.875862 -0.749718
      ESP Fit Center   93 is at  -4.097625 -3.379700 -0.749718
      ESP Fit Center   94 is at  -3.381503 -3.612382 -0.749718
      ESP Fit Center   95 is at  -2.632654 -3.533675 -0.749718
      ESP Fit Center   96 is at  -1.980559 -3.157188 -0.749718
      ESP Fit Center   97 is at  -1.806294 -1.811498 -1.385587
      ESP Fit Center   98 is at  -4.392473 -2.504463 -1.385587
      ESP Fit Center   99 is at  -3.885188 -3.011748 -1.385587
      ESP Fit Center  100 is at  -3.192223 -3.197427 -1.385587
      ESP Fit Center  101 is at  -2.499258 -3.011748 -1.385587
      ESP Fit Center  102 is at  -1.991973 -2.504463 -1.385587
      ESP Fit Center  103 is at  -2.442163 -1.811498 -1.810462
      ESP Fit Center  104 is at  -3.942282 -1.811498 -1.810462
      ESP Fit Center  105 is at  -3.567253 -2.461069 -1.810462
      ESP Fit Center  106 is at  -2.817193 -2.461069 -1.810462
      ESP Fit Center  107 is at  -3.192223 -1.811498 -1.959658
      ESP Fit Center  108 is at  -2.138191  0.345984  2.100001
      ESP Fit Center  109 is at  -1.419949  0.345984  1.973355
      ESP Fit Center  110 is at  -1.779070  0.968000  1.973355
      ESP Fit Center  111 is at  -2.497312  0.968000  1.973355
      ESP Fit Center  112 is at  -2.856433  0.345984  1.973355
      ESP Fit Center  113 is at  -2.497312 -0.276032  1.973355
      ESP Fit Center  114 is at  -1.779070 -0.276032  1.973355
      ESP Fit Center  115 is at  -1.419949  0.345984 -1.973354
      ESP Fit Center  116 is at  -1.779070  0.968000 -1.973354
      ESP Fit Center  117 is at  -2.497312  0.968000 -1.973354
      ESP Fit Center  118 is at  -2.856433  0.345984 -1.973354
      ESP Fit Center  119 is at  -2.497312 -0.276032 -1.973354
      ESP Fit Center  120 is at  -1.779070 -0.276032 -1.973354
      ESP Fit Center  121 is at  -2.138191  0.345984 -2.099999
      ESP Fit Center  122 is at  -2.317492  1.734537  2.099947
      ESP Fit Center  123 is at  -1.599250  1.734537  1.973301
      ESP Fit Center  124 is at  -1.958371  2.356553  1.973301
      ESP Fit Center  125 is at  -2.676613  2.356553  1.973301
      ESP Fit Center  126 is at  -3.035734  1.734537  1.973301
      ESP Fit Center  127 is at  -2.676613  1.112521  1.973301
      ESP Fit Center  128 is at  -1.958371  1.112521  1.973301
      ESP Fit Center  129 is at  -2.509596  3.070651  1.608640
      ESP Fit Center  130 is at  -3.201458  2.754689  1.608640
      ESP Fit Center  131 is at  -3.612667  1.354239  1.608640
      ESP Fit Center  132 is at  -2.509596  3.070651 -1.608746
      ESP Fit Center  133 is at  -3.201458  2.754689 -1.608746
      ESP Fit Center  134 is at  -3.612667  1.354239 -1.608746
      ESP Fit Center  135 is at  -1.599250  1.734537 -1.973408
      ESP Fit Center  136 is at  -1.958371  2.356553 -1.973408
      ESP Fit Center  137 is at  -2.676613  2.356553 -1.973408
      ESP Fit Center  138 is at  -3.035734  1.734537 -1.973408
      ESP Fit Center  139 is at  -2.676613  1.112521 -1.973408
      ESP Fit Center  140 is at  -1.958371  1.112521 -1.973408
      ESP Fit Center  141 is at  -2.317492  1.734537 -2.100053
      ESP Fit Center  142 is at  -1.198139  2.564896  2.100173
      ESP Fit Center  143 is at  -0.479897  2.564896  1.973527
      ESP Fit Center  144 is at  -0.839018  3.186912  1.973527
      ESP Fit Center  145 is at  -1.557260  3.186912  1.973527
      ESP Fit Center  146 is at  -1.916381  2.564896  1.973527
      ESP Fit Center  147 is at  -1.557260  1.942880  1.973527
      ESP Fit Center  148 is at  -0.839018  1.942880  1.973527
      ESP Fit Center  149 is at  -0.637389  3.792766  1.608866
      ESP Fit Center  150 is at  -2.082105  3.585048  1.608866
      ESP Fit Center  151 is at   0.018778  3.916419  1.050173
      ESP Fit Center  152 is at  -2.669460  3.633874  1.050173
      ESP Fit Center  153 is at   0.018778  3.916419 -1.049827
      ESP Fit Center  154 is at  -2.669460  3.633874 -1.049827
      ESP Fit Center  155 is at  -0.637389  3.792766 -1.608520
      ESP Fit Center  156 is at  -2.082105  3.585048 -1.608520
      ESP Fit Center  157 is at  -0.479897  2.564896 -1.973182
      ESP Fit Center  158 is at  -0.839018  3.186912 -1.973182
      ESP Fit Center  159 is at  -1.557260  3.186912 -1.973182
      ESP Fit Center  160 is at  -1.916381  2.564896 -1.973182
      ESP Fit Center  161 is at  -1.557260  1.942880 -1.973182
      ESP Fit Center  162 is at  -0.839018  1.942880 -1.973182
      ESP Fit Center  163 is at  -1.198139  2.564896 -2.099827
      ESP Fit Center  164 is at   0.082239  2.019594  2.100377
      ESP Fit Center  165 is at   0.800481  2.019594  1.973731
      ESP Fit Center  166 is at   0.441360  2.641610  1.973731
      ESP Fit Center  167 is at  -0.276882  2.641610  1.973731
      ESP Fit Center  168 is at  -0.636003  2.019594  1.973731
      ESP Fit Center  169 is at  -0.276882  1.397578  1.973731
      ESP Fit Center  170 is at   0.441360  1.397578  1.973731
      ESP Fit Center  171 is at   1.432093  2.019594  1.609070
      ESP Fit Center  172 is at   0.642989  3.247464  1.609070
      ESP Fit Center  173 is at   1.432093  2.019594 -1.608316
      ESP Fit Center  174 is at   0.642989  3.247464 -1.608316
      ESP Fit Center  175 is at   0.800481  2.019594 -1.972978
      ESP Fit Center  176 is at   0.441360  2.641610 -1.972978
      ESP Fit Center  177 is at  -0.276882  2.641610 -1.972978
      ESP Fit Center  178 is at  -0.636003  2.019594 -1.972978
      ESP Fit Center  179 is at  -0.276882  1.397578 -1.972978
      ESP Fit Center  180 is at   0.441360  1.397578 -1.972978
      ESP Fit Center  181 is at   0.082239  2.019594 -2.099623
      ESP Fit Center  182 is at   0.262228  0.626954  2.100376
      ESP Fit Center  183 is at   0.980470  0.626954  1.973730
      ESP Fit Center  184 is at   0.621349  1.248970  1.973730
      ESP Fit Center  185 is at  -0.096893  1.248970  1.973730
      ESP Fit Center  186 is at  -0.456014  0.626954  1.973730
      ESP Fit Center  187 is at  -0.096893  0.004938  1.973730
      ESP Fit Center  188 is at   0.621349  0.004938  1.973730
      ESP Fit Center  189 is at   0.980470  0.626954 -1.972979
      ESP Fit Center  190 is at   0.621349  1.248970 -1.972979
      ESP Fit Center  191 is at  -0.096893  1.248970 -1.972979
      ESP Fit Center  192 is at  -0.456014  0.626954 -1.972979
      ESP Fit Center  193 is at  -0.096893  0.004938 -1.972979
      ESP Fit Center  194 is at   0.621349  0.004938 -1.972979
      ESP Fit Center  195 is at   0.262228  0.626954 -2.099624
      ESP Fit Center  196 is at  -0.855292 -0.215070  2.100240
      ESP Fit Center  197 is at  -0.137050 -0.215070  1.973594
      ESP Fit Center  198 is at  -0.496171  0.406946  1.973594
      ESP Fit Center  199 is at  -1.214413  0.406946  1.973594
      ESP Fit Center  200 is at  -1.573534 -0.215070  1.973594
      ESP Fit Center  201 is at  -1.214413 -0.837086  1.973594
      ESP Fit Center  202 is at  -0.496171 -0.837086  1.973594
      ESP Fit Center  203 is at  -1.739258 -1.235222  1.608933
      ESP Fit Center  204 is at   0.280277 -0.944856  1.608933
      ESP Fit Center  205 is at  -1.739258 -1.235222 -1.608453
      ESP Fit Center  206 is at   0.280277 -0.944856 -1.608453
      ESP Fit Center  207 is at  -0.137050 -0.215070 -1.973115
      ESP Fit Center  208 is at  -0.496171  0.406946 -1.973115
      ESP Fit Center  209 is at  -1.214413  0.406946 -1.973115
      ESP Fit Center  210 is at  -1.573534 -0.215070 -1.973115
      ESP Fit Center  211 is at  -1.214413 -0.837086 -1.973115
      ESP Fit Center  212 is at  -0.496171 -0.837086 -1.973115
      ESP Fit Center  213 is at  -0.855292 -0.215070 -2.099760
      ESP Fit Center  214 is at   1.592300  0.153266  2.100548
      ESP Fit Center  215 is at   1.951421  0.775282  1.973902
      ESP Fit Center  216 is at   1.233179  0.775282  1.973902
      ESP Fit Center  217 is at   0.874058  0.153266  1.973902
      ESP Fit Center  218 is at   1.233179 -0.468750  1.973902
      ESP Fit Center  219 is at   2.153050  1.381136  1.609241
      ESP Fit Center  220 is at   1.400196  1.489380  1.609241
      ESP Fit Center  221 is at   0.708334 -0.866886  1.609241
      ESP Fit Center  222 is at   2.153050  1.381136 -1.608145
      ESP Fit Center  223 is at   1.400196  1.489380 -1.608145
      ESP Fit Center  224 is at   0.708334 -0.866886 -1.608145
      ESP Fit Center  225 is at   1.951421  0.775282 -1.972807
      ESP Fit Center  226 is at   1.233179  0.775282 -1.972807
      ESP Fit Center  227 is at   0.874058  0.153266 -1.972807
      ESP Fit Center  228 is at   1.233179 -0.468750 -1.972807
      ESP Fit Center  229 is at   1.592300  0.153266 -2.099452
      ESP Fit Center  230 is at   2.034180 -1.134597  2.100235
      ESP Fit Center  231 is at   1.315938 -1.134597  1.973589
      ESP Fit Center  232 is at   1.675059 -1.756613  1.973589
      ESP Fit Center  233 is at   2.393301 -1.756613  1.973589
      ESP Fit Center  234 is at   1.315938 -1.134597 -1.973120
      ESP Fit Center  235 is at   1.675059 -1.756613 -1.973120
      ESP Fit Center  236 is at   2.393301 -1.756613 -1.973120
      ESP Fit Center  237 is at   2.034180 -1.134597 -2.099765
      ESP Fit Center  238 is at   1.338372 -2.139834  1.959833
      ESP Fit Center  239 is at   0.963342 -1.490263  1.810637
      ESP Fit Center  240 is at   0.588313 -2.139834  1.810637
      ESP Fit Center  241 is at   0.963342 -2.789405  1.810637
      ESP Fit Center  242 is at   1.713402 -2.789405  1.810637
      ESP Fit Center  243 is at  -0.047557 -2.139834  1.385762
      ESP Fit Center  244 is at   0.138122 -2.832799  1.385762
      ESP Fit Center  245 is at   0.645407 -3.340084  1.385762
      ESP Fit Center  246 is at   1.338372 -3.525763  1.385762
      ESP Fit Center  247 is at   2.031337 -3.340084  1.385762
      ESP Fit Center  248 is at  -0.126599 -3.204198  0.749892
      ESP Fit Center  249 is at   0.432970 -3.708036  0.749892
      ESP Fit Center  250 is at   1.149091 -3.940718  0.749892
      ESP Fit Center  251 is at   1.897941 -3.862011  0.749892
      ESP Fit Center  252 is at   2.550036 -3.485524  0.749892
      ESP Fit Center  253 is at  -0.328054 -3.171641 -0.000167
      ESP Fit Center  254 is at   0.157208 -3.703948 -0.000167
      ESP Fit Center  255 is at   0.801993 -4.025012 -0.000167
      ESP Fit Center  256 is at   1.519218 -4.091473 -0.000167
      ESP Fit Center  257 is at   2.212019 -3.894354 -0.000167
      ESP Fit Center  258 is at   2.786830 -3.460277 -0.000167
      ESP Fit Center  259 is at  -0.126599 -3.204198 -0.750227
      ESP Fit Center  260 is at   0.432970 -3.708036 -0.750227
      ESP Fit Center  261 is at   1.149091 -3.940718 -0.750227
      ESP Fit Center  262 is at   1.897941 -3.862011 -0.750227
      ESP Fit Center  263 is at   2.550036 -3.485524 -0.750227
      ESP Fit Center  264 is at  -0.047557 -2.139834 -1.386096
      ESP Fit Center  265 is at   0.138122 -2.832799 -1.386096
      ESP Fit Center  266 is at   0.645407 -3.340084 -1.386096
      ESP Fit Center  267 is at   1.338372 -3.525763 -1.386096
      ESP Fit Center  268 is at   2.031337 -3.340084 -1.386096
      ESP Fit Center  269 is at   0.963342 -1.490263 -1.810971
      ESP Fit Center  270 is at   0.588313 -2.139834 -1.810971
      ESP Fit Center  271 is at   0.963342 -2.789405 -1.810971
      ESP Fit Center  272 is at   1.713402 -2.789405 -1.810971
      ESP Fit Center  273 is at   1.338372 -2.139834 -1.960167
      ESP Fit Center  274 is at   2.983464 -3.350780  0.365594
      ESP Fit Center  275 is at   2.983464 -3.350780 -0.363728
      ESP Fit Center  276 is at   4.721922  0.237303  3.219605
      ESP Fit Center  277 is at   5.438439  0.237303  3.138873
      ESP Fit Center  278 is at   5.080181  0.857825  3.138873
      ESP Fit Center  279 is at   4.363663  0.857825  3.138873
      ESP Fit Center  280 is at   4.005405  0.237303  3.138873
      ESP Fit Center  281 is at   4.363663 -0.383219  3.138873
      ESP Fit Center  282 is at   5.080181 -0.383219  3.138873
      ESP Fit Center  283 is at   6.119028  0.237303  2.900725
      ESP Fit Center  284 is at   5.931851  0.935856  2.900725
      ESP Fit Center  285 is at   5.420475  1.447232  2.900725
      ESP Fit Center  286 is at   4.721922  1.634409  2.900725
      ESP Fit Center  287 is at   4.023369  1.447232  2.900725
      ESP Fit Center  288 is at   3.511993  0.935856  2.900725
      ESP Fit Center  289 is at   3.324816  0.237303  2.900725
      ESP Fit Center  290 is at   3.511993 -0.461250  2.900725
      ESP Fit Center  291 is at   4.023369 -0.972626  2.900725
      ESP Fit Center  292 is at   4.721922 -1.159803  2.900725
      ESP Fit Center  293 is at   5.420475 -0.972626  2.900725
      ESP Fit Center  294 is at   5.931851 -0.461250  2.900725
      ESP Fit Center  295 is at   6.729559  0.237303  2.517102
      ESP Fit Center  296 is at   6.593988  0.962545  2.517102
      ESP Fit Center  297 is at   6.205584  1.589839  2.517102
      ESP Fit Center  298 is at   5.616803  2.034466  2.517102
      ESP Fit Center  299 is at   4.907163  2.236376  2.517102
      ESP Fit Center  300 is at   4.172506  2.168300  2.517102
      ESP Fit Center  301 is at   3.512050  1.839432  2.517102
      ESP Fit Center  302 is at   3.014995  1.294188  2.517102
      ESP Fit Center  303 is at   2.748469  0.606205  2.517102
      ESP Fit Center  304 is at   2.748469 -0.131599  2.517102
      ESP Fit Center  305 is at   3.014995 -0.819582  2.517102
      ESP Fit Center  306 is at   3.512050 -1.364826  2.517102
      ESP Fit Center  307 is at   4.172506 -1.693694  2.517102
      ESP Fit Center  308 is at   4.907163 -1.761770  2.517102
      ESP Fit Center  309 is at   5.616803 -1.559860  2.517102
      ESP Fit Center  310 is at   6.205584 -1.115233  2.517102
      ESP Fit Center  311 is at   6.593988 -0.487939  2.517102
      ESP Fit Center  312 is at   7.239419  0.237303  2.007242
      ESP Fit Center  313 is at   7.127574  0.979348  2.007242
      ESP Fit Center  314 is at   6.801976  1.655460  2.007242
      ESP Fit Center  315 is at   6.291556  2.205562  2.007242
      ESP Fit Center  316 is at   5.641667  2.580775  2.007242
      ESP Fit Center  317 is at   4.910055  2.747761  2.007242
      ESP Fit Center  318 is at   4.161726  2.691681  2.007242
      ESP Fit Center  319 is at   3.463173  2.417520  2.007242
      ESP Fit Center  320 is at   2.876466  1.949636  2.007242
      ESP Fit Center  321 is at   2.453735  1.329604  2.007242
      ESP Fit Center  322 is at   2.232543  0.612516  2.007242
      ESP Fit Center  323 is at   2.232543 -0.137911  2.007242
      ESP Fit Center  324 is at   5.641667 -2.106169  2.007242
      ESP Fit Center  325 is at   6.291556 -1.730956  2.007242
      ESP Fit Center  326 is at   6.801976 -1.180854  2.007242
      ESP Fit Center  327 is at   7.127574 -0.504742  2.007242
      ESP Fit Center  328 is at   7.623042  0.237303  1.396711
      ESP Fit Center  329 is at   7.531898  0.958782  1.396711
      ESP Fit Center  330 is at   7.264193  1.634928  1.396711
      ESP Fit Center  331 is at   6.836747  2.223256  1.396711
      ESP Fit Center  332 is at   6.276420  2.686799  1.396711
      ESP Fit Center  333 is at   5.618417  2.996432  1.396711
      ESP Fit Center  334 is at   4.904085  3.132698  1.396711
      ESP Fit Center  335 is at   4.178306  3.087036  1.396711
      ESP Fit Center  336 is at   3.486685  2.862315  1.396711
      ESP Fit Center  337 is at   2.872679  2.472654  1.396711
      ESP Fit Center  338 is at   2.374867  1.942538  1.396711
      ESP Fit Center  339 is at   5.618417 -2.521826  1.396711
      ESP Fit Center  340 is at   6.276420 -2.212193  1.396711
      ESP Fit Center  341 is at   6.836747 -1.748650  1.396711
      ESP Fit Center  342 is at   7.264193 -1.160322  1.396711
      ESP Fit Center  343 is at   7.531898 -0.484176  1.396711
      ESP Fit Center  344 is at   7.861190  0.237303  0.716122
      ESP Fit Center  345 is at   7.776571  0.961268  0.716122
      ESP Fit Center  346 is at   7.527274  1.646204  0.716122
      ESP Fit Center  347 is at   7.126741  2.255185  0.716122
      ESP Fit Center  348 is at   6.596563  2.755383  0.716122
      ESP Fit Center  349 is at   5.965323  3.119829  0.716122
      ESP Fit Center  350 is at   5.267050  3.328878  0.716122
      ESP Fit Center  351 is at   4.539390  3.371260  0.716122
      ESP Fit Center  352 is at   3.821570  3.244689  0.716122
      ESP Fit Center  353 is at   3.152288  2.955989  0.716122
      ESP Fit Center  354 is at   2.567626  2.520724  0.716122
      ESP Fit Center  355 is at   5.267050 -2.854272  0.716122
      ESP Fit Center  356 is at   5.965323 -2.645223  0.716122
      ESP Fit Center  357 is at   6.596563 -2.280777  0.716122
      ESP Fit Center  358 is at   7.126741 -1.780580  0.716122
      ESP Fit Center  359 is at   7.527274 -1.171598  0.716122
      ESP Fit Center  360 is at   7.776571 -0.486662  0.716122
      ESP Fit Center  361 is at   7.941922  0.237303 -0.000395
      ESP Fit Center  362 is at   7.861190  0.953820 -0.000395
      ESP Fit Center  363 is at   7.623042  1.634409 -0.000395
      ESP Fit Center  364 is at   7.239419  2.244940 -0.000395
      ESP Fit Center  365 is at   6.729559  2.754800 -0.000395
      ESP Fit Center  366 is at   6.119028  3.138423 -0.000395
      ESP Fit Center  367 is at   5.438439  3.376571 -0.000395
      ESP Fit Center  368 is at   4.721922  3.457303 -0.000395
      ESP Fit Center  369 is at   4.005405  3.376571 -0.000395
      ESP Fit Center  370 is at   3.324816  3.138423 -0.000395
      ESP Fit Center  371 is at   2.714285  2.754800 -0.000395
      ESP Fit Center  372 is at   5.438439 -2.901965 -0.000395
      ESP Fit Center  373 is at   6.119028 -2.663817 -0.000395
      ESP Fit Center  374 is at   6.729559 -2.280194 -0.000395
      ESP Fit Center  375 is at   7.239419 -1.770334 -0.000395
      ESP Fit Center  376 is at   7.623042 -1.159803 -0.000395
      ESP Fit Center  377 is at   7.861190 -0.479214 -0.000395
      ESP Fit Center  378 is at   7.861190  0.237303 -0.716912
      ESP Fit Center  379 is at   7.776571  0.961268 -0.716912
      ESP Fit Center  380 is at   7.527274  1.646204 -0.716912
      ESP Fit Center  381 is at   7.126741  2.255185 -0.716912
      ESP Fit Center  382 is at   6.596563  2.755383 -0.716912
      ESP Fit Center  383 is at   5.965323  3.119829 -0.716912
      ESP Fit Center  384 is at   5.267050  3.328878 -0.716912
      ESP Fit Center  385 is at   4.539390  3.371260 -0.716912
      ESP Fit Center  386 is at   3.821570  3.244689 -0.716912
      ESP Fit Center  387 is at   3.152288  2.955989 -0.716912
      ESP Fit Center  388 is at   2.567626  2.520724 -0.716912
      ESP Fit Center  389 is at   5.267050 -2.854272 -0.716912
      ESP Fit Center  390 is at   5.965323 -2.645223 -0.716912
      ESP Fit Center  391 is at   6.596563 -2.280777 -0.716912
      ESP Fit Center  392 is at   7.126741 -1.780580 -0.716912
      ESP Fit Center  393 is at   7.527274 -1.171598 -0.716912
      ESP Fit Center  394 is at   7.776571 -0.486662 -0.716912
      ESP Fit Center  395 is at   7.623042  0.237303 -1.397501
      ESP Fit Center  396 is at   7.531898  0.958782 -1.397501
      ESP Fit Center  397 is at   7.264193  1.634928 -1.397501
      ESP Fit Center  398 is at   6.836747  2.223256 -1.397501
      ESP Fit Center  399 is at   6.276420  2.686799 -1.397501
      ESP Fit Center  400 is at   5.618417  2.996432 -1.397501
      ESP Fit Center  401 is at   4.904085  3.132698 -1.397501
      ESP Fit Center  402 is at   4.178306  3.087036 -1.397501
      ESP Fit Center  403 is at   3.486685  2.862315 -1.397501
      ESP Fit Center  404 is at   2.872679  2.472654 -1.397501
      ESP Fit Center  405 is at   2.374867  1.942538 -1.397501
      ESP Fit Center  406 is at   5.618417 -2.521826 -1.397501
      ESP Fit Center  407 is at   6.276420 -2.212193 -1.397501
      ESP Fit Center  408 is at   6.836747 -1.748650 -1.397501
      ESP Fit Center  409 is at   7.264193 -1.160322 -1.397501
      ESP Fit Center  410 is at   7.531898 -0.484176 -1.397501
      ESP Fit Center  411 is at   7.239419  0.237303 -2.008032
      ESP Fit Center  412 is at   7.127574  0.979348 -2.008032
      ESP Fit Center  413 is at   6.801976  1.655460 -2.008032
      ESP Fit Center  414 is at   6.291556  2.205562 -2.008032
      ESP Fit Center  415 is at   5.641667  2.580775 -2.008032
      ESP Fit Center  416 is at   4.910055  2.747761 -2.008032
      ESP Fit Center  417 is at   4.161726  2.691681 -2.008032
      ESP Fit Center  418 is at   3.463173  2.417520 -2.008032
      ESP Fit Center  419 is at   2.876466  1.949636 -2.008032
      ESP Fit Center  420 is at   2.453735  1.329604 -2.008032
      ESP Fit Center  421 is at   2.232543  0.612516 -2.008032
      ESP Fit Center  422 is at   2.232543 -0.137911 -2.008032
      ESP Fit Center  423 is at   5.641667 -2.106169 -2.008032
      ESP Fit Center  424 is at   6.291556 -1.730956 -2.008032
      ESP Fit Center  425 is at   6.801976 -1.180854 -2.008032
      ESP Fit Center  426 is at   7.127574 -0.504742 -2.008032
      ESP Fit Center  427 is at   6.729559  0.237303 -2.517892
      ESP Fit Center  428 is at   6.593988  0.962545 -2.517892
      ESP Fit Center  429 is at   6.205584  1.589839 -2.517892
      ESP Fit Center  430 is at   5.616803  2.034466 -2.517892
      ESP Fit Center  431 is at   4.907163  2.236376 -2.517892
      ESP Fit Center  432 is at   4.172506  2.168300 -2.517892
      ESP Fit Center  433 is at   3.512050  1.839432 -2.517892
      ESP Fit Center  434 is at   3.014995  1.294188 -2.517892
      ESP Fit Center  435 is at   2.748469  0.606205 -2.517892
      ESP Fit Center  436 is at   2.748469 -0.131599 -2.517892
      ESP Fit Center  437 is at   3.014995 -0.819582 -2.517892
      ESP Fit Center  438 is at   3.512050 -1.364826 -2.517892
      ESP Fit Center  439 is at   4.172506 -1.693694 -2.517892
      ESP Fit Center  440 is at   4.907163 -1.761770 -2.517892
      ESP Fit Center  441 is at   5.616803 -1.559860 -2.517892
      ESP Fit Center  442 is at   6.205584 -1.115233 -2.517892
      ESP Fit Center  443 is at   6.593988 -0.487939 -2.517892
      ESP Fit Center  444 is at   6.119028  0.237303 -2.901515
      ESP Fit Center  445 is at   5.931851  0.935856 -2.901515
      ESP Fit Center  446 is at   5.420475  1.447232 -2.901515
      ESP Fit Center  447 is at   4.721922  1.634409 -2.901515
      ESP Fit Center  448 is at   4.023369  1.447232 -2.901515
      ESP Fit Center  449 is at   3.511993  0.935856 -2.901515
      ESP Fit Center  450 is at   3.324816  0.237303 -2.901515
      ESP Fit Center  451 is at   3.511993 -0.461250 -2.901515
      ESP Fit Center  452 is at   4.023369 -0.972626 -2.901515
      ESP Fit Center  453 is at   4.721922 -1.159803 -2.901515
      ESP Fit Center  454 is at   5.420475 -0.972626 -2.901515
      ESP Fit Center  455 is at   5.931851 -0.461250 -2.901515
      ESP Fit Center  456 is at   5.438439  0.237303 -3.139663
      ESP Fit Center  457 is at   5.080181  0.857825 -3.139663
      ESP Fit Center  458 is at   4.363663  0.857825 -3.139663
      ESP Fit Center  459 is at   4.005405  0.237303 -3.139663
      ESP Fit Center  460 is at   4.363663 -0.383219 -3.139663
      ESP Fit Center  461 is at   5.080181 -0.383219 -3.139663
      ESP Fit Center  462 is at   4.721922  0.237303 -3.220395
      ESP Fit Center  463 is at  -8.514765 -0.506012  1.514349
      ESP Fit Center  464 is at  -8.150302 -1.137279  1.514349
      ESP Fit Center  465 is at  -8.848465  0.266030  1.048184
      ESP Fit Center  466 is at  -9.099317 -0.506012  1.048184
      ESP Fit Center  467 is at  -8.848465 -1.278054  1.048184
      ESP Fit Center  468 is at  -8.191727 -1.755203  1.048184
      ESP Fit Center  469 is at  -7.379953 -1.755203  1.048184
      ESP Fit Center  470 is at  -9.011810  0.580103  0.374556
      ESP Fit Center  471 is at  -9.376125 -0.114042  0.374556
      ESP Fit Center  472 is at  -9.376125 -0.897982  0.374556
      ESP Fit Center  473 is at  -9.011810 -1.592127  0.374556
      ESP Fit Center  474 is at  -8.366640 -2.037455  0.374556
      ESP Fit Center  475 is at  -7.588415 -2.131949  0.374556
      ESP Fit Center  476 is at  -9.011810  0.580103 -0.373114
      ESP Fit Center  477 is at  -9.376125 -0.114042 -0.373114
      ESP Fit Center  478 is at  -9.376125 -0.897982 -0.373114
      ESP Fit Center  479 is at  -9.011810 -1.592127 -0.373114
      ESP Fit Center  480 is at  -8.366640 -2.037455 -0.373114
      ESP Fit Center  481 is at  -7.588415 -2.131949 -0.373114
      ESP Fit Center  482 is at  -8.848465  0.266030 -1.046742
      ESP Fit Center  483 is at  -9.099317 -0.506012 -1.046742
      ESP Fit Center  484 is at  -8.848465 -1.278054 -1.046742
      ESP Fit Center  485 is at  -8.191727 -1.755203 -1.046742
      ESP Fit Center  486 is at  -7.379953 -1.755203 -1.046742
      ESP Fit Center  487 is at  -8.514765 -0.506012 -1.512907
      ESP Fit Center  488 is at  -8.150302 -1.137279 -1.512907
      ESP Fit Center  489 is at  -6.884769  0.739170  2.569491
      ESP Fit Center  490 is at  -6.155844  0.739170  2.403119
      ESP Fit Center  491 is at  -6.520307  1.370437  2.403119
      ESP Fit Center  492 is at  -7.249231  1.370437  2.403119
      ESP Fit Center  493 is at  -7.613694  0.739170  2.403119
      ESP Fit Center  494 is at  -7.249231  0.107903  2.403119
      ESP Fit Center  495 is at  -6.520307  0.107903  2.403119
      ESP Fit Center  496 is at  -5.571292  0.739170  1.936954
      ESP Fit Center  497 is at  -5.822144  1.511212  1.936954
      ESP Fit Center  498 is at  -6.478882  1.988361  1.936954
      ESP Fit Center  499 is at  -7.290656  1.988361  1.936954
      ESP Fit Center  500 is at  -7.947394  1.511212  1.936954
      ESP Fit Center  501 is at  -8.198246  0.739170  1.936954
      ESP Fit Center  502 is at  -7.947394 -0.032872  1.936954
      ESP Fit Center  503 is at  -5.434499  1.500330  1.263326
      ESP Fit Center  504 is at  -5.954348  2.087118  1.263326
      ESP Fit Center  505 is at  -6.687344  2.365107  1.263326
      ESP Fit Center  506 is at  -7.465569  2.270613  1.263326
      ESP Fit Center  507 is at  -8.110739  1.825285  1.263326
      ESP Fit Center  508 is at  -8.475054  1.131140  1.263326
      ESP Fit Center  509 is at  -5.954348  2.087118  0.515656
      ESP Fit Center  510 is at  -6.687344  2.365107  0.515656
      ESP Fit Center  511 is at  -7.465569  2.270613  0.515656
[...]
 3579 Fit      -0.019088
 3580 Fit      -0.011823
 3581 Fit      -0.020201
 3582 Fit      -0.022445
 3583 Fit      -0.021364
 3584 Fit      -0.017200
 3585 Fit      -0.009750
 3586 Fit      -0.015151
 3587 Fit      -0.015744
 3588 Fit      -0.009370
 3589 Fit      -0.008980
 3590 Fit      -0.003042
 3591 Fit      -0.001740
 3592 Fit      -0.003046
 3593 Fit       0.001778
 3594 Fit       0.001495
 3595 Fit       0.001528
 3596 Fit       0.001809
 3597 Fit       0.002000
 3598 Fit       0.002215
 3599 Fit       0.001959
 3600 Fit       0.001212
 3601 Fit       0.001201
 3602 Fit       0.001476
 3603 Fit       0.001847
 3604 Fit       0.002097
 3605 Fit       0.002097
 3606 Fit       0.002071
 3607 Fit       0.002353
 3608 Fit       0.002796
 3609 Fit       0.002841
 3610 Fit       0.002305
 3611 Fit       0.001619
 3612 Fit       0.000964
 3613 Fit       0.000973
 3614 Fit       0.001217
 3615 Fit       0.001605
 3616 Fit       0.002056
 3617 Fit       0.002471
 3618 Fit       0.002688
 3619 Fit       0.002555
 3620 Fit       0.002149
 3621 Fit       0.001850
 3622 Fit       0.001996
 3623 Fit       0.002620
 3624 Fit       0.003415
 3625 Fit       0.003824
 3626 Fit       0.003534
 3627 Fit       0.002759
 3628 Fit       0.001907
 3629 Fit       0.001270
 3630 Fit       0.000769
 3631 Fit       0.000819
 3632 Fit       0.001060
 3633 Fit       0.001430
 3634 Fit       0.001883
 3635 Fit       0.002391
 3636 Fit       0.002924
 3637 Fit       0.003399
 3638 Fit       0.003643
 3639 Fit       0.003438
 3640 Fit       0.002726
 3641 Fit       0.001796
 3642 Fit       0.001131
 3643 Fit       0.001022
 3644 Fit       0.001501
 3645 Fit       0.002536
 3646 Fit       0.003840
 3647 Fit       0.004769
 3648 Fit       0.004868
 3649 Fit       0.004233
 3650 Fit       0.003251
 3651 Fit       0.002263
 3652 Fit       0.001475
 3653 Fit       0.000974
 3654 Fit       0.000630
 3655 Fit       0.000732
 3656 Fit       0.001002
 3657 Fit       0.001384
 3658 Fit       0.001841
 3659 Fit       0.002355
 3660 Fit       0.002929
 3661 Fit       0.003567
 3662 Fit       0.004240
 3663 Fit       0.004822
 3664 Fit       0.005052
 3665 Fit       0.004588
 3666 Fit       0.003306
 3667 Fit       0.001584
 3668 Fit       0.000112
 3669 Fit      -0.000673
 3670 Fit      -0.000831
 3671 Fit      -0.000438
 3672 Fit       0.000808
 3673 Fit       0.002872
 3674 Fit       0.004902
 3675 Fit       0.005978
 3676 Fit       0.005899
 3677 Fit       0.005051
 3678 Fit       0.003900
 3679 Fit       0.002765
 3680 Fit       0.001818
 3681 Fit       0.001140
 3682 Fit       0.000751
 3683 Fit       0.000541
 3684 Fit       0.000698
 3685 Fit       0.001007
 3686 Fit       0.001419
 3687 Fit       0.001896
 3688 Fit       0.002420
 3689 Fit       0.002997
 3690 Fit       0.003654
 3691 Fit       0.004425
 3692 Fit       0.005319
 3693 Fit       0.006255
 3694 Fit       0.006968
 3695 Fit       0.006933
 3696 Fit       0.005562
 3697 Fit       0.002887
 3698 Fit      -0.000101
 3699 Fit      -0.004076
 3700 Fit      -0.004416
 3701 Fit      -0.001956
 3702 Fit       0.001850
 3703 Fit       0.005150
 3704 Fit       0.006790
 3705 Fit       0.006839
 3706 Fit       0.005947
 3707 Fit       0.004695
 3708 Fit       0.003427
 3709 Fit       0.002322
 3710 Fit       0.001464
 3711 Fit       0.000888
 3712 Fit       0.000590
 3713 Fit       0.000493
 3714 Fit       0.000693
 3715 Fit       0.001031
 3716 Fit       0.001462
 3717 Fit       0.001949
 3718 Fit       0.002473
 3719 Fit       0.003035
 3720 Fit       0.003659
 3721 Fit       0.004390
 3722 Fit       0.005289
 3723 Fit       0.006410
 3724 Fit       0.007753
 3725 Fit       0.009153
 3726 Fit       0.010064
 3727 Fit       0.006929
 3728 Fit       0.007298
 3729 Fit       0.006544
 3730 Fit       0.005334
 3731 Fit       0.004042
 3732 Fit       0.002857
 3733 Fit       0.001877
 3734 Fit       0.001150
 3735 Fit       0.000686
 3736 Fit       0.000477
 3737 Fit       0.000472
 3738 Fit       0.000708
 3739 Fit       0.001072
 3740 Fit       0.001522
 3741 Fit       0.002025
 3742 Fit       0.002557
 3743 Fit       0.003117
 3744 Fit       0.003721
 3745 Fit       0.004415
 3746 Fit       0.005265
 3747 Fit       0.006362
 3748 Fit       0.007813
 3749 Fit       0.009708
 3750 Fit       0.012029
 3751 Fit       0.007054
 3752 Fit       0.006887
 3753 Fit       0.005950
 3754 Fit       0.004741
 3755 Fit       0.003525
 3756 Fit       0.002442
 3757 Fit       0.001567
 3758 Fit       0.000935
 3759 Fit       0.000553
 3760 Fit       0.000408
 3761 Fit       0.000466
 3762 Fit       0.000735
 3763 Fit       0.001132
 3764 Fit       0.001613
 3765 Fit       0.002144
 3766 Fit       0.002701
 3767 Fit       0.003280
 3768 Fit       0.003900
 3769 Fit       0.004608
 3770 Fit       0.005480
 3771 Fit       0.006632
 3772 Fit       0.008220
 3773 Fit       0.010462
 3774 Fit       0.013659
 3775 Fit       0.004795
 3776 Fit       0.006534
 3777 Fit       0.006517
 3778 Fit       0.005674
 3779 Fit       0.004522
 3780 Fit       0.003342
 3781 Fit       0.002288
 3782 Fit       0.001440
 3783 Fit       0.000836
 3784 Fit       0.000483
 3785 Fit       0.000370
 3786 Fit       0.000466
 3787 Fit       0.000748
 3788 Fit       0.001154
 3789 Fit       0.001644
 3790 Fit       0.002182
 3791 Fit       0.002744
 3792 Fit       0.003325
 3793 Fit       0.003941
 3794 Fit       0.004636
 3795 Fit       0.005485
 3796 Fit       0.006604
 3797 Fit       0.008162
 3798 Fit       0.010415
 3799 Fit       0.013803
 3800 Fit       0.004603
 3801 Fit       0.006237
 3802 Fit       0.006215
 3803 Fit       0.005406
 3804 Fit       0.004298
 3805 Fit       0.003162
 3806 Fit       0.002150
 3807 Fit       0.001340
 3808 Fit       0.000769
 3809 Fit       0.000444
 3810 Fit       0.000352
 3811 Fit       0.000466
 3812 Fit       0.000747
 3813 Fit       0.001154
 3814 Fit       0.001644
 3815 Fit       0.002182
 3816 Fit       0.002744
 3817 Fit       0.003325
 3818 Fit       0.003941
 3819 Fit       0.004636
 3820 Fit       0.005485
 3821 Fit       0.006603
 3822 Fit       0.008160
 3823 Fit       0.010413
 3824 Fit       0.013800
 3825 Fit       0.004605
 3826 Fit       0.006237
 3827 Fit       0.006215
 3828 Fit       0.005405
 3829 Fit       0.004297
 3830 Fit       0.003161
 3831 Fit       0.002149
 3832 Fit       0.001339
 3833 Fit       0.000768
 3834 Fit       0.000443
 3835 Fit       0.000352
 3836 Fit       0.000465
 3837 Fit       0.000734
 3838 Fit       0.001131
 3839 Fit       0.001613
 3840 Fit       0.002144
 3841 Fit       0.002701
 3842 Fit       0.003280
 3843 Fit       0.003900
 3844 Fit       0.004607
 3845 Fit       0.005479
 3846 Fit       0.006629
 3847 Fit       0.008216
 3848 Fit       0.010456
 3849 Fit       0.013649
 3850 Fit       0.004796
 3851 Fit       0.006533
 3852 Fit       0.006514
 3853 Fit       0.005670
 3854 Fit       0.004518
 3855 Fit       0.003338
 3856 Fit       0.002284
 3857 Fit       0.001437
 3858 Fit       0.000833
 3859 Fit       0.000481
 3860 Fit       0.000368
 3861 Fit       0.000470
 3862 Fit       0.000706
 3863 Fit       0.001071
 3864 Fit       0.001521
 3865 Fit       0.002024
 3866 Fit       0.002557
 3867 Fit       0.003116
 3868 Fit       0.003720
 3869 Fit       0.004413
 3870 Fit       0.005262
 3871 Fit       0.006358
 3872 Fit       0.007806
 3873 Fit       0.009698
 3874 Fit       0.012013
 3875 Fit       0.007047
 3876 Fit       0.006879
 3877 Fit       0.005942
 3878 Fit       0.004733
 3879 Fit       0.003517
 3880 Fit       0.002435
 3881 Fit       0.001562
 3882 Fit       0.000931
 3883 Fit       0.000549
 3884 Fit       0.000405
 3885 Fit       0.000490
 3886 Fit       0.000691
 3887 Fit       0.001029
 3888 Fit       0.001460
 3889 Fit       0.001948
 3890 Fit       0.002472
 3891 Fit       0.003033
 3892 Fit       0.003656
 3893 Fit       0.004386
 3894 Fit       0.005284
 3895 Fit       0.006402
 3896 Fit       0.007741
 3897 Fit       0.009136
 3898 Fit       0.010042
 3899 Fit       0.006907
 3900 Fit       0.007280
 3901 Fit       0.006529
 3902 Fit       0.005321
 3903 Fit       0.004030
 3904 Fit       0.002847
 3905 Fit       0.001869
 3906 Fit       0.001143
 3907 Fit       0.000681
 3908 Fit       0.000473
 3909 Fit       0.000536
 3910 Fit       0.000694
 3911 Fit       0.001004
 3912 Fit       0.001417
 3913 Fit       0.001893
 3914 Fit       0.002417
 3915 Fit       0.002993
 3916 Fit       0.003649
 3917 Fit       0.004418
 3918 Fit       0.005309
 3919 Fit       0.006241
 3920 Fit       0.006951
 3921 Fit       0.006911
 3922 Fit       0.005538
 3923 Fit       0.002865
 3924 Fit      -0.000120
 3925 Fit      -0.004106
 3926 Fit      -0.004459
 3927 Fit      -0.002002
 3928 Fit       0.001803
 3929 Fit       0.005108
 3930 Fit       0.006755
 3931 Fit       0.006811
 3932 Fit       0.005925
 3933 Fit       0.004677
 3934 Fit       0.003412
 3935 Fit       0.002309
 3936 Fit       0.001454
 3937 Fit       0.000880
 3938 Fit       0.000583
 3939 Fit       0.000622
 3940 Fit       0.000726
 3941 Fit       0.000997
 3942 Fit       0.001380
 3943 Fit       0.001836
 3944 Fit       0.002350
 3945 Fit       0.002922
 3946 Fit       0.003558
 3947 Fit       0.004228
 3948 Fit       0.004808
 3949 Fit       0.005033
 3950 Fit       0.004567
 3951 Fit       0.003283
 3952 Fit       0.001562
 3953 Fit       0.000089
 3954 Fit      -0.000700
 3955 Fit      -0.000863
 3956 Fit      -0.000478
 3957 Fit       0.000763
 3958 Fit       0.002825
 3959 Fit       0.004856
 3960 Fit       0.005938
 3961 Fit       0.005867
 3962 Fit       0.005024
 3963 Fit       0.003879
 3964 Fit       0.002747
 3965 Fit       0.001805
 3966 Fit       0.001129
 3967 Fit       0.000742
 3968 Fit       0.000759
 3969 Fit       0.000811
 3970 Fit       0.001053
 3971 Fit       0.001423
 3972 Fit       0.001875
 3973 Fit       0.002382
 3974 Fit       0.002913
 3975 Fit       0.003385
 3976 Fit       0.003625
 3977 Fit       0.003418
 3978 Fit       0.002703
 3979 Fit       0.001771
 3980 Fit       0.001104
 3981 Fit       0.000990
 3982 Fit       0.001463
 3983 Fit       0.002494
 3984 Fit       0.003797
 3985 Fit       0.004728
 3986 Fit       0.004832
 3987 Fit       0.004204
 3988 Fit       0.003228
 3989 Fit       0.002245
 3990 Fit       0.001460
 3991 Fit       0.000962
 3992 Fit       0.000952
 3993 Fit       0.000963
 3994 Fit       0.001207
 3995 Fit       0.001594
 3996 Fit       0.002044
 3997 Fit       0.002456
 3998 Fit       0.002670
 3999 Fit       0.002533
 4000 Fit       0.002125
 4001 Fit       0.001822
 4002 Fit       0.001964
 4003 Fit       0.002583
 4004 Fit       0.003377
 4005 Fit       0.003788
 4006 Fit       0.003504
 4007 Fit       0.002735
 4008 Fit       0.001888
 4009 Fit       0.001255
 4010 Fit       0.001196
 4011 Fit       0.001187
 4012 Fit       0.001462
 4013 Fit       0.001831
 4014 Fit       0.002078
 4015 Fit       0.002074
 4016 Fit       0.002044
 4017 Fit       0.002322
 4018 Fit       0.002764
 4019 Fit       0.002811
 4020 Fit       0.002281
 4021 Fit       0.001599
 4022 Fit       0.001476
 4023 Fit       0.001511
 4024 Fit       0.001788
 4025 Fit       0.001975
 4026 Fit       0.002188
 4027 Fit       0.001935
 4028 Fit       0.001755
 4029 Fit       0.005218
 4030 Fit       0.005553
 4031 Fit       0.005297
 4032 Fit       0.005646
 4033 Fit       0.005839
 4034 Fit       0.006023
 4035 Fit       0.005106
 4036 Fit       0.005580
 4037 Fit       0.005941
 4038 Fit       0.006120
 4039 Fit       0.006144
 4040 Fit       0.006168
 4041 Fit       0.004960
 4042 Fit       0.005504
 4043 Fit       0.005968
 4044 Fit       0.006252
 4045 Fit       0.006327
 4046 Fit       0.006249
 4047 Fit       0.006183
 4048 Fit       0.004960
 4049 Fit       0.005505
 4050 Fit       0.005969
 4051 Fit       0.006253
 4052 Fit       0.006328
 4053 Fit       0.006250
 4054 Fit       0.006185
 4055 Fit       0.005107
 4056 Fit       0.005582
 4057 Fit       0.005944
 4058 Fit       0.006123
 4059 Fit       0.006148
 4060 Fit       0.006174
 4061 Fit       0.005301
 4062 Fit       0.005651
 4063 Fit       0.005845
 4064 Fit       0.006032
 4065 Fit       0.005224
 4066 Fit       0.005563
 4067 Fit       0.003931
 4068 Fit       0.002893
 4069 Fit       0.003651
 4070 Fit       0.004406
 4071 Fit       0.004429
 4072 Fit       0.004215
 4073 Fit       0.003595
 4074 Fit       0.000982
 4075 Fit       0.001907
 4076 Fit       0.003566
 4077 Fit       0.004532
 4078 Fit       0.004789
 4079 Fit       0.004676
 4080 Fit       0.004536
 4081 Fit       0.004595
 4082 Fit      -0.001269
 4083 Fit       0.001579
 4084 Fit       0.003560
 4085 Fit       0.004524
 4086 Fit       0.004865
 4087 Fit       0.004859
 4088 Fit       0.004704
 4089 Fit       0.004594
 4090 Fit       0.002321
 4091 Fit       0.003872
 4092 Fit       0.004526
 4093 Fit       0.004757
 4094 Fit       0.004754
 4095 Fit       0.004636
 4096 Fit       0.004536
 4097 Fit       0.003784
 4098 Fit       0.004265
 4099 Fit       0.004452
 4100 Fit       0.004467
 4101 Fit       0.004390
 4102 Fit       0.003910
 4103 Fit       0.004077
 4104 Fit       0.003915
 4105 Fit       0.004081
 4106 Fit       0.003790
 4107 Fit       0.004271
 4108 Fit       0.004458
 4109 Fit       0.004472
 4110 Fit       0.004394
 4111 Fit       0.002320
 4112 Fit       0.003875
 4113 Fit       0.004530
 4114 Fit       0.004761
 4115 Fit       0.004758
 4116 Fit       0.004640
 4117 Fit       0.004540
 4118 Fit      -0.001297
 4119 Fit       0.001569
 4120 Fit       0.003559
 4121 Fit       0.004525
 4122 Fit       0.004868
 4123 Fit       0.004862
 4124 Fit       0.004708
 4125 Fit       0.004598
 4126 Fit       0.000967
 4127 Fit       0.001896
 4128 Fit       0.003562
 4129 Fit       0.004533
 4130 Fit       0.004791
 4131 Fit       0.004679
 4132 Fit       0.004540
 4133 Fit       0.004604
 4134 Fit       0.002889
 4135 Fit       0.003648
 4136 Fit       0.004406
 4137 Fit       0.004432
 4138 Fit       0.004221
 4139 Fit       0.003600
 4140 Fit       0.003931
 4141 Fit      -0.005916
 4142 Fit      -0.014898
 4143 Fit       0.004158
 4144 Fit       0.000122
 4145 Fit      -0.005153
 4146 Fit      -0.012524
 4147 Fit       0.004398
 4148 Fit       0.001383
 4149 Fit      -0.002618
 4150 Fit      -0.007975
 4151 Fit      -0.015137
 4152 Fit       0.004646
 4153 Fit       0.002382
 4154 Fit      -0.000965
 4155 Fit      -0.005486
 4156 Fit      -0.011037
 4157 Fit      -0.006610
 4158 Fit      -0.002900
 4159 Fit       0.004624
 4160 Fit       0.003656
 4161 Fit       0.001386
 4162 Fit      -0.002189
 4163 Fit      -0.006354
 4164 Fit      -0.008729
 4165 Fit      -0.002819
 4166 Fit      -0.000143
 4167 Fit       0.002247
 4168 Fit       0.002454
 4169 Fit       0.000282
 4170 Fit      -0.002760
 4171 Fit       0.000139
 4172 Fit       0.000131
 4173 Fit      -0.002836
 4174 Fit      -0.000145
 4175 Fit       0.002248
 4176 Fit       0.002450
 4177 Fit       0.000271
 4178 Fit      -0.002780
 4179 Fit      -0.006641
 4180 Fit      -0.002901
 4181 Fit       0.004626
 4182 Fit       0.003652
 4183 Fit       0.001376
 4184 Fit      -0.002208
 4185 Fit      -0.006385
 4186 Fit      -0.008772
 4187 Fit       0.004642
 4188 Fit       0.002373
 4189 Fit      -0.000980
 4190 Fit      -0.005510
 4191 Fit      -0.011077
 4192 Fit       0.004392
 4193 Fit       0.001373
 4194 Fit      -0.002634
 4195 Fit      -0.008000
 4196 Fit      -0.015177
 4197 Fit       0.004150
 4198 Fit       0.000109
 4199 Fit      -0.005171
 4200 Fit      -0.012550
 4201 Fit      -0.005935
 4202 Fit      -0.014920
 4203 Fit       0.002691
 4204 Fit       0.000502
 4205 Fit       0.006195
 4206 Fit       0.004913
 4207 Fit       0.002860
 4208 Fit       0.008774
 4209 Fit       0.007256
 4210 Fit       0.005587
 4211 Fit       0.010752
 4212 Fit       0.008724
 4213 Fit       0.006997
 4214 Fit       0.004739
 4215 Fit       0.010751
 4216 Fit       0.008723
 4217 Fit       0.006996
 4218 Fit       0.004740
 4219 Fit       0.008771
 4220 Fit       0.007254
 4221 Fit       0.005585
 4222 Fit       0.006190
 4223 Fit       0.004908
 4224 Fit       0.002853
 4225 Fit       0.002684
 4226 Fit       0.000488
 4227 Fit       0.008125
 4228 Fit       0.007764
 4229 Fit       0.006616
 4230 Fit       0.011341
 4231 Fit       0.010754
 4232 Fit       0.010235
 4233 Fit       0.009608
 4234 Fit       0.008785
 4235 Fit       0.015007
 4236 Fit       0.013236
 4237 Fit       0.012311
 4238 Fit       0.011714
 4239 Fit       0.011193
 4240 Fit       0.010681
 4241 Fit       0.010281
 4242 Fit       0.014615
 4243 Fit       0.013306
 4244 Fit       0.012581
 4245 Fit       0.012049
 4246 Fit       0.011589
 4247 Fit       0.011297
 4248 Fit       0.011589
 4249 Fit       0.014613
 4250 Fit       0.013305
 4251 Fit       0.012581
 4252 Fit       0.012049
 4253 Fit       0.011589
 4254 Fit       0.011297
 4255 Fit       0.011590
 4256 Fit       0.015001
 4257 Fit       0.013232
 4258 Fit       0.012308
 4259 Fit       0.011713
 4260 Fit       0.011191
 4261 Fit       0.010680
 4262 Fit       0.010281
 4263 Fit       0.011335
 4264 Fit       0.010750
 4265 Fit       0.010232
 4266 Fit       0.009606
 4267 Fit       0.008783
 4268 Fit       0.008120
 4269 Fit       0.007761
 4270 Fit       0.006614
 4271 Fit       0.011093
 4272 Fit       0.013427
 4273 Fit       0.012583
 4274 Fit       0.015531
 4275 Fit       0.014960
 4276 Fit       0.014906
 4277 Fit       0.016413
 4278 Fit       0.015871
 4279 Fit       0.016005
 4280 Fit       0.016412
 4281 Fit       0.015870
 4282 Fit       0.016004
 4283 Fit       0.015527
 4284 Fit       0.014957
 4285 Fit       0.014904
 4286 Fit       0.013422
 4287 Fit       0.012578
 4288 Fit       0.011084
 4289 Fit      -0.028066
 4290 Fit      -0.028077
 4291 Fit      -0.003870
 4292 Fit       0.001147
 4293 Fit       0.005724
 4294 Fit      -0.001824
 4295 Fit       0.004070
 4296 Fit      -0.002937
 4297 Fit       0.004106
 4298 Fit      -0.002954
 4299 Fit       0.004092
 4300 Fit      -0.001852
 4301 Fit       0.004051
 4302 Fit      -0.003926
 4303 Fit       0.001112
 4304 Fit       0.005701
 -----------------------------------------------------------------
 Leave Link  602 at Thu Jan 16 22:40:40 2014, MaxMem=   235929600 cpu:         1.8

 Test job not archived.
 1\1\GINC-G59\SP\RHF\Gen\C11H12Br1N1O3\KOLAR\16-Jan-2014\0\\# hf/gen po
 p=mk iop(6/33=2,6/41=5,6/42=2)\\na resp\\0,1\C,0,-6.873118,0.099756,0.
 000851\C,0,-5.655618,-0.805345,-0.000971\O,0,-4.484859,0.041827,-0.001
 057\C,0,-3.294633,-0.601096,-0.000187\O,0,-3.192223,-1.811498,0.000342
 \C,0,-2.138191,0.345984,0.000001\C,0,-2.317492,1.734537,-0.000053\C,0,
 -1.198139,2.564896,0.000173\C,0,0.082239,2.019594,0.000377\C,0,0.26222
 8,0.626954,0.000376\C,0,-0.855292,-0.21507,0.00024\N,0,1.5923,0.153266
 ,0.000548\C,0,2.03418,-1.134597,0.000235\O,0,1.338372,-2.139834,-0.000
 167\C,0,3.549425,-1.361632,0.000933\Br,0,4.721922,0.237303,-0.000395\H
 ,0,-7.78584,-0.506012,0.000721\H,0,-6.884769,0.73917,0.889491\H,0,-6.8
 85896,0.741224,-0.886292\H,0,-5.62292,-1.450843,-0.884581\H,0,-5.62150
 8,-1.452762,0.881137\H,0,-3.317786,2.150521,-0.000264\H,0,-1.319939,3.
 644255,0.000186\H,0,0.950873,2.674886,0.000553\H,0,-0.740392,-1.289858
 ,0.000282\H,0,2.31449,0.864576,0.000695\H,0,3.817954,-1.929769,0.89071
 9\H,0,3.8185,-1.931699,-0.887447\\Version=AM64L-G09RevD.01\State=1-A\H
 F=-3272.2023782\RMSD=2.950e-09\Dipole=0.1350779,1.4110278,0.0009745\Qu
 adrupole=10.4354372,-5.5743128,-4.8611245,-4.4296446,0.0074365,-0.0007
 513\PG=C01 [X(C11H12Br1N1O3)]\\@


 REPARTEE - WHAT YOU THINK OF AFTER YOU BECOME A DEPARTEE.
 Job cpu time:       0 days  0 hours  3 minutes 53.4 seconds.
 File lengths (MBytes):  RWF=     39 Int=      0 D2E=      0 Chk=      4 Scr=      1
 Normal termination of Gaussian 09 at Thu Jan 16 22:40:40 2014.
232.99user 0.41system 3:53.97elapsed 99%CPU (0avgtext+0avgdata 603584maxresident)k
8inputs+188896outputs (0major+173208minor)pagefaults 0swaps
