Linux g28 2.6.38.6-client #1 SMP Tue Jun 12 11:27:21 CEST 2012 x86_64 GNU/Linux
Fri Jan 17 11:54:31 CET 2014

 Entering Gaussian System, Link 0=/usr/local/programs/common/gaussian/gaussian09_d01/arch/amd64-pgi_10.4.0-acml/g09/g09
 Initial command:
 /usr/local/programs/common/gaussian/gaussian09_d01/arch/amd64-pgi_10.4.0-acml/g09/l1.exe "/scratch/kolar/g09_20283/Gau-2772.inp" -scrdir="/scratch/kolar/g09_20283/"
 Entering Link 1 = /usr/local/programs/common/gaussian/gaussian09_d01/arch/amd64-pgi_10.4.0-acml/g09/l1.exe PID=      2779.
  
 Copyright (c) 1988,1990,1992,1993,1995,1998,2003,2009,2013,
            Gaussian, Inc.  All Rights Reserved.
  
 This is part of the Gaussian(R) 09 program.  It is based on
 the Gaussian(R) 03 system (copyright 2003, Gaussian, Inc.),
 the Gaussian(R) 98 system (copyright 1998, Gaussian, Inc.),
 the Gaussian(R) 94 system (copyright 1995, Gaussian, Inc.),
 the Gaussian 92(TM) system (copyright 1992, Gaussian, Inc.),
 the Gaussian 90(TM) system (copyright 1990, Gaussian, Inc.),
 the Gaussian 88(TM) system (copyright 1988, Gaussian, Inc.),
 the Gaussian 86(TM) system (copyright 1986, Carnegie Mellon
 University), and the Gaussian 82(TM) system (copyright 1983,
 Carnegie Mellon University). Gaussian is a federally registered
 trademark of Gaussian, Inc.
  
 This software contains proprietary and confidential information,
 including trade secrets, belonging to Gaussian, Inc.
  
 This software is provided under written license and may be
 used, copied, transmitted, or stored only in accord with that
 written license.
  
 The following legend is applicable only to US Government
 contracts under FAR:
  
                    RESTRICTED RIGHTS LEGEND
  
 Use, reproduction and disclosure by the US Government is
 subject to restrictions as set forth in subparagraphs (a)
 and (c) of the Commercial Computer Software - Restricted
 Rights clause in FAR 52.227-19.
  
 Gaussian, Inc.
 340 Quinnipiac St., Bldg. 40, Wallingford CT 06492
  
  
 ---------------------------------------------------------------
 Warning -- This program may not be used in any manner that
 competes with the business of Gaussian, Inc. or will provide
 assistance to any competitor of Gaussian, Inc.  The licensee
 of this program is prohibited from giving any competitor of
 Gaussian, Inc. access to this program.  By using this program,
 the user acknowledges that Gaussian, Inc. is engaged in the
 business of creating and licensing software in the field of
 computational chemistry and represents and warrants to the
 licensee that it is not a competitor of Gaussian, Inc. and that
 it will not use this program in any manner prohibited above.
 ---------------------------------------------------------------
  

 Cite this work as:
 Gaussian 09, Revision D.01,
 M. J. Frisch, G. W. Trucks, H. B. Schlegel, G. E. Scuseria, 
 M. A. Robb, J. R. Cheeseman, G. Scalmani, V. Barone, B. Mennucci, 
 G. A. Petersson, H. Nakatsuji, M. Caricato, X. Li, H. P. Hratchian, 
 A. F. Izmaylov, J. Bloino, G. Zheng, J. L. Sonnenberg, M. Hada, 
 M. Ehara, K. Toyota, R. Fukuda, J. Hasegawa, M. Ishida, T. Nakajima, 
 Y. Honda, O. Kitao, H. Nakai, T. Vreven, J. A. Montgomery, Jr., 
 J. E. Peralta, F. Ogliaro, M. Bearpark, J. J. Heyd, E. Brothers, 
 K. N. Kudin, V. N. Staroverov, T. Keith, R. Kobayashi, J. Normand, 
 K. Raghavachari, A. Rendell, J. C. Burant, S. S. Iyengar, J. Tomasi, 
 M. Cossi, N. Rega, J. M. Millam, M. Klene, J. E. Knox, J. B. Cross, 
 V. Bakken, C. Adamo, J. Jaramillo, R. Gomperts, R. E. Stratmann, 
 O. Yazyev, A. J. Austin, R. Cammi, C. Pomelli, J. W. Ochterski, 
 R. L. Martin, K. Morokuma, V. G. Zakrzewski, G. A. Voth, 
 P. Salvador, J. J. Dannenberg, S. Dapprich, A. D. Daniels, 
 O. Farkas, J. B. Foresman, J. V. Ortiz, J. Cioslowski, 
 and D. J. Fox, Gaussian, Inc., Wallingford CT, 2013.
 
 ******************************************
 Gaussian 09:  AM64L-G09RevD.01 24-Apr-2013
                17-Jan-2014 
 ******************************************
 %mem=1800mb
 ------------------------------------------------------------------
 # hf/gen pseudo=read pop=(mk, readradii) iop(6/33=2,6/41=5,6/42=2)
 ------------------------------------------------------------------
 1/38=1/1;
 2/12=2,17=6,18=5,40=1/2;
 3/5=7,11=9,16=1,17=8,25=1,30=1/1,2,3;
 4//1;
 5/5=2,38=5/2;
 6/7=2,8=2,9=2,10=2,15=8,20=101,28=1,33=2,41=5,42=2/1,2;
 99/5=1,9=1/99;
 -------
 na resp
 -------
 Symbolic Z-matrix:
 Charge =  0 Multiplicity = 1
 6                     0.49751   2.20997   0.75322 
 6                    -0.58863   1.38032   0.48841 
 6                    -0.37887   0.07236   0.03123 
 6                     0.92879  -0.39131  -0.14937 
 6                     2.00653   0.45078   0.12397 
 6                     1.80776   1.75301   0.57403 
 53                    4.00313  -0.2818   -0.16134 
 6                    -1.53759  -0.85939  -0.26131 
 1                    -1.13833  -1.79461  -0.67514 
 6                    -3.937    -0.61119  -0.84086 
 1                    -4.4714   -0.97744  -1.72643 
 6                    -3.9517   -1.67441   0.26343 
 16                   -2.47928  -1.27432   1.27507 
 6                    -4.6844    0.66861  -0.38806 
 8                    -4.01498   1.80083  -0.6435 
 1                     0.33065   3.22328   1.1077 
 1                    -1.60049   1.74163   0.6426 
 1                     1.09936  -1.40401  -0.50078 
 1                     2.6493    2.40395   0.78396 
 1                    -4.85503  -1.59399   0.87059 
 1                    -3.87429  -2.68573  -0.14794 
 7                    -2.53782  -0.28268  -1.19699 
 1                    -2.31985  -0.57556  -2.14571 
 1                    -3.14359   1.49502  -1.00469 
 8                    -5.78294   0.63397   0.11306 
 
                          Input orientation:                          
 ---------------------------------------------------------------------
 Center     Atomic      Atomic             Coordinates (Angstroms)
 Number     Number       Type             X           Y           Z
 ---------------------------------------------------------------------
      1          6           0        0.497510    2.209974    0.753224
      2          6           0       -0.588630    1.380319    0.488408
      3          6           0       -0.378873    0.072361    0.031232
      4          6           0        0.928793   -0.391308   -0.149373
      5          6           0        2.006528    0.450783    0.123967
      6          6           0        1.807762    1.753012    0.574033
      7         53           0        4.003130   -0.281804   -0.161339
      8          6           0       -1.537587   -0.859389   -0.261310
      9          1           0       -1.138328   -1.794614   -0.675137
     10          6           0       -3.937001   -0.611194   -0.840859
     11          1           0       -4.471395   -0.977441   -1.726429
     12          6           0       -3.951704   -1.674411    0.263431
     13         16           0       -2.479285   -1.274322    1.275065
     14          6           0       -4.684396    0.668613   -0.388058
     15          8           0       -4.014984    1.800834   -0.643498
     16          1           0        0.330654    3.223280    1.107704
     17          1           0       -1.600492    1.741633    0.642601
     18          1           0        1.099355   -1.404008   -0.500777
     19          1           0        2.649302    2.403952    0.783955
     20          1           0       -4.855030   -1.593991    0.870594
     21          1           0       -3.874288   -2.685729   -0.147940
     22          7           0       -2.537819   -0.282681   -1.196987
     23          1           0       -2.319852   -0.575561   -2.145713
     24          1           0       -3.143588    1.495017   -1.004687
     25          8           0       -5.782937    0.633967    0.113060
 ---------------------------------------------------------------------
                    Distance matrix (angstroms):
                    1          2          3          4          5
     1  C    0.000000
     2  C    1.392176   0.000000
     3  C    2.420477   1.401343   0.000000
     4  C    2.786997   2.418264   1.399142   0.000000
     5  C    2.401635   2.780593   2.417011   1.394756   0.000000
     6  C    1.399173   2.426711   2.810799   2.427758   1.392073
     7  I    4.397130   4.926366   4.400508   3.076310   2.145811
     8  C    3.819933   2.545366   1.515374   2.512899   3.798123
     9  H    4.555536   3.425814   2.135726   2.553172   3.945947
    10  C    5.492265   4.116390   3.726669   4.919599   6.114264
    11  H    6.402992   5.053751   4.576046   5.656208   6.886746
    12  C    5.926538   4.548874   3.983748   5.063202   6.327435
    13  S    4.612369   3.352689   2.787904   3.797859   4.942017
    14  C    5.525438   4.248531   4.366789   5.717368   6.714021
    15  O    4.741395   3.632898   4.082179   5.430523   6.218541
    16  H    1.086410   2.150608   3.404484   3.873404   3.385710
    17  H    2.152485   1.085444   2.156987   3.402050   3.865989
    18  H    3.872416   3.402978   2.155889   1.085420   2.157201
    19  H    2.160736   3.408721   3.895222   3.412438   2.159540
    20  H    6.567618   5.214859   4.849458   5.994947   7.198578
    21  H    6.625151   5.266235   4.456129   5.322965   6.670505
    22  N    4.385188   3.066833   2.509108   3.623078   4.788943
    23  H    4.909233   3.709608   2.987690   3.817462   4.992233
    24  H    4.105972   2.961469   3.277305   4.568815   5.374754
    25  O    6.506737   5.261060   5.433784   6.794658   7.791626
                    6          7          8          9         10
     6  C    0.000000
     7  I    3.082351   0.000000
     8  C    4.325945   5.571637   0.000000
     9  H    4.777606   5.383974   1.097864   0.000000
    10  C    6.371318   7.975959   2.480860   3.043110   0.000000
    11  H    7.223248   8.645866   3.281423   3.589195   1.097246
    12  C    6.709333   8.086975   2.601456   2.968239   1.533005
    13  S    5.294806   6.713423   1.849165   2.423253   2.653641
    14  C    6.652041   8.742300   3.500466   4.327182   1.549688
    15  O    5.948869   8.298193   3.655181   4.604715   2.421345
    16  H    2.151358   5.232893   4.693901   5.524101   6.059123
    17  H    3.408963   6.011755   2.754329   3.801983   3.632592
    18  H    3.409374   3.131528   2.703224   2.278201   5.109706
    19  H    1.084426   3.152732   5.410362   5.839781   7.423646
    20  H    7.462116   9.014084   3.581379   4.030311   2.176635
    21  H    7.246334   8.236064   2.967919   2.925320   2.188096
    22  N    5.115138   6.622430   1.486118   2.125287   1.480695
    23  H    5.464107   6.633561   2.059969   2.246037   2.078241
    24  H    5.203344   7.412416   2.945348   3.866697   2.256650
    25  O    7.686577   9.832652   4.515890   5.300156   2.422368
                   11         12         13         14         15
    11  H    0.000000
    12  C    2.171495   0.000000
    13  S    3.614638   1.830708   0.000000
    14  C    2.132159   2.539889   3.376905   0.000000
    15  O    3.016598   3.592193   3.936476   1.339883   0.000000
    16  H    6.981264   6.560394   5.305864   5.823603   4.896390
    17  H    4.609528   4.164292   3.204415   3.424046   2.736298
    18  H    5.719916   5.115694   3.997136   6.144936   6.037205
    19  H    8.272858   7.776713   6.330347   7.626804   6.842082
    20  H    2.696635   1.091381   2.431039   2.594744   3.810904
    21  H    2.401335   1.094524   2.441935   3.459124   4.516040
    22  N    2.121725   2.463494   2.664173   2.483369   2.613312
    23  H    2.228552   3.110368   3.495055   3.198185   3.282891
    24  H    2.897763   3.508055   3.647987   1.853986   0.991621
    25  O    2.774977   2.950362   3.988225   1.207937   2.249359
                   16         17         18         19         20
    16  H    0.000000
    17  H    2.478089   0.000000
    18  H    4.958821   4.300180   0.000000
    19  H    2.480371   4.303417   4.307369   0.000000
    20  H    7.081923   4.665875   6.113220   8.503297   0.000000
    21  H    7.360337   5.039508   5.148245   8.326494   1.786381
    22  N    5.082470   2.891455   3.869253   6.168335   3.371037
    23  H    5.660486   3.696155   3.883699   6.492530   4.069697
    24  H    4.418082   2.270578   5.163413   6.130496   3.998460
    25  O    6.713408   4.358920   7.203893   8.642083   2.529558
                   21         22         23         24         25
    21  H    0.000000
    22  N    2.943007   0.000000
    23  H    3.295478   1.016548   0.000000
    24  H    4.329732   1.887894   2.503552   0.000000
    25  O    3.838156   3.617631   4.307896   2.992813   0.000000
 Stoichiometry    C10H10INO2S
 Framework group  C1[X(C10H10INO2S)]
 Deg. of freedom    69
 Full point group                 C1      NOp   1
 Largest Abelian subgroup         C1      NOp   1
 Largest concise Abelian subgroup C1      NOp   1
                         Standard orientation:                         
 ---------------------------------------------------------------------
 Center     Atomic      Atomic             Coordinates (Angstroms)
 Number     Number       Type             X           Y           Z
 ---------------------------------------------------------------------
      1          6           0        0.497510    2.209974    0.753224
      2          6           0       -0.588630    1.380319    0.488408
      3          6           0       -0.378873    0.072361    0.031232
      4          6           0        0.928793   -0.391308   -0.149373
      5          6           0        2.006528    0.450783    0.123967
      6          6           0        1.807762    1.753012    0.574033
      7         53           0        4.003130   -0.281804   -0.161339
      8          6           0       -1.537587   -0.859389   -0.261310
      9          1           0       -1.138328   -1.794614   -0.675137
     10          6           0       -3.937001   -0.611194   -0.840859
     11          1           0       -4.471395   -0.977441   -1.726429
     12          6           0       -3.951704   -1.674411    0.263431
     13         16           0       -2.479285   -1.274322    1.275065
     14          6           0       -4.684396    0.668613   -0.388058
     15          8           0       -4.014984    1.800834   -0.643498
     16          1           0        0.330654    3.223280    1.107704
     17          1           0       -1.600492    1.741633    0.642601
     18          1           0        1.099355   -1.404008   -0.500777
     19          1           0        2.649302    2.403952    0.783955
     20          1           0       -4.855030   -1.593991    0.870594
     21          1           0       -3.874288   -2.685729   -0.147940
     22          7           0       -2.537819   -0.282681   -1.196987
     23          1           0       -2.319852   -0.575561   -2.145713
     24          1           0       -3.143588    1.495017   -1.004687
     25          8           0       -5.782937    0.633967    0.113060
 ---------------------------------------------------------------------
 Rotational constants (GHZ):      1.1127156      0.1244150      0.1181907
 General basis read from cards:  (5D, 7F)
 ======================================================================================================
                                       Pseudopotential Parameters
 ======================================================================================================
  Center     Atomic      Valence      Angular      Power
  Number     Number     Electrons     Momentum     of R      Exponent        Coefficient   SO-Coeffient
 ======================================================================================================
    1          6
                                   No pseudopotential on this center.
    2          6
                                   No pseudopotential on this center.
    3          6
                                   No pseudopotential on this center.
    4          6
                                   No pseudopotential on this center.
    5          6
                                   No pseudopotential on this center.
    6          6
                                   No pseudopotential on this center.
    7         53            7
                                      F and up 
                                                     0        1.0715702       -0.07476210    0.00000000
                                                     1       44.1936028      -30.08112240    0.00000000
                                                     2       12.9367609      -75.37227210    0.00000000
                                                     2        3.1956412      -22.05637580    0.00000000
                                                     2        0.8589806       -1.69795850    0.00000000
                                      S - F
                                                     0      127.9202670        2.93800360    0.00000000
                                                     1       78.6211465       41.24712670    0.00000000
                                                     2       36.5146237      287.86800950    0.00000000
                                                     2        9.9065681      114.37585060    0.00000000
                                                     2        1.9420086       37.65477140    0.00000000
                                      P - F
                                                     0       13.0035304        2.22226300    0.00000000
                                                     1       76.0331404       39.40908310    0.00000000
                                                     2       24.1961684      177.40750020    0.00000000
                                                     2        6.4053433       77.98894620    0.00000000
                                                     2        1.5851786       25.75476410    0.00000000
                                      D - F
                                                     0       40.4278108        7.05243600    0.00000000
                                                     1       28.9084375       33.30416350    0.00000000
                                                     2       15.6268936      186.94538750    0.00000000
                                                     2        4.1442856       71.96883610    0.00000000
                                                     2        0.9377235        9.36306570    0.00000000
    8          6
                                   No pseudopotential on this center.
    9          1
                                   No pseudopotential on this center.
   10          6
                                   No pseudopotential on this center.
   11          1
                                   No pseudopotential on this center.
   12          6
                                   No pseudopotential on this center.
   13         16
                                   No pseudopotential on this center.
   14          6
                                   No pseudopotential on this center.
   15          8
                                   No pseudopotential on this center.
   16          1
                                   No pseudopotential on this center.
   17          1
                                   No pseudopotential on this center.
   18          1
                                   No pseudopotential on this center.
   19          1
                                   No pseudopotential on this center.
   20          1
                                   No pseudopotential on this center.
   21          1
                                   No pseudopotential on this center.
   22          7
                                   No pseudopotential on this center.
   23          1
                                   No pseudopotential on this center.
   24          1
                                   No pseudopotential on this center.
   25          8
                                   No pseudopotential on this center.
 ======================================================================================================
 There are   242 symmetry adapted cartesian basis functions of A   symmetry.
 There are   228 symmetry adapted basis functions of A   symmetry.
   228 basis functions,   468 primitive gaussians,   242 cartesian basis functions
    58 alpha electrons       58 beta electrons
       nuclear repulsion energy      1050.6060197062 Hartrees.
 NAtoms=   25 NActive=   25 NUniq=   25 SFac= 1.00D+00 NAtFMM=   60 NAOKFM=F Big=F
 Integral buffers will be    131072 words long.
 Raffenetti 1 integral format.
 Two-electron integral symmetry is turned on.
 One-electron integrals computed using PRISM.
   1 Symmetry operations used in ECPInt.
 ECPInt:  NShTT=    3321 NPrTT=   21620 LenC2=    3084 LenP2D=   12506.
 LDataN:  DoStor=T MaxTD1= 5 Len=  102
 NBasis=   228 RedAO= T EigKep=  4.79D-04  NBF=   228
 NBsUse=   228 1.00D-06 EigRej= -1.00D+00 NBFU=   228
 ExpMin= 1.05D-01 ExpMax= 2.19D+04 ExpMxC= 3.30D+03 IAcc=1 IRadAn=         1 AccDes= 0.00D+00
 Harris functional with IExCor=  205 and IRadAn=       1 diagonalized for initial guess.
 HarFok:  IExCor=  205 AccDes= 0.00D+00 IRadAn=         1 IDoV= 1 UseB2=F ITyADJ=14
 ICtDFT=  3500011 ScaDFX=  1.000000  1.000000  1.000000  1.000000
 Defaulting to unpruned grid for atomic number  53.
 FoFCou: FMM=F IPFlag=           0 FMFlag=      100000 FMFlg1=           0
         NFxFlg=           0 DoJE=T BraDBF=F KetDBF=T FulRan=T
         wScrn=  0.000000 ICntrl=     500 IOpCl=  0 I1Cent=   200000004 NGrid=           0
         NMat0=    1 NMatS0=      1 NMatT0=    0 NMatD0=    1 NMtDS0=    0 NMtDT0=    0
 Petite list used in FoFCou.
 Requested convergence on RMS density matrix=1.00D-08 within 128 cycles.
 Requested convergence on MAX density matrix=1.00D-06.
 Requested convergence on             energy=1.00D-06.
 No special actions if energy rises.
 Integral accuracy reduced to 1.0D-05 until final iterations.
 Initial convergence to 1.0D-05 achieved.  Increase integral accuracy.
 SCF Done:  E(RHF) =  -997.339127178     A.U. after   16 cycles
            NFock= 16  Conv=0.45D-08     -V/T= 2.0088

 **********************************************************************

            Population analysis using the SCF density.

 **********************************************************************

 Orbital symmetries:
 BldTbl:  Degeneracy threshold= 1.00D-02
       Occupied  (A) (A) (A) (A) (A) (A) (A) (A) (A) (A) (A) (A)
                 (A) (A) (A) (A) (A) (A) (A) (A) (A) (A) (A) (A)
                 (A) (A) (A) (A) (A) (A) (A) (A) (A) (A) (A) (A)
                 (A) (A) (A) (A) (A) (A) (A) (A) (A) (A) (A) (A)
                 (A) (A) (A) (A) (A) (A) (A) (A) (A) (A)
       Virtual   (A) (A) (A) (A) (A) (A) (A) (A) (A) (A) (A) (A)
                 (A) (A) (A) (A) (A) (A) (A) (A) (A) (A) (A) (A)
                 (A) (A) (A) (A) (A) (A) (A) (A) (A) (A) (A) (A)
                 (A) (A) (A) (A) (A) (A) (A) (A) (A) (A) (A) (A)
                 (A) (A) (A) (A) (A) (A) (A) (A) (A) (A) (A) (A)
                 (A) (A) (A) (A) (A) (A) (A) (A) (A) (A) (A) (A)
                 (A) (A) (A) (A) (A) (A) (A) (A) (A) (A) (A) (A)
                 (A) (A) (A) (A) (A) (A) (A) (A) (A) (A) (A) (A)
                 (A) (A) (A) (A) (A) (A) (A) (A) (A) (A) (A) (A)
                 (A) (A) (A) (A) (A) (A) (A) (A) (A) (A) (A) (A)
                 (A) (A) (A) (A) (A) (A) (A) (A) (A) (A) (A) (A)
                 (A) (A) (A) (A) (A) (A) (A) (A) (A) (A) (A) (A)
                 (A) (A) (A) (A) (A) (A) (A) (A) (A) (A) (A) (A)
                 (A) (A) (A) (A) (A) (A) (A) (A) (A) (A) (A) (A)
                 (A) (A)
 The electronic state is 1-A.
 Alpha  occ. eigenvalues --  -91.95417 -20.60496 -20.54833 -15.60645 -11.38707
 Alpha  occ. eigenvalues --  -11.32838 -11.31012 -11.30713 -11.28282 -11.27111
 Alpha  occ. eigenvalues --  -11.26687 -11.26400 -11.25854 -11.25674  -8.96925
 Alpha  occ. eigenvalues --   -6.65099  -6.64999  -6.64764  -1.45370  -1.35827
 Alpha  occ. eigenvalues --   -1.27056  -1.18020  -1.08081  -1.07186  -1.04338
 Alpha  occ. eigenvalues --   -1.00713  -0.90033  -0.89178  -0.85498  -0.83851
 Alpha  occ. eigenvalues --   -0.80312  -0.78284  -0.74385  -0.72641  -0.70975
 Alpha  occ. eigenvalues --   -0.67169  -0.66128  -0.64144  -0.63079  -0.61799
 Alpha  occ. eigenvalues --   -0.61140  -0.58631  -0.56869  -0.56605  -0.54934
 Alpha  occ. eigenvalues --   -0.54806  -0.52709  -0.50829  -0.46981  -0.46795
 Alpha  occ. eigenvalues --   -0.46368  -0.45393  -0.41824  -0.40178  -0.37600
 Alpha  occ. eigenvalues --   -0.36772  -0.35513  -0.33140
 Alpha virt. eigenvalues --    0.10105   0.10298   0.11617   0.15361   0.16226
 Alpha virt. eigenvalues --    0.20266   0.23016   0.24516   0.24757   0.26314
 Alpha virt. eigenvalues --    0.26773   0.28860   0.29788   0.30546   0.31547
 Alpha virt. eigenvalues --    0.33219   0.33652   0.36570   0.37716   0.39202
 Alpha virt. eigenvalues --    0.41947   0.44090   0.45281   0.46599   0.47622
 Alpha virt. eigenvalues --    0.48187   0.50037   0.52576   0.54464   0.55361
 Alpha virt. eigenvalues --    0.56028   0.57184   0.57411   0.58406   0.60786
 Alpha virt. eigenvalues --    0.67650   0.70718   0.71331   0.73470   0.74225
 Alpha virt. eigenvalues --    0.75849   0.77031   0.77901   0.78863   0.80927
 Alpha virt. eigenvalues --    0.81717   0.82165   0.82853   0.83637   0.84313
 Alpha virt. eigenvalues --    0.85741   0.86784   0.87565   0.88285   0.90277
 Alpha virt. eigenvalues --    0.91266   0.92583   0.93333   0.94382   0.97652
 Alpha virt. eigenvalues --    1.00608   1.03873   1.04020   1.05932   1.07787
 Alpha virt. eigenvalues --    1.09031   1.09803   1.10636   1.10977   1.12051
 Alpha virt. eigenvalues --    1.13470   1.14303   1.14905   1.15287   1.17432
 Alpha virt. eigenvalues --    1.18358   1.19516   1.20616   1.24018   1.25077
 Alpha virt. eigenvalues --    1.26402   1.26506   1.29071   1.30753   1.32139
 Alpha virt. eigenvalues --    1.33122   1.36001   1.36856   1.38456   1.39893
 Alpha virt. eigenvalues --    1.42703   1.43617   1.45360   1.49453   1.51992
 Alpha virt. eigenvalues --    1.55305   1.59554   1.60324   1.62619   1.64400
 Alpha virt. eigenvalues --    1.68198   1.69958   1.72731   1.73213   1.74184
 Alpha virt. eigenvalues --    1.76588   1.78544   1.81548   1.83412   1.94191
 Alpha virt. eigenvalues --    1.95558   1.97512   1.99762   2.00491   2.06116
 Alpha virt. eigenvalues --    2.06925   2.07120   2.08544   2.10842   2.12219
 Alpha virt. eigenvalues --    2.13760   2.15132   2.17474   2.18371   2.21190
 Alpha virt. eigenvalues --    2.24135   2.26102   2.28181   2.31921   2.32513
 Alpha virt. eigenvalues --    2.34219   2.35708   2.38039   2.41502   2.42635
 Alpha virt. eigenvalues --    2.43213   2.44622   2.46630   2.48323   2.54615
 Alpha virt. eigenvalues --    2.58237   2.60555   2.61070   2.61398   2.63955
 Alpha virt. eigenvalues --    2.65972   2.69947   2.74652   2.79594   2.82930
 Alpha virt. eigenvalues --    2.84551   2.86708   2.90584   2.92428   2.96473
 Alpha virt. eigenvalues --    2.99553   3.01100   3.02447   3.06569   3.08159
 Alpha virt. eigenvalues --    3.08835   3.12634   3.16412   3.20630   3.26535
 Alpha virt. eigenvalues --    3.38228   3.41685   3.47162   3.72528  10.26044
          Condensed to atoms (all electrons):
               1          2          3          4          5          6
     1  C    4.924811   0.524200  -0.023889  -0.052634  -0.008451   0.504868
     2  C    0.524200   4.951033   0.520539  -0.016187  -0.061233  -0.022469
     3  C   -0.023889   0.520539   4.919802   0.517833  -0.004193  -0.045958
     4  C   -0.052634  -0.016187   0.517833   4.990125   0.444221  -0.014465
     5  C   -0.008451  -0.061233  -0.004193   0.444221   5.346088   0.470912
     6  C    0.504868  -0.022469  -0.045958  -0.014465   0.470912   4.947096
     7  I    0.000048   0.001028  -0.000428  -0.057688   0.254147  -0.053596
     8  C    0.002485  -0.044931   0.316213  -0.040897   0.003997   0.000040
     9  H   -0.000012   0.003423  -0.064315   0.000546   0.000504  -0.000038
    10  C   -0.000005  -0.000587   0.004693  -0.000007   0.000000   0.000000
    11  H    0.000000   0.000016  -0.000211  -0.000001   0.000000   0.000000
    12  C    0.000001   0.000212   0.002343  -0.000026   0.000001   0.000000
    13  S    0.000122  -0.000304  -0.070394   0.000288  -0.000191  -0.000004
    14  C   -0.000001  -0.000053   0.000323   0.000000   0.000000   0.000000
    15  O    0.000064  -0.002426  -0.000227  -0.000003   0.000000   0.000000
    16  H    0.383963  -0.028397   0.002030   0.000014   0.003855  -0.032825
    17  H   -0.024633   0.370143  -0.031853   0.003299  -0.000480   0.003036
    18  H   -0.000079   0.002881  -0.031631   0.381133  -0.025649   0.002334
    19  H   -0.026969   0.002582   0.000066   0.002335  -0.028273   0.383737
    20  H    0.000000  -0.000003   0.000020   0.000000   0.000000   0.000000
    21  H    0.000000  -0.000003  -0.000194   0.000002   0.000000   0.000000
    22  N    0.000087   0.000198  -0.053505   0.000143  -0.000049   0.000001
    23  H    0.000003   0.000252   0.000786   0.000149  -0.000002  -0.000002
    24  H    0.000085   0.003416  -0.001106  -0.000013  -0.000001  -0.000004
    25  O    0.000000   0.000008  -0.000001   0.000000   0.000000   0.000000
               7          8          9         10         11         12
     1  C    0.000048   0.002485  -0.000012  -0.000005   0.000000   0.000001
     2  C    0.001028  -0.044931   0.003423  -0.000587   0.000016   0.000212
     3  C   -0.000428   0.316213  -0.064315   0.004693  -0.000211   0.002343
     4  C   -0.057688  -0.040897   0.000546  -0.000007  -0.000001  -0.000026
     5  C    0.254147   0.003997   0.000504   0.000000   0.000000   0.000001
     6  C   -0.053596   0.000040  -0.000038   0.000000   0.000000   0.000000
     7  I    6.661907  -0.000144  -0.000035   0.000000   0.000000   0.000000
     8  C   -0.000144   5.183492   0.409283  -0.050730   0.003612  -0.040261
     9  H   -0.000035   0.409283   0.530362   0.000720   0.000256  -0.001390
    10  C    0.000000  -0.050730   0.000720   5.240761   0.389611   0.301505
    11  H    0.000000   0.003612   0.000256   0.389611   0.468766  -0.024055
    12  C    0.000000  -0.040261  -0.001390   0.301505  -0.024055   5.392564
    13  S    0.000008   0.287115  -0.043248  -0.057513   0.005696   0.230251
    14  C    0.000000  -0.000883  -0.000074   0.351573  -0.034648  -0.051415
    15  O    0.000000   0.000586  -0.000028  -0.088731   0.001080   0.001366
    16  H   -0.000156  -0.000107   0.000002   0.000000   0.000000   0.000000
    17  H    0.000017  -0.003009  -0.000027   0.000343   0.000004  -0.000247
    18  H    0.000265  -0.003002   0.003102  -0.000001   0.000000  -0.000004
    19  H    0.000130   0.000004   0.000000   0.000000   0.000000   0.000000
    20  H    0.000000   0.002694  -0.000174  -0.031211  -0.000035   0.383433
    21  H    0.000000  -0.002960   0.003020  -0.042992  -0.003163   0.378850
    22  N    0.000002   0.181171  -0.050109   0.184543  -0.034532  -0.058224
    23  H    0.000000  -0.027162  -0.003217  -0.028085  -0.003726   0.002771
    24  H    0.000000  -0.000492   0.000124  -0.007415   0.000596   0.000979
    25  O    0.000000  -0.000033   0.000001  -0.079996   0.001639  -0.000524
              13         14         15         16         17         18
     1  C    0.000122  -0.000001   0.000064   0.383963  -0.024633  -0.000079
     2  C   -0.000304  -0.000053  -0.002426  -0.028397   0.370143   0.002881
     3  C   -0.070394   0.000323  -0.000227   0.002030  -0.031853  -0.031631
     4  C    0.000288   0.000000  -0.000003   0.000014   0.003299   0.381133
     5  C   -0.000191   0.000000   0.000000   0.003855  -0.000480  -0.025649
     6  C   -0.000004   0.000000   0.000000  -0.032825   0.003036   0.002334
     7  I    0.000008   0.000000   0.000000  -0.000156   0.000017   0.000265
     8  C    0.287115  -0.000883   0.000586  -0.000107  -0.003009  -0.003002
     9  H   -0.043248  -0.000074  -0.000028   0.000002  -0.000027   0.003102
    10  C   -0.057513   0.351573  -0.088731   0.000000   0.000343  -0.000001
    11  H    0.005696  -0.034648   0.001080   0.000000   0.000004   0.000000
    12  C    0.230251  -0.051415   0.001366   0.000000  -0.000247  -0.000004
    13  S   15.611814  -0.003537  -0.000149   0.000002   0.000331   0.000184
    14  C   -0.003537   4.082912   0.281291   0.000000  -0.000067   0.000000
    15  O   -0.000149   0.281291   8.422951  -0.000004   0.008215   0.000000
    16  H    0.000002   0.000000  -0.000004   0.449940  -0.001391   0.000007
    17  H    0.000331  -0.000067   0.008215  -0.001391   0.433649  -0.000083
    18  H    0.000184   0.000000   0.000000   0.000007  -0.000083   0.443946
    19  H    0.000000   0.000000   0.000000  -0.001613  -0.000078  -0.000080
    20  H   -0.029758  -0.000670   0.000282   0.000000   0.000003   0.000000
    21  H   -0.042686   0.003460  -0.000060   0.000000   0.000000  -0.000001
    22  N   -0.072524  -0.052071  -0.024825   0.000002  -0.000669   0.000011
    23  H    0.003754   0.002374   0.000134   0.000000   0.000018  -0.000027
    24  H    0.000190  -0.027554   0.231442   0.000007  -0.000889   0.000000
    25  O    0.000714   0.591700  -0.060635   0.000000  -0.000064   0.000000
              19         20         21         22         23         24
     1  C   -0.026969   0.000000   0.000000   0.000087   0.000003   0.000085
     2  C    0.002582  -0.000003  -0.000003   0.000198   0.000252   0.003416
     3  C    0.000066   0.000020  -0.000194  -0.053505   0.000786  -0.001106
     4  C    0.002335   0.000000   0.000002   0.000143   0.000149  -0.000013
     5  C   -0.028273   0.000000   0.000000  -0.000049  -0.000002  -0.000001
     6  C    0.383737   0.000000   0.000000   0.000001  -0.000002  -0.000004
     7  I    0.000130   0.000000   0.000000   0.000002   0.000000   0.000000
     8  C    0.000004   0.002694  -0.002960   0.181171  -0.027162  -0.000492
     9  H    0.000000  -0.000174   0.003020  -0.050109  -0.003217   0.000124
    10  C    0.000000  -0.031211  -0.042992   0.184543  -0.028085  -0.007415
    11  H    0.000000  -0.000035  -0.003163  -0.034532  -0.003726   0.000596
    12  C    0.000000   0.383433   0.378850  -0.058224   0.002771   0.000979
    13  S    0.000000  -0.029758  -0.042686  -0.072524   0.003754   0.000190
    14  C    0.000000  -0.000670   0.003460  -0.052071   0.002374  -0.027554
    15  O    0.000000   0.000282  -0.000060  -0.024825   0.000134   0.231442
    16  H   -0.001613   0.000000   0.000000   0.000002   0.000000   0.000007
    17  H   -0.000078   0.000003   0.000000  -0.000669   0.000018  -0.000889
    18  H   -0.000080   0.000000  -0.000001   0.000011  -0.000027   0.000000
    19  H    0.436266   0.000000   0.000000   0.000000   0.000000   0.000000
    20  H    0.000000   0.422533  -0.021537   0.002942  -0.000059  -0.000050
    21  H    0.000000  -0.021537   0.516496   0.000512   0.000098  -0.000012
    22  N    0.000000   0.002942   0.000512   7.410837   0.323752   0.036800
    23  H    0.000000  -0.000059   0.000098   0.323752   0.347651  -0.000378
    24  H    0.000000  -0.000050  -0.000012   0.036800  -0.000378   0.232216
    25  O    0.000000   0.008243  -0.000040   0.002015  -0.000041   0.002604
              25
     1  C    0.000000
     2  C    0.000008
     3  C   -0.000001
     4  C    0.000000
     5  C    0.000000
     6  C    0.000000
     7  I    0.000000
     8  C   -0.000033
     9  H    0.000001
    10  C   -0.079996
    11  H    0.001639
    12  C   -0.000524
    13  S    0.000714
    14  C    0.591700
    15  O   -0.060635
    16  H    0.000000
    17  H   -0.000064
    18  H    0.000000
    19  H    0.000000
    20  H    0.008243
    21  H   -0.000040
    22  N    0.002015
    23  H   -0.000041
    24  H    0.002604
    25  O    8.111462
 Mulliken charges:
               1
     1  C   -0.204065
     2  C   -0.203340
     3  C    0.043256
     4  C   -0.158169
     5  C   -0.395201
     6  C   -0.142664
     7  I    0.194495
     8  C   -0.176077
     9  H    0.211323
    10  C   -0.086476
    11  H    0.229096
    12  C   -0.518131
    13  S    0.179839
    14  C    0.857338
    15  O   -0.770324
    16  H    0.224670
    17  H    0.244433
    18  H    0.226693
    19  H    0.231895
    20  H    0.263349
    21  H    0.211210
    22  N   -0.796509
    23  H    0.380955
    24  H    0.529455
    25  O   -0.577052
 Sum of Mulliken charges =   0.00000
 Mulliken charges with hydrogens summed into heavy atoms:
               1
     1  C    0.020605
     2  C    0.041093
     3  C    0.043256
     4  C    0.068523
     5  C   -0.395201
     6  C    0.089231
     7  I    0.194495
     8  C    0.035246
    10  C    0.142621
    12  C   -0.043572
    13  S    0.179839
    14  C    0.857338
    15  O   -0.240870
    22  N   -0.415554
    25  O   -0.577052
 DipInt: DoE/N= T F RetVal/Mat= T F Init=T NMatP=  1 IDeriv=0 Min/MaxMlt=  0  4
 Entering OneElI...
 OneElI was handed   235777134 working-precision words.
 Multipole integrals L=0 to 4 MinM= 0 MaxM= 0.
 Requested accuracy = 0.1000D-12
 ShPair: Thresh= 1.00D-13 NBox=     0 BxSize= 0.00D+00 RnKept= 1.86D+01
         NSMCal=                 3321 NSMKep=                2889
 PrsmSu:  NPrtUS=   1 ThrOK=F IAlg=1 NPAlg=1 LenDen=           0.
 Prism:   IPart=     0 DynPar=F LinDyn=F Incr=          28.
 PRISM was handed   235511420 working-precision words and  2889 shell-pairs
 IPart=  0 NShTot=        2889 NBatch=         112 AvBLen=        25.8
 PrSmSu:  NxtVal=             29.
 Electronic moments (au):
       -116.00000000        348.84168528        -25.45941820        -15.25871213
      -4118.77182815       -726.03996731       -312.25827424       -171.71561640
        -98.17242427         12.43325622      24610.94581202       -822.51338258
        -86.20207052       1999.35928130       -640.77458724        780.18556404
       1106.18997997        127.54885480       -448.83022028       -778.74622422
    -290377.77578564     -10588.09568784      -2353.65147526      10249.32732862
      -6457.72446558      -2787.58511041       -544.88229856       -268.55362224
        241.49293143     -21468.11865785      -9486.91228870      -2042.70937076
       3266.02463631       -406.60051614      -1465.44349422
 Electronic spatial extent (au):  <R**2>=           5157.0701
 DipInt: DoE/N= F T RetVal/Mat= T F Init=T NMatP=  1 IDeriv=0 Min/MaxMlt=  0  4
 Nuclear    moments (au):
        116.00000000       -347.98170332         24.49646438         14.02478067
       4014.05288637        647.95690240        232.08522251        185.31133480
        106.09483691         -7.46867085     -23972.37578243        808.10631908
         38.99408438      -1866.14873910        510.44947525       -836.65998365
      -1021.70695917       -137.85579639        445.43794602        775.68336672
     268810.90906535       8052.37189780       1251.77902607      -9429.45637439
       6713.48160872       2685.26661240        663.50997821        285.43968903
       -220.89684164      17969.11435445       6433.75426553       1415.46543876
      -3204.26206228        398.59123058       1396.90868999
 Total      moments (au):
          0.00000000          0.85998196         -0.96295382         -1.23393146
       -104.71894179        -78.08306491        -80.17305173         13.59571840
          7.92241264          4.96458537        638.57002959        -14.40706350
        -47.20798614        133.21054220       -130.32511199        -56.47441961
         84.48302080        -10.30694159         -3.39227426         -3.06285751
     -21566.86672029      -2535.72379003      -1101.87244919        819.87095423
        255.75714315       -102.31849800        118.62767965         16.88606679
         20.59608980      -3499.00430341      -3053.15802317       -627.24393200
         61.76257403         -8.00928556        -68.53480423
 Traceless Quadrup. (au):
        -17.06058898          9.57528790          7.48530108         13.59571840
          7.92241264          4.96458537
 Charge=              0.0000 electrons
 Dipole moment (field-independent basis, Debye):
    X=              2.1859    Y=             -2.4476    Z=             -3.1363  Tot=              4.5393
 Quadrupole moment (field-independent basis, Debye-Ang):
   XX=           -140.8506   YY=           -105.0244   ZZ=           -107.8355
   XY=             18.2867   XZ=             10.6559   YZ=              6.6775
 Traceless Quadrupole moment (field-independent basis, Debye-Ang):
   XX=            -22.9471   YY=             12.8791   ZZ=             10.0680
   XY=             18.2867   XZ=             10.6559   YZ=              6.6775
 Octapole moment (field-independent basis, Debye-Ang**2):
  XXX=            454.5095  YYY=            -10.2544  ZZZ=            -33.6008  XYY=             94.8141
  XXY=            -92.7604  XXZ=            -40.1963  XZZ=             60.1318  YZZ=             -7.3361
  YYZ=             -2.4145  XYZ=             -2.1800
 Hexadecapole moment (field-independent basis, Debye-Ang**3):
 XXXX=          -8123.1156 YYYY=           -955.0751 ZZZZ=           -415.0180 XXXY=            308.8027
 XXXZ=             96.3304 YYYX=            -38.5381 YYYZ=             44.6809 ZZZX=              6.3601
 ZZZY=              7.7575 XXYY=          -1317.8927 XXZZ=          -1149.9656 YYZZ=           -236.2501
 XXYZ=             23.2627 YYXZ=             -3.0167 ZZXY=            -25.8135
 N-N= 1.050606019706D+03 E-N=-4.446328414234D+03  KE= 9.885902563445D+02
 Entering OneElI...
 OneElI was handed   235812264 working-precision words.
 Calculate electrostatic properties
    NBasis =   228  MinDer = 0  MaxDer = 0
    NGrid  =    25  NMatD  =   1
 Requested accuracy = 0.1000D-12
 ShPair: Thresh= 1.00D-13 NBox=     0 BxSize= 0.00D+00 RnKept= 1.86D+01
         NSMCal=                 3321 NSMKep=                2643
 PrsmSu:  NPrtUS=   1 ThrOK=F IAlg=1 NPAlg=1 LenDen=           0.
 Prism:   IPart=     0 DynPar=F LinDyn=F Incr=         512.
 PRISM was handed   235570296 working-precision words and  2643 shell-pairs
 IPart=  0 NShTot=       66075 NBatch=        2724 AvBLen=        24.3
 PrSmSu:  NxtVal=            513.
 --------------------------------------------------------
       Center         ----      EFG at Nuclei      ----
                      3XX-RR        3YY-RR        3ZZ-RR
 --------------------------------------------------------
     1   Atom        0.182801      0.104445     -0.287246
     2   Atom        0.173991      0.118131     -0.292122
     3   Atom        0.122657      0.111060     -0.233718
     4   Atom        0.162188      0.089894     -0.252081
     5   Atom       -0.188843      0.249689     -0.060846
     6   Atom        0.192103      0.084463     -0.276565
     7   Atom       -0.070644      0.027833      0.042810
     8   Atom        0.019169      0.133961     -0.153130
     9   Atom        0.081245     -0.161720      0.080475
    10   Atom       -0.178663      0.071611      0.107053
    11   Atom        0.039708      0.096794     -0.136502
    12   Atom       -0.036820      0.083953     -0.047133
    13   Atom       -1.735145      2.354653     -0.619508
    14   Atom        0.217340      0.153757     -0.371097
    15   Atom       -0.714081     -0.095471      0.809552
    16   Atom        0.131570     -0.246557      0.114986
    17   Atom       -0.245678      0.094276      0.151402
    18   Atom        0.127509     -0.245378      0.117869
    19   Atom       -0.128204     -0.018728      0.146932
    20   Atom       -0.150625      0.146479      0.004147
    21   Atom        0.146061     -0.226591      0.080530
    22   Atom       -0.612982      1.097378     -0.484396
    23   Atom        0.137020      0.174212     -0.311232
    24   Atom       -0.231612      0.114485      0.117128
    25   Atom       -0.825138      1.687536     -0.862398
 --------------------------------------------------------
                        XY            XZ            YZ
 --------------------------------------------------------
     1   Atom        0.018545     -0.003953      0.152011
     2   Atom        0.017794     -0.006171      0.157792
     3   Atom       -0.061051     -0.016473      0.143635
     4   Atom       -0.013444     -0.010768      0.136298
     5   Atom        0.202534      0.070150      0.115909
     6   Atom        0.000323     -0.009276      0.140040
     7   Atom        0.041775      0.016299     -0.006845
     8   Atom        0.040251     -0.034923      0.154360
     9   Atom        0.128996      0.051312     -0.136945
    10   Atom       -0.044387      0.092092      0.022895
    11   Atom       -0.068715     -0.162354     -0.116694
    12   Atom       -0.048502     -0.197325      0.026184
    13   Atom       -1.594410      0.432425      0.297900
    14   Atom       -0.116672     -0.347062      0.084233
    15   Atom       -0.628005      0.736313      0.240263
    16   Atom        0.063851      0.022615     -0.143779
    17   Atom        0.138322      0.055295     -0.028848
    18   Atom        0.062581      0.021902     -0.144473
    19   Atom       -0.209545     -0.067097     -0.060154
    20   Atom        0.021709      0.200399     -0.014134
    21   Atom        0.032481      0.010903     -0.151640
    22   Atom        0.155301     -0.041869      0.121125
    23   Atom        0.045000      0.105175     -0.162384
    24   Atom        0.099137      0.174799     -0.045740
    25   Atom       -0.063518     -0.025654      0.165346
 --------------------------------------------------------


 ---------------------------------------------------------------------------------
              Nuclear Quadrupole Coupling Constant in Principal Axis System
 ---------------------------------------------------------------------------------

       Atom             a.u.   MegaHertz   Gauss  10(-4) cm-1        Axes

              Baa    -0.0884   -14.740    -5.260    -4.917  0.9301 -0.3423 -0.1334
     7 I(127) Bbb     0.0429     7.155     2.553     2.387  0.3673  0.8710  0.3263
              Bcc     0.0455     7.585     2.707     2.530  0.0045 -0.3525  0.9358
 
              Baa    -0.6450     3.098     1.105     1.033  0.9397 -0.1064  0.3251
    22 N(14)  Bbb    -0.4748     2.281     0.814     0.761 -0.3307 -0.0400  0.9429
              Bcc     1.1199    -5.378    -1.919    -1.794  0.0873  0.9935  0.0727
 

 ---------------------------------------------------------------------------------

 No NMR shielding tensors so no spin-rotation constants.
 Leave Link  601 at Fri Jan 17 11:57:34 2014, MaxMem=   235929600 cpu:         0.3
 FitSet:  NAtFit=    25 NAtPot=    25 NAtFrz=     0 MDM=    29 TotChg=   0.00000
 Merz-Kollman atomic radii used.
 Read replacement radii for each type of atom:
 Rad(53) =   2.700000000000D+00
 Atom Element Radius
    1     6    1.50
    2     6    1.50
    3     6    1.50
    4     6    1.50
    5     6    1.50
    6     6    1.50
    7    53    2.70
    8     6    1.50
    9     1    1.20
   10     6    1.50
   11     1    1.20
   12     6    1.50
   13    16    1.75
   14     6    1.50
   15     8    1.40
   16     1    1.20
   17     1    1.20
   18     1    1.20
   19     1    1.20
   20     1    1.20
   21     1    1.20
   22     7    1.50
   23     1    1.20
   24     1    1.20
   25     8    1.40
 Generate VDW surfaces: Layer= 5 Dens= 2 Start= 1.400 Inc= 0.179

 **********************************************************************

            Electrostatic Properties Using The SCF Density

 **********************************************************************

       Atomic Center    1 is at   0.497510  2.209974  0.753224
       Atomic Center    2 is at  -0.588630  1.380319  0.488408
       Atomic Center    3 is at  -0.378873  0.072361  0.031232
       Atomic Center    4 is at   0.928793 -0.391308 -0.149373
       Atomic Center    5 is at   2.006528  0.450783  0.123967
       Atomic Center    6 is at   1.807762  1.753012  0.574033
       Atomic Center    7 is at   4.003130 -0.281804 -0.161339
       Atomic Center    8 is at  -1.537587 -0.859389 -0.261310
       Atomic Center    9 is at  -1.138328 -1.794614 -0.675137
       Atomic Center   10 is at  -3.937001 -0.611194 -0.840859
       Atomic Center   11 is at  -4.471395 -0.977441 -1.726429
       Atomic Center   12 is at  -3.951704 -1.674411  0.263431
       Atomic Center   13 is at  -2.479285 -1.274322  1.275065
       Atomic Center   14 is at  -4.684396  0.668613 -0.388058
       Atomic Center   15 is at  -4.014984  1.800834 -0.643498
       Atomic Center   16 is at   0.330654  3.223280  1.107704
       Atomic Center   17 is at  -1.600492  1.741633  0.642601
       Atomic Center   18 is at   1.099355 -1.404008 -0.500777
       Atomic Center   19 is at   2.649302  2.403952  0.783955
       Atomic Center   20 is at  -4.855030 -1.593991  0.870594
       Atomic Center   21 is at  -3.874288 -2.685729 -0.147940
       Atomic Center   22 is at  -2.537819 -0.282681 -1.196987
       Atomic Center   23 is at  -2.319852 -0.575561 -2.145713
       Atomic Center   24 is at  -3.143588  1.495017 -1.004687
       Atomic Center   25 is at  -5.782937  0.633967  0.113060
      ESP Fit Center   26 is at   0.497510  2.209974  2.853224
      ESP Fit Center   27 is at   1.215752  2.209974  2.726578
      ESP Fit Center   28 is at   0.856631  2.831990  2.726578
      ESP Fit Center   29 is at  -0.220732  2.209974  2.726578
      ESP Fit Center   30 is at   0.138389  1.587958  2.726578
      ESP Fit Center   31 is at   0.856631  1.587958  2.726578
      ESP Fit Center   32 is at   1.633079  2.939760  2.361917
      ESP Fit Center   33 is at  -0.797665  2.590272  2.361917
      ESP Fit Center   34 is at   0.305406  0.873860  2.361917
      ESP Fit Center   35 is at   1.059505  3.939616 -0.296776
      ESP Fit Center   36 is at  -0.411817  3.784974 -0.296776
      ESP Fit Center   37 is at   1.058260  3.437845 -0.855469
      ESP Fit Center   38 is at   0.305406  3.546089 -0.855469
      ESP Fit Center   39 is at  -0.386456  3.230126 -0.855469
      ESP Fit Center   40 is at   0.856631  2.831990 -1.220131
      ESP Fit Center   41 is at   0.138389  2.831990 -1.220131
      ESP Fit Center   42 is at   0.497510  2.209974 -1.346776
      ESP Fit Center   43 is at  -0.588630  1.380319  2.588408
      ESP Fit Center   44 is at  -0.947751  2.002335  2.461762
      ESP Fit Center   45 is at  -1.306872  1.380319  2.461762
      ESP Fit Center   46 is at  -0.947751  0.758303  2.461762
      ESP Fit Center   47 is at  -0.229509  0.758303  2.461762
      ESP Fit Center   48 is at  -1.154591  3.369467  0.123747
      ESP Fit Center   49 is at  -1.497957  2.955319 -0.561592
      ESP Fit Center   50 is at  -0.780734  2.716434 -1.120285
      ESP Fit Center   51 is at  -1.472596  2.400471 -1.120285
      ESP Fit Center   52 is at  -0.229509  2.002335 -1.484947
      ESP Fit Center   53 is at  -0.947751  2.002335 -1.484947
      ESP Fit Center   54 is at  -0.588630  1.380319 -1.611592
      ESP Fit Center   55 is at  -0.378873  0.072361  2.131232
      ESP Fit Center   56 is at   0.339369  0.072361  2.004586
      ESP Fit Center   57 is at  -0.019752 -0.549655  2.004586
      ESP Fit Center   58 is at   0.181877  1.300232 -1.577461
      ESP Fit Center   59 is at  -0.019752  0.694377 -1.942123
      ESP Fit Center   60 is at  -0.737994  0.694377 -1.942123
      ESP Fit Center   61 is at  -0.378873  0.072361 -2.068768
      ESP Fit Center   62 is at   0.569672 -1.013324  1.823981
      ESP Fit Center   63 is at   0.044827 -1.411459  1.459320
      ESP Fit Center   64 is at   0.736689 -1.727422  1.459320
      ESP Fit Center   65 is at   0.019466 -1.966308  0.900627
      ESP Fit Center   66 is at   0.736689  0.944807 -1.758066
      ESP Fit Center   67 is at   0.569672  0.230708 -2.122728
      ESP Fit Center   68 is at   0.210551 -0.391308 -2.122728
      ESP Fit Center   69 is at   0.569672 -1.013324 -2.122728
      ESP Fit Center   70 is at   1.807762  1.753012  2.674033
      ESP Fit Center   71 is at   2.166883  2.375028  2.547387
      ESP Fit Center   72 is at   1.448641  1.130996  2.547387
      ESP Fit Center   73 is at   2.369757  3.482654 -0.475967
      ESP Fit Center   74 is at   1.617661  3.561703 -0.475967
      ESP Fit Center   75 is at   1.615658  3.089127 -1.034660
      ESP Fit Center   76 is at   1.448641  2.375028 -1.399322
      ESP Fit Center   77 is at   4.003130 -0.281804  3.618661
      ESP Fit Center   78 is at   4.740572 -0.281804  3.546029
      ESP Fit Center   79 is at   4.371851  0.356839  3.546029
      ESP Fit Center   80 is at   3.634409  0.356839  3.546029
      ESP Fit Center   81 is at   3.265689 -0.281804  3.546029
      ESP Fit Center   82 is at   3.634409 -0.920447  3.546029
      ESP Fit Center   83 is at   4.371851 -0.920447  3.546029
      ESP Fit Center   84 is at   5.449674 -0.281804  3.330926
      ESP Fit Center   85 is at   5.255873  0.441468  3.330926
      ESP Fit Center   86 is at   4.726402  0.970940  3.330926
      ESP Fit Center   87 is at   4.003130  1.164740  3.330926
      ESP Fit Center   88 is at   3.279858  0.970940  3.330926
      ESP Fit Center   89 is at   2.750387  0.441468  3.330926
      ESP Fit Center   90 is at   2.556587 -0.281804  3.330926
      ESP Fit Center   91 is at   2.750387 -1.005075  3.330926
      ESP Fit Center   92 is at   3.279858 -1.534547  3.330926
      ESP Fit Center   93 is at   4.003130 -1.728347  3.330926
      ESP Fit Center   94 is at   4.726402 -1.534547  3.330926
      ESP Fit Center   95 is at   5.255873 -1.005075  3.330926
      ESP Fit Center   96 is at   6.103186 -0.281804  2.981616
      ESP Fit Center   97 is at   5.976537  0.436458  2.981616
      ESP Fit Center   98 is at   5.611866  1.068086  2.981616
      ESP Fit Center   99 is at   5.053158  1.536898  2.981616
      ESP Fit Center  100 is at   4.367801  1.786347  2.981616
      ESP Fit Center  101 is at   3.638459  1.786347  2.981616
      ESP Fit Center  102 is at   2.953102  1.536898  2.981616
      ESP Fit Center  103 is at   2.394394  1.068086  2.981616
      ESP Fit Center  104 is at   2.029724  0.436458  2.981616
      ESP Fit Center  105 is at   1.903075 -0.281804  2.981616
      ESP Fit Center  106 is at   2.029724 -1.000065  2.981616
      ESP Fit Center  107 is at   2.394394 -1.631693  2.981616
      ESP Fit Center  108 is at   2.953102 -2.100505  2.981616
      ESP Fit Center  109 is at   3.638459 -2.349955  2.981616
      ESP Fit Center  110 is at   4.367801 -2.349955  2.981616
      ESP Fit Center  111 is at   5.053158 -2.100505  2.981616
      ESP Fit Center  112 is at   5.611866 -1.631693  2.981616
      ESP Fit Center  113 is at   5.976537 -1.000065  2.981616
      ESP Fit Center  114 is at   6.675994 -0.281804  2.511525
      ESP Fit Center  115 is at   6.576877  0.439326  2.511525
      ESP Fit Center  116 is at   6.286877  1.106973  2.511525
      ESP Fit Center  117 is at   5.827502  1.671621  2.511525
      ESP Fit Center  118 is at   5.232821  2.091392  2.511525
      ESP Fit Center  119 is at   4.546940  2.335155  2.511525
      ESP Fit Center  120 is at   3.820727  2.384829  2.511525
      ESP Fit Center  121 is at   3.108043  2.236731  2.511525
      ESP Fit Center  122 is at   1.551549  0.783068  2.511525
      ESP Fit Center  123 is at   1.355162  0.082151  2.511525
      ESP Fit Center  124 is at   1.355162 -0.645759  2.511525
      ESP Fit Center  125 is at   1.551549 -1.346675  2.511525
      ESP Fit Center  126 is at   1.929760 -1.968616  2.511525
      ESP Fit Center  127 is at   2.461742 -2.465453  2.511525
      ESP Fit Center  128 is at   3.108043 -2.800339  2.511525
      ESP Fit Center  129 is at   3.820727 -2.948436  2.511525
      ESP Fit Center  130 is at   4.546940 -2.898762  2.511525
      ESP Fit Center  131 is at   5.232821 -2.655000  2.511525
      ESP Fit Center  132 is at   5.827502 -2.235229  2.511525
      ESP Fit Center  133 is at   6.286877 -1.670581  2.511525
      ESP Fit Center  134 is at   6.576877 -1.002934  2.511525
      ESP Fit Center  135 is at   7.146085 -0.281804  1.938716
      ESP Fit Center  136 is at   7.061367  0.443012  1.938716
      ESP Fit Center  137 is at   6.811777  1.128752  1.938716
      ESP Fit Center  138 is at   6.410773  1.738449  1.938716
      ESP Fit Center  139 is at   5.879973  2.239233  1.938716
      ESP Fit Center  140 is at   5.247991  2.604108  1.938716
      ESP Fit Center  141 is at   4.548899  2.813403  1.938716
      ESP Fit Center  142 is at   3.820384  2.855834  1.938716
      ESP Fit Center  143 is at   0.881427  0.083071  1.938716
      ESP Fit Center  144 is at   0.881427 -0.646679  1.938716
      ESP Fit Center  145 is at   1.049718 -1.356758  1.938716
      ESP Fit Center  146 is at   1.377229 -2.008886  1.938716
      ESP Fit Center  147 is at   1.846303 -2.567906  1.938716
      ESP Fit Center  148 is at   2.431653 -3.003683  1.938716
      ESP Fit Center  149 is at   3.101720 -3.292722  1.938716
      ESP Fit Center  150 is at   3.820384 -3.419441  1.938716
      ESP Fit Center  151 is at   4.548899 -3.377010  1.938716
      ESP Fit Center  152 is at   5.247991 -3.167716  1.938716
      ESP Fit Center  153 is at   5.879973 -2.802841  1.938716
      ESP Fit Center  154 is at   6.410773 -2.302056  1.938716
      ESP Fit Center  155 is at   6.811777 -1.692359  1.938716
      ESP Fit Center  156 is at   7.061367 -1.006619  1.938716
      ESP Fit Center  157 is at   7.495395 -0.281804  1.285204
      ESP Fit Center  158 is at   7.419080  0.444279  1.285204
      ESP Fit Center  159 is at   7.193473  1.138628  1.285204
      ESP Fit Center  160 is at   6.828432  1.770898  1.285204
      ESP Fit Center  161 is at   6.339911  2.313455  1.285204
      ESP Fit Center  162 is at   5.749262  2.742586  1.285204
      ESP Fit Center  163 is at   5.082299  3.039537  1.285204
      ESP Fit Center  164 is at   4.368171  3.191330  1.285204
      ESP Fit Center  165 is at   1.177829 -2.334505  1.285204
      ESP Fit Center  166 is at   1.666349 -2.877062  1.285204
      ESP Fit Center  167 is at   2.256998 -3.306194  1.285204
      ESP Fit Center  168 is at   2.923961 -3.603145  1.285204
      ESP Fit Center  169 is at   3.638089 -3.754937  1.285204
      ESP Fit Center  170 is at   4.368171 -3.754937  1.285204
      ESP Fit Center  171 is at   5.082299 -3.603145  1.285204
      ESP Fit Center  172 is at   5.749262 -3.306194  1.285204
      ESP Fit Center  173 is at   6.339911 -2.877062  1.285204
      ESP Fit Center  174 is at   6.828432 -2.334505  1.285204
      ESP Fit Center  175 is at   7.193473 -1.702236  1.285204
      ESP Fit Center  176 is at   7.419080 -1.007886  1.285204
      ESP Fit Center  177 is at   7.710498 -0.281804  0.576102
      ESP Fit Center  178 is at   7.639262  0.441468  0.576102
      ESP Fit Center  179 is at   7.428292  1.136945  0.576102
      ESP Fit Center  180 is at   7.085694  1.777900  0.576102
      ESP Fit Center  181 is at   6.624635  2.339702  0.576102
      ESP Fit Center  182 is at   6.062834  2.800760  0.576102
      ESP Fit Center  183 is at   5.421879  3.143358  0.576102
      ESP Fit Center  184 is at   4.726402  3.354329  0.576102
      ESP Fit Center  185 is at   4.003130  3.425565  0.576102
      ESP Fit Center  186 is at   1.381625 -2.903309  0.576102
      ESP Fit Center  187 is at   1.943427 -3.364368  0.576102
      ESP Fit Center  188 is at   2.584382 -3.706965  0.576102
      ESP Fit Center  189 is at   3.279858 -3.917936  0.576102
      ESP Fit Center  190 is at   4.003130 -3.989172  0.576102
      ESP Fit Center  191 is at   4.726402 -3.917936  0.576102
      ESP Fit Center  192 is at   5.421879 -3.706965  0.576102
      ESP Fit Center  193 is at   6.062834 -3.364368  0.576102
      ESP Fit Center  194 is at   6.624635 -2.903309  0.576102
      ESP Fit Center  195 is at   7.085694 -2.341507  0.576102
      ESP Fit Center  196 is at   7.428292 -1.700552  0.576102
      ESP Fit Center  197 is at   7.639262 -1.005075  0.576102
      ESP Fit Center  198 is at   7.783130 -0.281804 -0.161339
      ESP Fit Center  199 is at   7.714821  0.433566 -0.161339
      ESP Fit Center  200 is at   7.512361  1.123080 -0.161339
      ESP Fit Center  201 is at   7.183068  1.761819 -0.161339
      ESP Fit Center  202 is at   6.738845  2.326695 -0.161339
      ESP Fit Center  203 is at   6.195745  2.797293 -0.161339
      ESP Fit Center  204 is at   5.573399  3.156605 -0.161339
      ESP Fit Center  205 is at   4.894299  3.391644 -0.161339
      ESP Fit Center  206 is at   4.182990  3.493915 -0.161339
      ESP Fit Center  207 is at   1.527757 -3.138537 -0.161339
      ESP Fit Center  208 is at   2.113130 -3.555380 -0.161339
      ESP Fit Center  209 is at   2.766813 -3.853907 -0.161339
      ESP Fit Center  210 is at   3.465180 -4.023329 -0.161339
      ESP Fit Center  211 is at   4.182990 -4.057522 -0.161339
      ESP Fit Center  212 is at   4.894299 -3.955251 -0.161339
      ESP Fit Center  213 is at   5.573399 -3.720213 -0.161339
      ESP Fit Center  214 is at   6.195745 -3.360901 -0.161339
      ESP Fit Center  215 is at   6.738845 -2.890302 -0.161339
      ESP Fit Center  216 is at   7.183068 -2.325426 -0.161339
      ESP Fit Center  217 is at   7.512361 -1.686688 -0.161339
      ESP Fit Center  218 is at   7.714821 -0.997173 -0.161339
      ESP Fit Center  219 is at   7.710498 -0.281804 -0.898780
      ESP Fit Center  220 is at   7.639262  0.441468 -0.898780
      ESP Fit Center  221 is at   7.428292  1.136945 -0.898780
      ESP Fit Center  222 is at   7.085694  1.777900 -0.898780
      ESP Fit Center  223 is at   6.624635  2.339702 -0.898780
      ESP Fit Center  224 is at   6.062834  2.800760 -0.898780
      ESP Fit Center  225 is at   5.421879  3.143358 -0.898780
      ESP Fit Center  226 is at   4.726402  3.354329 -0.898780
      ESP Fit Center  227 is at   4.003130  3.425565 -0.898780
      ESP Fit Center  228 is at   3.279858  3.354329 -0.898780
      ESP Fit Center  229 is at   2.584382  3.143358 -0.898780
      ESP Fit Center  230 is at   1.943427 -3.364368 -0.898780
      ESP Fit Center  231 is at   2.584382 -3.706965 -0.898780
      ESP Fit Center  232 is at   3.279858 -3.917936 -0.898780
      ESP Fit Center  233 is at   4.003130 -3.989172 -0.898780
      ESP Fit Center  234 is at   4.726402 -3.917936 -0.898780
      ESP Fit Center  235 is at   5.421879 -3.706965 -0.898780
      ESP Fit Center  236 is at   6.062834 -3.364368 -0.898780
      ESP Fit Center  237 is at   6.624635 -2.903309 -0.898780
      ESP Fit Center  238 is at   7.085694 -2.341507 -0.898780
      ESP Fit Center  239 is at   7.428292 -1.700552 -0.898780
      ESP Fit Center  240 is at   7.639262 -1.005075 -0.898780
      ESP Fit Center  241 is at   7.495395 -0.281804 -1.607882
      ESP Fit Center  242 is at   7.419080  0.444279 -1.607882
      ESP Fit Center  243 is at   7.193473  1.138628 -1.607882
      ESP Fit Center  244 is at   6.828432  1.770898 -1.607882
      ESP Fit Center  245 is at   6.339911  2.313455 -1.607882
      ESP Fit Center  246 is at   5.749262  2.742586 -1.607882
      ESP Fit Center  247 is at   5.082299  3.039537 -1.607882
      ESP Fit Center  248 is at   4.368171  3.191330 -1.607882
      ESP Fit Center  249 is at   3.638089  3.191330 -1.607882
      ESP Fit Center  250 is at   2.923961  3.039537 -1.607882
      ESP Fit Center  251 is at   2.256998  2.742586 -1.607882
      ESP Fit Center  252 is at   1.666349  2.313455 -1.607882
      ESP Fit Center  253 is at   1.177829  1.770898 -1.607882
      ESP Fit Center  254 is at   0.812788  1.138628 -1.607882
      ESP Fit Center  255 is at   1.666349 -2.877062 -1.607882
      ESP Fit Center  256 is at   2.256998 -3.306194 -1.607882
      ESP Fit Center  257 is at   2.923961 -3.603145 -1.607882
      ESP Fit Center  258 is at   3.638089 -3.754937 -1.607882
      ESP Fit Center  259 is at   4.368171 -3.754937 -1.607882
      ESP Fit Center  260 is at   5.082299 -3.603145 -1.607882
      ESP Fit Center  261 is at   5.749262 -3.306194 -1.607882
      ESP Fit Center  262 is at   6.339911 -2.877062 -1.607882
      ESP Fit Center  263 is at   6.828432 -2.334505 -1.607882
      ESP Fit Center  264 is at   7.193473 -1.702236 -1.607882
      ESP Fit Center  265 is at   7.419080 -1.007886 -1.607882
      ESP Fit Center  266 is at   7.146085 -0.281804 -2.261394
      ESP Fit Center  267 is at   7.061367  0.443012 -2.261394
      ESP Fit Center  268 is at   6.811777  1.128752 -2.261394
      ESP Fit Center  269 is at   6.410773  1.738449 -2.261394
      ESP Fit Center  270 is at   5.879973  2.239233 -2.261394
      ESP Fit Center  271 is at   5.247991  2.604108 -2.261394
      ESP Fit Center  272 is at   4.548899  2.813403 -2.261394
      ESP Fit Center  273 is at   3.820384  2.855834 -2.261394
      ESP Fit Center  274 is at   3.101720  2.729114 -2.261394
      ESP Fit Center  275 is at   2.431653  2.440075 -2.261394
      ESP Fit Center  276 is at   1.846303  2.004299 -2.261394
      ESP Fit Center  277 is at   1.377229  1.445278 -2.261394
      ESP Fit Center  278 is at   1.049718  0.793150 -2.261394
      ESP Fit Center  279 is at   0.881427  0.083071 -2.261394
      ESP Fit Center  280 is at   0.881427 -0.646679 -2.261394
      ESP Fit Center  281 is at   1.049718 -1.356758 -2.261394
      ESP Fit Center  282 is at   1.377229 -2.008886 -2.261394
      ESP Fit Center  283 is at   1.846303 -2.567906 -2.261394
      ESP Fit Center  284 is at   2.431653 -3.003683 -2.261394
      ESP Fit Center  285 is at   3.101720 -3.292722 -2.261394
      ESP Fit Center  286 is at   3.820384 -3.419441 -2.261394
      ESP Fit Center  287 is at   4.548899 -3.377010 -2.261394
      ESP Fit Center  288 is at   5.247991 -3.167716 -2.261394
      ESP Fit Center  289 is at   5.879973 -2.802841 -2.261394
      ESP Fit Center  290 is at   6.410773 -2.302056 -2.261394
      ESP Fit Center  291 is at   6.811777 -1.692359 -2.261394
      ESP Fit Center  292 is at   7.061367 -1.006619 -2.261394
      ESP Fit Center  293 is at   6.675994 -0.281804 -2.834203
      ESP Fit Center  294 is at   6.576877  0.439326 -2.834203
      ESP Fit Center  295 is at   6.286877  1.106973 -2.834203
      ESP Fit Center  296 is at   5.827502  1.671621 -2.834203
      ESP Fit Center  297 is at   5.232821  2.091392 -2.834203
      ESP Fit Center  298 is at   4.546940  2.335155 -2.834203
      ESP Fit Center  299 is at   3.820727  2.384829 -2.834203
      ESP Fit Center  300 is at   3.108043  2.236731 -2.834203
      ESP Fit Center  301 is at   2.461742  1.901845 -2.834203
      ESP Fit Center  302 is at   1.929760  1.405008 -2.834203
      ESP Fit Center  303 is at   1.551549  0.783068 -2.834203
      ESP Fit Center  304 is at   1.355162  0.082151 -2.834203
      ESP Fit Center  305 is at   1.355162 -0.645759 -2.834203
      ESP Fit Center  306 is at   1.551549 -1.346675 -2.834203
      ESP Fit Center  307 is at   1.929760 -1.968616 -2.834203
      ESP Fit Center  308 is at   2.461742 -2.465453 -2.834203
      ESP Fit Center  309 is at   3.108043 -2.800339 -2.834203
      ESP Fit Center  310 is at   3.820727 -2.948436 -2.834203
      ESP Fit Center  311 is at   4.546940 -2.898762 -2.834203
      ESP Fit Center  312 is at   5.232821 -2.655000 -2.834203
      ESP Fit Center  313 is at   5.827502 -2.235229 -2.834203
      ESP Fit Center  314 is at   6.286877 -1.670581 -2.834203
      ESP Fit Center  315 is at   6.576877 -1.002934 -2.834203
      ESP Fit Center  316 is at   6.103186 -0.281804 -3.304294
      ESP Fit Center  317 is at   5.976537  0.436458 -3.304294
      ESP Fit Center  318 is at   5.611866  1.068086 -3.304294
      ESP Fit Center  319 is at   5.053158  1.536898 -3.304294
      ESP Fit Center  320 is at   4.367801  1.786347 -3.304294
      ESP Fit Center  321 is at   3.638459  1.786347 -3.304294
      ESP Fit Center  322 is at   2.953102  1.536898 -3.304294
      ESP Fit Center  323 is at   2.394394  1.068086 -3.304294
      ESP Fit Center  324 is at   2.029724  0.436458 -3.304294
      ESP Fit Center  325 is at   1.903075 -0.281804 -3.304294
      ESP Fit Center  326 is at   2.029724 -1.000065 -3.304294
      ESP Fit Center  327 is at   2.394394 -1.631693 -3.304294
      ESP Fit Center  328 is at   2.953102 -2.100505 -3.304294
      ESP Fit Center  329 is at   3.638459 -2.349955 -3.304294
      ESP Fit Center  330 is at   4.367801 -2.349955 -3.304294
      ESP Fit Center  331 is at   5.053158 -2.100505 -3.304294
      ESP Fit Center  332 is at   5.611866 -1.631693 -3.304294
      ESP Fit Center  333 is at   5.976537 -1.000065 -3.304294
      ESP Fit Center  334 is at   5.449674 -0.281804 -3.653604
      ESP Fit Center  335 is at   5.255873  0.441468 -3.653604
      ESP Fit Center  336 is at   4.726402  0.970940 -3.653604
      ESP Fit Center  337 is at   4.003130  1.164740 -3.653604
      ESP Fit Center  338 is at   3.279858  0.970940 -3.653604
      ESP Fit Center  339 is at   2.750387  0.441468 -3.653604
      ESP Fit Center  340 is at   2.556587 -0.281804 -3.653604
      ESP Fit Center  341 is at   2.750387 -1.005075 -3.653604
      ESP Fit Center  342 is at   3.279858 -1.534547 -3.653604
      ESP Fit Center  343 is at   4.003130 -1.728347 -3.653604
      ESP Fit Center  344 is at   4.726402 -1.534547 -3.653604
      ESP Fit Center  345 is at   5.255873 -1.005075 -3.653604
      ESP Fit Center  346 is at   4.740572 -0.281804 -3.868707
      ESP Fit Center  347 is at   4.371851  0.356839 -3.868707
      ESP Fit Center  348 is at   3.634409  0.356839 -3.868707
      ESP Fit Center  349 is at   3.265689 -0.281804 -3.868707
      ESP Fit Center  350 is at   3.634409 -0.920447 -3.868707
      ESP Fit Center  351 is at   4.371851 -0.920447 -3.868707
      ESP Fit Center  352 is at   4.003130 -0.281804 -3.941339
      ESP Fit Center  353 is at  -0.187733 -0.859389 -1.870003
      ESP Fit Center  354 is at  -0.732441 -3.043805  0.372326
      ESP Fit Center  355 is at  -0.075703 -2.566656  0.372326
      ESP Fit Center  356 is at  -1.719128 -3.326057 -0.301302
      ESP Fit Center  357 is at  -0.940903 -3.420551 -0.301302
      ESP Fit Center  358 is at  -0.207907 -3.142562 -0.301302
      ESP Fit Center  359 is at  -2.364298 -2.880728 -1.048972
      ESP Fit Center  360 is at  -1.719128 -3.326057 -1.048972
      ESP Fit Center  361 is at  -0.940903 -3.420551 -1.048972
      ESP Fit Center  362 is at  -0.207907 -3.142562 -1.048972
      ESP Fit Center  363 is at  -2.200953 -2.566656 -1.722600
      ESP Fit Center  364 is at  -1.544214 -3.043805 -1.722600
      ESP Fit Center  365 is at  -0.732441 -3.043805 -1.722600
      ESP Fit Center  366 is at  -0.075703 -2.566656 -1.722600
      ESP Fit Center  367 is at  -0.409403 -1.794614 -2.188765
      ESP Fit Center  368 is at  -1.502790 -2.425881 -2.188765
      ESP Fit Center  369 is at  -0.773865 -2.425881 -2.188765
      ESP Fit Center  370 is at  -1.138328 -1.794614 -2.355137
      ESP Fit Center  371 is at  -3.375006 -2.340836 -1.890859
      ESP Fit Center  372 is at  -4.129105  0.724920 -2.449552
      ESP Fit Center  373 is at  -6.061680 -1.369411 -1.352594
      ESP Fit Center  374 is at  -5.697365 -2.063556 -1.352594
      ESP Fit Center  375 is at  -5.052195 -2.508884 -1.352594
      ESP Fit Center  376 is at  -6.061680 -0.585471 -2.100264
      ESP Fit Center  377 is at  -6.061680 -1.369411 -2.100264
      ESP Fit Center  378 is at  -5.697365 -2.063556 -2.100264
      ESP Fit Center  379 is at  -5.052195 -2.508884 -2.100264
      ESP Fit Center  380 is at  -4.273970 -2.603378 -2.100264
      ESP Fit Center  381 is at  -3.540974 -2.325389 -2.100264
      ESP Fit Center  382 is at  -4.065508  0.271750 -2.773892
      ESP Fit Center  383 is at  -4.877282  0.271750 -2.773892
      ESP Fit Center  384 is at  -5.534020 -0.205399 -2.773892
      ESP Fit Center  385 is at  -5.784872 -0.977441 -2.773892
      ESP Fit Center  386 is at  -5.534020 -1.749483 -2.773892
      ESP Fit Center  387 is at  -4.877282 -2.226632 -2.773892
      ESP Fit Center  388 is at  -4.065508 -2.226632 -2.773892
      ESP Fit Center  389 is at  -3.408770 -1.749483 -2.773892
      ESP Fit Center  390 is at  -3.742470 -0.977441 -3.240057
      ESP Fit Center  391 is at  -4.106932 -0.346174 -3.240057
      ESP Fit Center  392 is at  -4.835857 -0.346174 -3.240057
      ESP Fit Center  393 is at  -5.200320 -0.977441 -3.240057
      ESP Fit Center  394 is at  -4.835857 -1.608708 -3.240057
      ESP Fit Center  395 is at  -4.106932 -1.608708 -3.240057
      ESP Fit Center  396 is at  -4.471395 -0.977441 -3.406429
      ESP Fit Center  397 is at  -4.143808 -3.010525  1.872124
      ESP Fit Center  398 is at  -4.861030 -3.249411  1.313431
      ESP Fit Center  399 is at  -4.141805 -3.483102  1.313431
      ESP Fit Center  400 is at  -5.710035 -2.763123 -0.101230
      ESP Fit Center  401 is at  -5.730615 -2.052530 -0.786569
      ESP Fit Center  402 is at  -2.479285 -1.274322  3.725065
      ESP Fit Center  403 is at  -1.722193 -1.274322  3.605153
      ESP Fit Center  404 is at  -2.100739 -0.618661  3.605153
      ESP Fit Center  405 is at  -2.857831 -0.618661  3.605153
      ESP Fit Center  406 is at  -3.236376 -1.274322  3.605153
      ESP Fit Center  407 is at  -2.857831 -1.929983  3.605153
      ESP Fit Center  408 is at  -2.100739 -1.929983  3.605153
      ESP Fit Center  409 is at  -1.039211 -1.274322  3.257157
      ESP Fit Center  410 is at  -1.232144 -0.554285  3.257157
      ESP Fit Center  411 is at  -1.759248 -0.027181  3.257157
      ESP Fit Center  412 is at  -2.479285  0.165752  3.257157
      ESP Fit Center  413 is at  -3.199322 -0.027181  3.257157
      ESP Fit Center  414 is at  -3.726425 -0.554285  3.257157
      ESP Fit Center  415 is at  -3.919359 -1.274322  3.257157
      ESP Fit Center  416 is at  -3.726425 -1.994359  3.257157
      ESP Fit Center  417 is at  -3.199322 -2.521462  3.257157
      ESP Fit Center  418 is at  -2.479285 -2.714396  3.257157
      ESP Fit Center  419 is at  -1.759248 -2.521462  3.257157
      ESP Fit Center  420 is at  -1.232144 -1.994359  3.257157
      ESP Fit Center  421 is at  -0.497193 -1.274322  2.715139
      ESP Fit Center  422 is at  -0.648071 -0.515808  2.715139
      ESP Fit Center  423 is at  -1.077734  0.127229  2.715139
      ESP Fit Center  424 is at  -1.720771  0.556892  2.715139
      ESP Fit Center  425 is at  -2.479285  0.707770  2.715139
      ESP Fit Center  426 is at  -3.237798  0.556892  2.715139
      ESP Fit Center  427 is at  -3.880835  0.127229  2.715139
      ESP Fit Center  428 is at  -4.310499 -0.515808  2.715139
      ESP Fit Center  429 is at  -4.461376 -1.274322  2.715139
      ESP Fit Center  430 is at  -4.310499 -2.032836  2.715139
      ESP Fit Center  431 is at  -3.880835 -2.675872  2.715139
      ESP Fit Center  432 is at  -3.237798 -3.105536  2.715139
      ESP Fit Center  433 is at  -2.479285 -3.256414  2.715139
      ESP Fit Center  434 is at  -1.720771 -3.105536  2.715139
      ESP Fit Center  435 is at  -1.077734 -2.675872  2.715139
      ESP Fit Center  436 is at  -0.648071 -2.032836  2.715139
      ESP Fit Center  437 is at  -0.149196 -1.274322  2.032157
      ESP Fit Center  438 is at  -2.671702  1.047808  2.032157
      ESP Fit Center  439 is at  -3.415271  0.859511  2.032157
      ESP Fit Center  440 is at  -4.057411  0.439980  2.032157
      ESP Fit Center  441 is at  -4.528536 -0.165322  2.032157
      ESP Fit Center  442 is at  -4.057411 -2.988624  2.032157
      ESP Fit Center  443 is at  -3.415271 -3.408155  2.032157
      ESP Fit Center  444 is at  -2.671702 -3.596452  2.032157
      ESP Fit Center  445 is at  -1.907282 -3.533110  2.032157
      ESP Fit Center  446 is at  -1.204847 -3.224994  2.032157
      ESP Fit Center  447 is at  -0.640518 -2.705492  2.032157
      ESP Fit Center  448 is at  -0.275447 -2.030900  2.032157
      ESP Fit Center  449 is at  -3.024461 -3.662895  1.275065
      ESP Fit Center  450 is at  -2.296196 -3.717471  1.275065
      ESP Fit Center  451 is at  -1.584199 -3.554963  1.275065
      ESP Fit Center  452 is at  -0.951735 -3.189809  1.275065
      ESP Fit Center  453 is at  -0.455000 -2.654456  1.275065
      ESP Fit Center  454 is at  -0.138131 -1.996472  1.275065
      ESP Fit Center  455 is at  -1.907282 -3.533110  0.517973
      ESP Fit Center  456 is at  -1.204847 -3.224994  0.517973
      ESP Fit Center  457 is at  -3.966154  0.668613  1.585296
      ESP Fit Center  458 is at  -4.325275  1.290629  1.585296
      ESP Fit Center  459 is at  -3.548826  1.398399  1.220635
      ESP Fit Center  460 is at  -4.876500  2.004727  1.220635
      ESP Fit Center  461 is at  -5.568362  1.688765 -1.996751
      ESP Fit Center  462 is at  -5.979571  1.048911 -1.996751
      ESP Fit Center  463 is at  -5.979571  0.288315 -1.996751
      ESP Fit Center  464 is at  -5.043517  1.290629 -2.361413
      ESP Fit Center  465 is at  -5.402638  0.668613 -2.361413
      ESP Fit Center  466 is at  -4.684396  0.668613 -2.488058
      ESP Fit Center  467 is at  -4.014984  1.800834  1.316502
      ESP Fit Center  468 is at  -3.264924  1.800834  1.167306
      ESP Fit Center  469 is at  -3.639954  2.450405  1.167306
      ESP Fit Center  470 is at  -4.390014  2.450405  1.167306
      ESP Fit Center  471 is at  -3.322019  3.001084  0.742431
      ESP Fit Center  472 is at  -4.014984  3.186763  0.742431
      ESP Fit Center  473 is at  -4.707949  3.001084  0.742431
      ESP Fit Center  474 is at  -5.215234  2.493799  0.742431
      ESP Fit Center  475 is at  -2.803320  3.146524  0.106562
      ESP Fit Center  476 is at  -3.455415  3.523011  0.106562
      ESP Fit Center  477 is at  -4.204264  3.601718  0.106562
      ESP Fit Center  478 is at  -4.920386  3.369036  0.106562
      ESP Fit Center  479 is at  -5.479955  2.865198  0.106562
      ESP Fit Center  480 is at  -2.566526  3.121277 -0.643498
      ESP Fit Center  481 is at  -3.141337  3.555354 -0.643498
      ESP Fit Center  482 is at  -3.834138  3.752473 -0.643498
      ESP Fit Center  483 is at  -4.551363  3.686012 -0.643498
      ESP Fit Center  484 is at  -5.196148  3.364948 -0.643498
      ESP Fit Center  485 is at  -5.681410  2.832641 -0.643498
      ESP Fit Center  486 is at  -2.803320  3.146524 -1.393558
      ESP Fit Center  487 is at  -3.455415  3.523011 -1.393558
      ESP Fit Center  488 is at  -4.204264  3.601718 -1.393558
      ESP Fit Center  489 is at  -4.920386  3.369036 -1.393558
      ESP Fit Center  490 is at  -5.479955  2.865198 -1.393558
      ESP Fit Center  491 is at  -5.786217  2.177321 -1.393558
      ESP Fit Center  492 is at  -3.322019  3.001084 -2.029427
      ESP Fit Center  493 is at  -4.014984  3.186763 -2.029427
      ESP Fit Center  494 is at  -4.707949  3.001084 -2.029427
      ESP Fit Center  495 is at  -5.215234  2.493799 -2.029427
      ESP Fit Center  496 is at  -5.400913  1.800834 -2.029427
      ESP Fit Center  497 is at  -3.639954  2.450405 -2.454302
      ESP Fit Center  498 is at  -4.390014  2.450405 -2.454302
      ESP Fit Center  499 is at  -4.765043  1.800834 -2.454302
      ESP Fit Center  500 is at  -4.390014  1.151263 -2.454302
      ESP Fit Center  501 is at  -4.014984  1.800834 -2.603498
      ESP Fit Center  502 is at   0.330654  3.223280  2.787704
      ESP Fit Center  503 is at   1.059579  3.223280  2.621332
      ESP Fit Center  504 is at   0.695116  3.854547  2.621332
      ESP Fit Center  505 is at  -0.033808  3.854547  2.621332
      ESP Fit Center  506 is at  -0.398271  3.223280  2.621332
      ESP Fit Center  507 is at   1.393279  3.995323  2.155167
      ESP Fit Center  508 is at   0.736541  4.472471  2.155167
      ESP Fit Center  509 is at  -0.075233  4.472471  2.155167
      ESP Fit Center  510 is at  -0.731971  3.995323  2.155167
[...]
 3807 Fit       0.012671
 3808 Fit       0.009373
 3809 Fit       0.006924
 3810 Fit       0.005118
 3811 Fit       0.003808
 3812 Fit       0.002885
 3813 Fit       0.002264
 3814 Fit       0.001871
 3815 Fit       0.001644
 3816 Fit       0.001528
 3817 Fit       0.001475
 3818 Fit       0.001442
 3819 Fit       0.001400
 3820 Fit       0.001325
 3821 Fit       0.001204
 3822 Fit       0.001034
 3823 Fit       0.000810
 3824 Fit       0.000568
 3825 Fit       0.000325
 3826 Fit       0.000110
 3827 Fit      -0.000049
 3828 Fit      -0.000122
 3829 Fit      -0.000086
 3830 Fit       0.000073
 3831 Fit       0.000358
 3832 Fit       0.000753
 3833 Fit       0.001218
 3834 Fit       0.001695
 3835 Fit       0.002101
 3836 Fit       0.002353
 3837 Fit       0.002393
 3838 Fit       0.002246
 3839 Fit       0.002099
 3840 Fit       0.002386
 3841 Fit       0.003746
 3842 Fit       0.006673
 3843 Fit       0.026758
 3844 Fit       0.020301
 3845 Fit       0.015295
 3846 Fit       0.011463
 3847 Fit       0.008555
 3848 Fit       0.006371
 3849 Fit       0.004757
 3850 Fit       0.003593
 3851 Fit       0.002782
 3852 Fit       0.002242
 3853 Fit       0.001903
 3854 Fit       0.001703
 3855 Fit       0.001588
 3856 Fit       0.001513
 3857 Fit       0.001440
 3858 Fit       0.001344
 3859 Fit       0.001209
 3860 Fit       0.001029
 3861 Fit       0.000755
 3862 Fit       0.000509
 3863 Fit       0.000266
 3864 Fit       0.000054
 3865 Fit      -0.000097
 3866 Fit      -0.000161
 3867 Fit      -0.000117
 3868 Fit       0.000043
 3869 Fit       0.000309
 3870 Fit       0.000655
 3871 Fit       0.001035
 3872 Fit       0.001390
 3873 Fit       0.001667
 3874 Fit       0.001851
 3875 Fit       0.002013
 3876 Fit       0.002369
 3877 Fit       0.003301
 3878 Fit       0.005299
 3879 Fit       0.008871
 3880 Fit       0.029953
 3881 Fit       0.023911
 3882 Fit       0.018708
 3883 Fit       0.014395
 3884 Fit       0.010936
 3885 Fit       0.008233
 3886 Fit       0.006171
 3887 Fit       0.004636
 3888 Fit       0.003527
 3889 Fit       0.002755
 3890 Fit       0.002239
 3891 Fit       0.001909
 3892 Fit       0.001702
 3893 Fit       0.001564
 3894 Fit       0.001450
 3895 Fit       0.001326
 3896 Fit       0.001173
 3897 Fit       0.000982
 3898 Fit       0.000682
 3899 Fit       0.000432
 3900 Fit       0.000192
 3901 Fit      -0.000008
 3902 Fit      -0.000137
 3903 Fit      -0.000171
 3904 Fit      -0.000095
 3905 Fit       0.000089
 3906 Fit       0.000363
 3907 Fit       0.000691
 3908 Fit       0.001033
 3909 Fit       0.001366
 3910 Fit       0.001724
 3911 Fit       0.002234
 3912 Fit       0.003155
 3913 Fit       0.004852
 3914 Fit       0.007744
 3915 Fit       0.012245
 3916 Fit       0.018457
 3917 Fit       0.024647
 3918 Fit       0.027192
 3919 Fit       0.025482
 3920 Fit       0.021855
 3921 Fit       0.017883
 3922 Fit       0.014174
 3923 Fit       0.010970
 3924 Fit       0.008346
 3925 Fit       0.006284
 3926 Fit       0.004723
 3927 Fit       0.003583
 3928 Fit       0.002783
 3929 Fit       0.002242
 3930 Fit       0.001886
 3931 Fit       0.001646
 3932 Fit       0.001467
 3933 Fit       0.001303
 3934 Fit       0.001125
 3935 Fit       0.000917
 3936 Fit       0.000616
 3937 Fit       0.000369
 3938 Fit       0.000142
 3939 Fit      -0.000033
 3940 Fit      -0.000127
 3941 Fit      -0.000118
 3942 Fit       0.000003
 3943 Fit       0.000226
 3944 Fit       0.000531
 3945 Fit       0.000897
 3946 Fit       0.001330
 3947 Fit       0.001899
 3948 Fit       0.002760
 3949 Fit       0.004158
 3950 Fit       0.006364
 3951 Fit       0.009549
 3952 Fit       0.013477
 3953 Fit       0.017045
 3954 Fit       0.018684
 3955 Fit       0.017994
 3956 Fit       0.015849
 3957 Fit       0.013171
 3958 Fit       0.010511
 3959 Fit       0.008150
 3960 Fit       0.006201
 3961 Fit       0.004679
 3962 Fit       0.003546
 3963 Fit       0.002738
 3964 Fit       0.002180
 3965 Fit       0.001798
 3966 Fit       0.001523
 3967 Fit       0.001299
 3968 Fit       0.001085
 3969 Fit       0.000859
 3970 Fit       0.000588
 3971 Fit       0.000342
 3972 Fit       0.000135
 3973 Fit       0.000002
 3974 Fit      -0.000028
 3975 Fit       0.000065
 3976 Fit       0.000282
 3977 Fit       0.000617
 3978 Fit       0.001073
 3979 Fit       0.001695
 3980 Fit       0.002597
 3981 Fit       0.003953
 3982 Fit       0.005920
 3983 Fit       0.008457
 3984 Fit       0.011083
 3985 Fit       0.012882
 3986 Fit       0.013177
 3987 Fit       0.012117
 3988 Fit       0.010308
 3989 Fit       0.008298
 3990 Fit       0.006430
 3991 Fit       0.004869
 3992 Fit       0.003659
 3993 Fit       0.002774
 3994 Fit       0.002150
 3995 Fit       0.001711
 3996 Fit       0.001383
 3997 Fit       0.001108
 3998 Fit       0.000847
 3999 Fit       0.000631
 4000 Fit       0.000392
 4001 Fit       0.000223
 4002 Fit       0.000160
 4003 Fit       0.000236
 4004 Fit       0.000468
 4005 Fit       0.000868
 4006 Fit       0.001465
 4007 Fit       0.002331
 4008 Fit       0.003574
 4009 Fit       0.005242
 4010 Fit       0.007152
 4011 Fit       0.008772
 4012 Fit       0.009479
 4013 Fit       0.009080
 4014 Fit       0.007892
 4015 Fit       0.006387
 4016 Fit       0.004928
 4017 Fit       0.003704
 4018 Fit       0.002767
 4019 Fit       0.002089
 4020 Fit       0.001599
 4021 Fit       0.001225
 4022 Fit       0.000911
 4023 Fit       0.000780
 4024 Fit       0.000549
 4025 Fit       0.000454
 4026 Fit       0.000546
 4027 Fit       0.000866
 4028 Fit       0.001452
 4029 Fit       0.002358
 4030 Fit       0.003622
 4031 Fit       0.005105
 4032 Fit       0.006346
 4033 Fit       0.006782
 4034 Fit       0.006274
 4035 Fit       0.005180
 4036 Fit       0.003962
 4037 Fit       0.002910
 4038 Fit       0.002113
 4039 Fit       0.001538
 4040 Fit       0.001110
 4041 Fit       0.001072
 4042 Fit       0.000878
 4043 Fit       0.000979
 4044 Fit       0.001454
 4045 Fit       0.002343
 4046 Fit       0.003537
 4047 Fit       0.004556
 4048 Fit       0.004753
 4049 Fit       0.004072
 4050 Fit       0.003051
 4051 Fit       0.002147
 4052 Fit       0.001496
 4053 Fit       0.001546
 4054 Fit       0.001543
 4055 Fit       0.002301
 4056 Fit       0.003225
 4057 Fit       0.003090
 4058 Fit       0.002192
 4059 Fit       0.002246
 4060 Fit       0.018032
 4061 Fit       0.018346
 4062 Fit       0.024303
 4063 Fit       0.022204
 4064 Fit       0.021888
 4065 Fit       0.028591
 4066 Fit       0.025789
 4067 Fit       0.024671
 4068 Fit       0.032370
 4069 Fit       0.028775
 4070 Fit       0.027140
 4071 Fit       0.033324
 4072 Fit       0.030166
 4073 Fit       0.034883
 4074 Fit       0.007626
 4075 Fit       0.005017
 4076 Fit       0.011281
 4077 Fit       0.016697
 4078 Fit       0.021567
 4079 Fit       0.005999
 4080 Fit       0.008953
 4081 Fit       0.012912
 4082 Fit       0.016984
 4083 Fit       0.020913
 4084 Fit       0.024809
 4085 Fit       0.028907
 4086 Fit       0.033552
 4087 Fit       0.013359
 4088 Fit       0.012717
 4089 Fit       0.014323
 4090 Fit       0.017272
 4091 Fit       0.020744
 4092 Fit       0.024455
 4093 Fit       0.028570
 4094 Fit       0.033705
 4095 Fit       0.022816
 4096 Fit       0.018879
 4097 Fit       0.018085
 4098 Fit       0.019864
 4099 Fit       0.023138
 4100 Fit       0.027316
 4101 Fit       0.032731
 4102 Fit       0.029745
 4103 Fit       0.023965
 4104 Fit       0.022901
 4105 Fit       0.025926
 4106 Fit       0.031048
 4107 Fit       0.027706
 4108 Fit       0.007948
 4109 Fit       0.009012
 4110 Fit       0.009700
 4111 Fit       0.009597
 4112 Fit       0.009845
 4113 Fit       0.011416
 4114 Fit       0.009763
 4115 Fit       0.012270
 4116 Fit      -0.001831
 4117 Fit       0.005968
 4118 Fit       0.010501
 4119 Fit       0.013647
 4120 Fit       0.004973
 4121 Fit       0.010737
 4122 Fit       0.014460
 4123 Fit       0.020138
 4124 Fit      -0.007474
 4125 Fit      -0.007727
 4126 Fit      -0.008415
 4127 Fit      -0.008386
 4128 Fit      -0.006937
 4129 Fit      -0.006222
 4130 Fit      -0.006956
 4131 Fit      -0.007681
 4132 Fit      -0.008230
 4133 Fit      -0.008974
 4134 Fit      -0.009694
 4135 Fit      -0.009718
 4136 Fit      -0.008380
 4137 Fit      -0.006194
 4138 Fit      -0.004692
 4139 Fit      -0.004713
 4140 Fit      -0.005716
 4141 Fit      -0.006717
 4142 Fit      -0.007287
 4143 Fit      -0.007398
 4144 Fit      -0.007867
 4145 Fit      -0.008479
 4146 Fit      -0.009229
 4147 Fit      -0.010262
 4148 Fit      -0.011251
 4149 Fit      -0.011304
 4150 Fit      -0.009757
 4151 Fit      -0.006892
 4152 Fit      -0.004039
 4153 Fit      -0.002525
 4154 Fit      -0.002646
 4155 Fit      -0.003853
 4156 Fit      -0.005329
 4157 Fit      -0.006425
 4158 Fit      -0.006945
 4159 Fit      -0.007143
 4160 Fit      -0.008237
 4161 Fit      -0.008580
 4162 Fit      -0.008881
 4163 Fit      -0.009885
 4164 Fit      -0.011640
 4165 Fit      -0.013237
 4166 Fit      -0.013642
 4167 Fit      -0.012155
 4168 Fit      -0.008746
 4169 Fit      -0.004566
 4170 Fit      -0.001328
 4171 Fit       0.000078
 4172 Fit      -0.000168
 4173 Fit      -0.001485
 4174 Fit      -0.003244
 4175 Fit      -0.004865
 4176 Fit      -0.005951
 4177 Fit      -0.006421
 4178 Fit      -0.006515
 4179 Fit      -0.006625
 4180 Fit      -0.008351
 4181 Fit      -0.011148
 4182 Fit      -0.014380
 4183 Fit      -0.016737
 4184 Fit      -0.017347
 4185 Fit      -0.015183
 4186 Fit      -0.010059
 4187 Fit      -0.003853
 4188 Fit       0.000819
 4189 Fit       0.002917
 4190 Fit       0.003017
 4191 Fit       0.001901
 4192 Fit       0.000102
 4193 Fit      -0.001905
 4194 Fit      -0.003662
 4195 Fit      -0.004841
 4196 Fit      -0.005353
 4197 Fit      -0.005393
 4198 Fit      -0.016194
 4199 Fit      -0.020821
 4200 Fit       0.006144
 4201 Fit       0.004716
 4202 Fit       0.002759
 4203 Fit       0.000596
 4204 Fit      -0.001357
 4205 Fit      -0.002747
 4206 Fit      -0.003412
 4207 Fit      -0.003450
 4208 Fit       0.006849
 4209 Fit       0.004640
 4210 Fit       0.002441
 4211 Fit       0.000701
 4212 Fit      -0.000289
 4213 Fit      -0.000470
 4214 Fit      -0.000047
 4215 Fit       0.008192
 4216 Fit       0.005937
 4217 Fit       0.004365
 4218 Fit       0.003734
 4219 Fit       0.004064
 4220 Fit       0.011730
 4221 Fit       0.009812
 4222 Fit       0.009173
 4223 Fit       0.009878
 4224 Fit       0.016833
 4225 Fit       0.015711
 4226 Fit       0.016539
 4227 Fit      -0.016296
 4228 Fit      -0.006311
 4229 Fit      -0.003054
 4230 Fit       0.002649
 4231 Fit       0.002979
 4232 Fit       0.007940
 4233 Fit       0.011264
 4234 Fit       0.015307
 4235 Fit      -0.015787
 4236 Fit      -0.019266
 4237 Fit      -0.025835
 4238 Fit      -0.009735
 4239 Fit      -0.017579
 4240 Fit      -0.023801
 4241 Fit      -0.029825
 4242 Fit      -0.010241
 4243 Fit      -0.017495
 4244 Fit      -0.023187
 4245 Fit      -0.028350
 4246 Fit      -0.034602
 4247 Fit      -0.004514
 4248 Fit      -0.012359
 4249 Fit      -0.018480
 4250 Fit      -0.023419
 4251 Fit      -0.027856
 4252 Fit      -0.032947
 4253 Fit      -0.002732
 4254 Fit      -0.010073
 4255 Fit      -0.016148
 4256 Fit      -0.021049
 4257 Fit      -0.025123
 4258 Fit      -0.029033
 4259 Fit      -0.034045
 4260 Fit      -0.002297
 4261 Fit      -0.008919
 4262 Fit      -0.014648
 4263 Fit      -0.019293
 4264 Fit      -0.022986
 4265 Fit      -0.026128
 4266 Fit      -0.029486
 4267 Fit       0.004037
 4268 Fit      -0.002316
 4269 Fit      -0.008454
 4270 Fit      -0.013699
 4271 Fit      -0.017822
 4272 Fit      -0.020860
 4273 Fit      -0.023050
 4274 Fit      -0.024800
 4275 Fit       0.002650
 4276 Fit      -0.003869
 4277 Fit      -0.009524
 4278 Fit      -0.013859
 4279 Fit      -0.016708
 4280 Fit      -0.018074
 4281 Fit      -0.017973
 4282 Fit       0.000287
 4283 Fit      -0.005679
 4284 Fit      -0.009880
 4285 Fit      -0.011907
 4286 Fit      -0.011460
 4287 Fit       0.003987
 4288 Fit      -0.002051
 4289 Fit      -0.005075
 4290 Fit      -0.004110
 4291 Fit       0.007331
 4292 Fit       0.002663
 4293 Fit       0.006952
 4294 Fit       0.017814
 4295 Fit       0.011829
 4296 Fit       0.005773
 4297 Fit       0.004825
 4298 Fit       0.008114
 4299 Fit       0.008234
 4300 Fit       0.007343
 4301 Fit       0.005643
 4302 Fit       0.003337
 4303 Fit       0.010728
 4304 Fit       0.009983
 4305 Fit       0.009042
 4306 Fit       0.007737
 4307 Fit       0.006044
 4308 Fit       0.004206
 4309 Fit       0.011923
 4310 Fit       0.010829
 4311 Fit       0.009816
 4312 Fit       0.008609
 4313 Fit       0.007108
 4314 Fit       0.005442
 4315 Fit       0.004155
 4316 Fit       0.012857
 4317 Fit       0.011378
 4318 Fit       0.010280
 4319 Fit       0.009109
 4320 Fit       0.007664
 4321 Fit       0.005966
 4322 Fit       0.004496
 4323 Fit       0.012534
 4324 Fit       0.010995
 4325 Fit       0.009911
 4326 Fit       0.008782
 4327 Fit       0.007397
 4328 Fit       0.005781
 4329 Fit       0.004512
 4330 Fit       0.010808
 4331 Fit       0.009679
 4332 Fit       0.008767
 4333 Fit       0.007740
 4334 Fit       0.006513
 4335 Fit       0.005370
 4336 Fit       0.007388
 4337 Fit       0.006566
 4338 Fit      -0.004352
 4339 Fit      -0.009663
 4340 Fit      -0.000360
 4341 Fit      -0.006781
 4342 Fit      -0.012329
 4343 Fit       0.001005
 4344 Fit      -0.006768
 4345 Fit       0.002568
 4346 Fit       0.001564
 4347 Fit      -0.001523
 4348 Fit      -0.011699
 4349 Fit      -0.006702
 4350 Fit      -0.000807
 4351 Fit       0.003368
 4352 Fit      -0.014606
 4353 Fit      -0.006391
 4354 Fit      -0.000108
 4355 Fit       0.004065
 4356 Fit       0.006530
 4357 Fit      -0.009590
 4358 Fit      -0.001889
 4359 Fit       0.003229
 4360 Fit       0.006590
 4361 Fit      -0.007075
 4362 Fit       0.000722
 4363 Fit       0.005719
 4364 Fit      -0.007478
 4365 Fit       0.001516
 4366 Fit       0.007188
 4367 Fit       0.000184
 4368 Fit       0.011952
 4369 Fit       0.012118
 4370 Fit       0.011807
 4371 Fit       0.012927
 4372 Fit       0.013733
 4373 Fit       0.014269
 4374 Fit       0.014501
 4375 Fit       0.014433
 4376 Fit       0.014760
 4377 Fit       0.015717
 4378 Fit       0.016535
 4379 Fit       0.017273
 4380 Fit       0.018117
 4381 Fit       0.019539
 4382 Fit       0.017020
 4383 Fit       0.017812
 4384 Fit       0.018715
 4385 Fit       0.019761
 4386 Fit       0.021158
 4387 Fit       0.023439
 4388 Fit       0.021062
 4389 Fit       0.020763
 4390 Fit       0.021421
 4391 Fit       0.022736
 4392 Fit       0.024959
 4393 Fit       0.028952
 4394 Fit       0.025238
 4395 Fit       0.025956
 4396 Fit       0.028892
 4397 Fit       0.035080
 4398 Fit       0.034003
 4399 Fit       0.009726
 4400 Fit       0.037549
 4401 Fit       0.013318
 4402 Fit       0.014445
 4403 Fit       0.019196
 4404 Fit       0.018039
 4405 Fit       0.018141
 4406 Fit       0.018436
 4407 Fit       0.019770
 4408 Fit       0.022735
 4409 Fit       0.023980
 4410 Fit       0.027458
 4411 Fit       0.037589
 4412 Fit       0.036646
 4413 Fit       0.036149
 4414 Fit       0.035437
 4415 Fit       0.026385
 4416 Fit       0.022916
 4417 Fit       0.020770
 4418 Fit       0.035986
 4419 Fit       0.035136
 4420 Fit       0.034256
 4421 Fit       0.032748
 4422 Fit       0.030057
 4423 Fit       0.027740
 4424 Fit       0.025016
 4425 Fit       0.023801
 4426 Fit       0.024407
 4427 Fit       0.026751
 4428 Fit       0.030378
 4429 Fit       0.033345
 4430 Fit       0.034224
 4431 Fit       0.033829
 4432 Fit       0.032758
 4433 Fit       0.030715
 4434 Fit       0.028816
 4435 Fit       0.027010
 4436 Fit       0.027890
 4437 Fit       0.030627
 4438 Fit       0.032040
 4439 Fit       0.031197
 4440 Fit       0.029702
 4441 Fit       0.007623
 4442 Fit       0.010664
 4443 Fit       0.006791
 4444 Fit       0.014549
 4445 Fit       0.010278
 4446 Fit       0.014880
 4447 Fit      -0.022340
 4448 Fit      -0.024076
 4449 Fit      -0.026201
 4450 Fit      -0.024599
 4451 Fit      -0.019778
 4452 Fit      -0.025027
 4453 Fit      -0.027906
 4454 Fit      -0.029154
 4455 Fit      -0.028648
 4456 Fit      -0.026495
 4457 Fit      -0.022584
 4458 Fit      -0.016647
 4459 Fit      -0.026499
 4460 Fit      -0.029490
 4461 Fit      -0.031059
 4462 Fit      -0.031411
 4463 Fit      -0.030700
 4464 Fit      -0.029032
 4465 Fit      -0.026359
 4466 Fit      -0.022317
 4467 Fit      -0.016130
 4468 Fit      -0.031833
 4469 Fit      -0.032772
 4470 Fit      -0.033001
 4471 Fit      -0.032535
 4472 Fit      -0.031409
 4473 Fit      -0.029662
 4474 Fit      -0.027222
 4475 Fit      -0.023788
 4476 Fit      -0.018707
 4477 Fit      -0.034386
 4478 Fit      -0.034109
 4479 Fit      -0.033806
 4480 Fit      -0.033169
 4481 Fit      -0.032092
 4482 Fit      -0.030567
 4483 Fit      -0.028566
 4484 Fit      -0.025941
 4485 Fit      -0.022337
 4486 Fit      -0.017102
 4487 Fit      -0.034981
 4488 Fit      -0.033955
 4489 Fit      -0.033147
 4490 Fit      -0.032114
 4491 Fit      -0.030721
 4492 Fit      -0.028928
 4493 Fit      -0.026643
 4494 Fit      -0.023635
 4495 Fit      -0.019469
 4496 Fit      -0.013446
 4497 Fit      -0.032882
 4498 Fit      -0.031804
 4499 Fit      -0.030686
 4500 Fit      -0.029259
 4501 Fit      -0.027427
 4502 Fit      -0.025073
 4503 Fit      -0.021960
 4504 Fit      -0.017667
 4505 Fit      -0.011584
 4506 Fit      -0.030006
 4507 Fit      -0.028874
 4508 Fit      -0.027638
 4509 Fit      -0.026010
 4510 Fit      -0.023840
 4511 Fit      -0.020923
 4512 Fit      -0.016905
 4513 Fit      -0.011242
 4514 Fit      -0.003234
 4515 Fit      -0.025955
 4516 Fit      -0.024850
 4517 Fit      -0.023509
 4518 Fit      -0.021519
 4519 Fit      -0.018607
 4520 Fit      -0.014378
 4521 Fit      -0.008194
 4522 Fit       0.000887
 4523 Fit      -0.019746
 4524 Fit      -0.018724
 4525 Fit      -0.016680
 4526 Fit      -0.013116
 4527 Fit      -0.007376
 4528 Fit      -0.011280
 4529 Fit      -0.008243
 4530 Fit      -0.001676
 -----------------------------------------------------------------
 Leave Link  602 at Fri Jan 17 11:57:36 2014, MaxMem=   235929600 cpu:         1.8

 Test job not archived.
 1\1\GINC-G28\SP\RHF\Gen\C10H10I1N1O2S1\KOLAR\17-Jan-2014\0\\# hf/gen p
 seudo=read pop=(mk, readradii) iop(6/33=2,6/41=5,6/42=2)\\na resp\\0,1
 \C,0,0.49751,2.209974,0.753224\C,0,-0.58863,1.380319,0.488408\C,0,-0.3
 78873,0.072361,0.031232\C,0,0.928793,-0.391308,-0.149373\C,0,2.006528,
 0.450783,0.123967\C,0,1.807762,1.753012,0.574033\I,0,4.00313,-0.281804
 ,-0.161339\C,0,-1.537587,-0.859389,-0.26131\H,0,-1.138328,-1.794614,-0
 .675137\C,0,-3.937001,-0.611194,-0.840859\H,0,-4.471395,-0.977441,-1.7
 26429\C,0,-3.951704,-1.674411,0.263431\S,0,-2.479285,-1.274322,1.27506
 5\C,0,-4.684396,0.668613,-0.388058\O,0,-4.014984,1.800834,-0.643498\H,
 0,0.330654,3.22328,1.107704\H,0,-1.600492,1.741633,0.642601\H,0,1.0993
 55,-1.404008,-0.500777\H,0,2.649302,2.403952,0.783955\H,0,-4.85503,-1.
 593991,0.870594\H,0,-3.874288,-2.685729,-0.14794\N,0,-2.537819,-0.2826
 81,-1.196987\H,0,-2.319852,-0.575561,-2.145713\H,0,-3.143588,1.495017,
 -1.004687\O,0,-5.782937,0.633967,0.11306\\Version=AM64L-G09RevD.01\Sta
 te=1-A\HF=-997.3391272\RMSD=4.463e-09\Dipole=0.8599819,-0.9629539,-1.2
 339315\Quadrupole=-17.0605881,9.575287,7.4853011,13.5957193,7.9224128,
 4.9645851\PG=C01 [X(C10H10I1N1O2S1)]\\@


 THERE ARE TWO THINGS THAT EVERYBODY THINKS THEY CAN DO BETTER THAN
 ANYONE ELSE - PUNCH THE FIRE, AND EDIT A DAILY PAPER.
 -- UNCLE ESEK, "CENTURY MAGAZINE", 1885
 Job cpu time:       0 days  0 hours  3 minutes  4.5 seconds.
 File lengths (MBytes):  RWF=     30 Int=      0 D2E=      0 Chk=      3 Scr=      1
 Normal termination of Gaussian 09 at Fri Jan 17 11:57:36 2014.
184.20user 0.34system 3:05.32elapsed 99%CPU (0avgtext+0avgdata 603408maxresident)k
8inputs+133872outputs (0major+171514minor)pagefaults 0swaps
