Linux g29 2.6.38.6-client #1 SMP Tue Jun 12 11:27:21 CEST 2012 x86_64 GNU/Linux
Fri Jan 17 11:54:32 CET 2014

 Entering Gaussian System, Link 0=/usr/local/programs/common/gaussian/gaussian09_d01/arch/amd64-pgi_10.4.0-acml/g09/g09
 Initial command:
 /usr/local/programs/common/gaussian/gaussian09_d01/arch/amd64-pgi_10.4.0-acml/g09/l1.exe "/scratch/kolar/g09_19968/Gau-21005.inp" -scrdir="/scratch/kolar/g09_19968/"
 Entering Link 1 = /usr/local/programs/common/gaussian/gaussian09_d01/arch/amd64-pgi_10.4.0-acml/g09/l1.exe PID=     21009.
  
 Copyright (c) 1988,1990,1992,1993,1995,1998,2003,2009,2013,
            Gaussian, Inc.  All Rights Reserved.
  
 This is part of the Gaussian(R) 09 program.  It is based on
 the Gaussian(R) 03 system (copyright 2003, Gaussian, Inc.),
 the Gaussian(R) 98 system (copyright 1998, Gaussian, Inc.),
 the Gaussian(R) 94 system (copyright 1995, Gaussian, Inc.),
 the Gaussian 92(TM) system (copyright 1992, Gaussian, Inc.),
 the Gaussian 90(TM) system (copyright 1990, Gaussian, Inc.),
 the Gaussian 88(TM) system (copyright 1988, Gaussian, Inc.),
 the Gaussian 86(TM) system (copyright 1986, Carnegie Mellon
 University), and the Gaussian 82(TM) system (copyright 1983,
 Carnegie Mellon University). Gaussian is a federally registered
 trademark of Gaussian, Inc.
  
 This software contains proprietary and confidential information,
 including trade secrets, belonging to Gaussian, Inc.
  
 This software is provided under written license and may be
 used, copied, transmitted, or stored only in accord with that
 written license.
  
 The following legend is applicable only to US Government
 contracts under FAR:
  
                    RESTRICTED RIGHTS LEGEND
  
 Use, reproduction and disclosure by the US Government is
 subject to restrictions as set forth in subparagraphs (a)
 and (c) of the Commercial Computer Software - Restricted
 Rights clause in FAR 52.227-19.
  
 Gaussian, Inc.
 340 Quinnipiac St., Bldg. 40, Wallingford CT 06492
  
  
 ---------------------------------------------------------------
 Warning -- This program may not be used in any manner that
 competes with the business of Gaussian, Inc. or will provide
 assistance to any competitor of Gaussian, Inc.  The licensee
 of this program is prohibited from giving any competitor of
 Gaussian, Inc. access to this program.  By using this program,
 the user acknowledges that Gaussian, Inc. is engaged in the
 business of creating and licensing software in the field of
 computational chemistry and represents and warrants to the
 licensee that it is not a competitor of Gaussian, Inc. and that
 it will not use this program in any manner prohibited above.
 ---------------------------------------------------------------
  

 Cite this work as:
 Gaussian 09, Revision D.01,
 M. J. Frisch, G. W. Trucks, H. B. Schlegel, G. E. Scuseria, 
 M. A. Robb, J. R. Cheeseman, G. Scalmani, V. Barone, B. Mennucci, 
 G. A. Petersson, H. Nakatsuji, M. Caricato, X. Li, H. P. Hratchian, 
 A. F. Izmaylov, J. Bloino, G. Zheng, J. L. Sonnenberg, M. Hada, 
 M. Ehara, K. Toyota, R. Fukuda, J. Hasegawa, M. Ishida, T. Nakajima, 
 Y. Honda, O. Kitao, H. Nakai, T. Vreven, J. A. Montgomery, Jr., 
 J. E. Peralta, F. Ogliaro, M. Bearpark, J. J. Heyd, E. Brothers, 
 K. N. Kudin, V. N. Staroverov, T. Keith, R. Kobayashi, J. Normand, 
 K. Raghavachari, A. Rendell, J. C. Burant, S. S. Iyengar, J. Tomasi, 
 M. Cossi, N. Rega, J. M. Millam, M. Klene, J. E. Knox, J. B. Cross, 
 V. Bakken, C. Adamo, J. Jaramillo, R. Gomperts, R. E. Stratmann, 
 O. Yazyev, A. J. Austin, R. Cammi, C. Pomelli, J. W. Ochterski, 
 R. L. Martin, K. Morokuma, V. G. Zakrzewski, G. A. Voth, 
 P. Salvador, J. J. Dannenberg, S. Dapprich, A. D. Daniels, 
 O. Farkas, J. B. Foresman, J. V. Ortiz, J. Cioslowski, 
 and D. J. Fox, Gaussian, Inc., Wallingford CT, 2013.
 
 ******************************************
 Gaussian 09:  AM64L-G09RevD.01 24-Apr-2013
                17-Jan-2014 
 ******************************************
 %mem=1800mb
 ------------------------------------------------------------------
 # hf/gen pseudo=read pop=(mk, readradii) iop(6/33=2,6/41=5,6/42=2)
 ------------------------------------------------------------------
 1/38=1/1;
 2/12=2,17=6,18=5,40=1/2;
 3/5=7,11=9,16=1,17=8,25=1,30=1/1,2,3;
 4//1;
 5/5=2,38=5/2;
 6/7=2,8=2,9=2,10=2,15=8,20=101,28=1,33=2,41=5,42=2/1,2;
 99/5=1,9=1/99;
 -------
 na resp
 -------
 Symbolic Z-matrix:
 Charge =  0 Multiplicity = 1
 6                    -1.20057  -1.39652   0.00003 
 6                    -2.49972  -1.77163   0.00001 
 6                    -3.58844  -0.80182   0.00061 
 8                    -4.77153  -1.05127  -0.00047 
 8                    -3.19552   0.53245   0.00016 
 6                    -1.88589   0.92538   0.00004 
 6                    -0.82478  -0.00141   0.0001 
 6                     0.49612   0.50072   0.00005 
 6                     0.77243   1.87626  -0.00002 
 6                    -0.33844   2.75897  -0.00007 
 6                    -1.64041   2.29941  -0.00006 
 7                     2.03897   2.40424  -0.00013 
 53                    2.16113  -0.86955  -0.00001 
 1                    -0.41936  -2.14913  -0.00015 
 1                    -2.79836  -2.81354  -0.00038 
 1                    -0.1469    3.82904  -0.00013 
 1                    -2.4808    2.98504  -0.00009 
 1                     2.85688   1.81768   0.00032 
 1                     2.17033   3.40158   0.00027 
 
                          Input orientation:                          
 ---------------------------------------------------------------------
 Center     Atomic      Atomic             Coordinates (Angstroms)
 Number     Number       Type             X           Y           Z
 ---------------------------------------------------------------------
      1          6           0       -1.200565   -1.396515    0.000028
      2          6           0       -2.499720   -1.771633    0.000008
      3          6           0       -3.588439   -0.801819    0.000612
      4          8           0       -4.771525   -1.051269   -0.000474
      5          8           0       -3.195517    0.532447    0.000163
      6          6           0       -1.885885    0.925384    0.000039
      7          6           0       -0.824777   -0.001408    0.000101
      8          6           0        0.496119    0.500719    0.000046
      9          6           0        0.772433    1.876264   -0.000020
     10          6           0       -0.338440    2.758967   -0.000065
     11          6           0       -1.640410    2.299412   -0.000059
     12          7           0        2.038971    2.404243   -0.000133
     13         53           0        2.161129   -0.869548   -0.000011
     14          1           0       -0.419357   -2.149127   -0.000148
     15          1           0       -2.798362   -2.813540   -0.000375
     16          1           0       -0.146901    3.829040   -0.000133
     17          1           0       -2.480801    2.985042   -0.000090
     18          1           0        2.856875    1.817681    0.000322
     19          1           0        2.170328    3.401582    0.000267
 ---------------------------------------------------------------------
                    Distance matrix (angstroms):
                    1          2          3          4          5
     1  C    0.000000
     2  C    1.352227   0.000000
     3  C    2.460814   1.458029   0.000000
     4  O    3.587611   2.383280   1.209098   0.000000
     5  O    2.775019   2.406848   1.390918   2.234269   0.000000
     6  C    2.420925   2.765989   2.425267   3.497724   1.367310
     7  C    1.444832   2.437033   2.877236   4.083997   2.430105
     8  C    2.545237   3.760138   4.287216   5.491515   3.691772
     9  C    3.821492   4.900422   5.117552   6.269443   4.189328
    10  C    4.243971   5.019708   4.820964   5.845523   3.622193
    11  C    3.722008   4.160748   3.662301   4.585951   2.353832
    12  N    4.994032   6.167468   6.476618   7.636977   5.559090
    13  I    3.402746   4.747344   5.749967   6.935035   5.537079
    14  H    1.084763   2.114335   3.443591   4.488503   3.859780
    15  H    2.135630   1.083862   2.161306   2.645557   3.369475
    16  H    5.330725   6.074808   5.769665   6.723434   4.490165
    17  H    4.564761   4.756713   3.945526   4.641037   2.554612
    18  H    5.176280   6.447968   6.957288   8.150053   6.187348
    19  H    5.863843   6.969326   7.129655   8.247254   6.084754
                    6          7          8          9         10
     6  C    0.000000
     7  C    1.408863   0.000000
     8  C    2.419563   1.413116   0.000000
     9  C    2.823265   2.465103   1.403023   0.000000
    10  C    2.399294   2.802890   2.407524   1.418874   0.000000
    11  C    1.395783   2.441112   2.792857   2.449666   1.380694
    12  N    4.194224   3.740081   2.450264   1.372181   2.403729
    13  I    4.427200   3.109550   2.156360   3.077005   4.406128
    14  H    3.406365   2.185649   2.803530   4.198111   4.908761
    15  H    3.848658   3.435568   4.673106   5.894475   6.091309
    16  H    3.384565   3.889968   3.389867   2.158358   1.087080
    17  H    2.143855   3.414864   3.877359   3.436993   2.154256
    18  H    4.825968   4.106537   2.703250   2.085265   3.331075
    19  H    4.752307   4.533321   3.349326   2.068987   2.589763
                   11         12         13         14         15
    11  C    0.000000
    12  N    3.680874   0.000000
    13  I    4.949142   3.276069   0.000000
    14  H    4.613076   5.174607   2.880318   0.000000
    15  H    5.242436   7.115128   5.326881   2.470042   0.000000
    16  H    2.137833   2.609230   5.234857   5.984372   7.152210
    17  H    1.084595   4.556936   6.033687   5.532562   5.807271
    18  H    4.523012   1.006490   2.775835   5.144829   7.309577
    19  H    3.966926   1.005952   4.271140   6.125099   7.957111
                   16         17         18         19
    16  H    0.000000
    17  H    2.481818   0.000000
    18  H    3.615001   5.463837   0.000000
    19  H    2.356326   4.669744   1.726293   0.000000
 Stoichiometry    C9H6INO2
 Framework group  C1[X(C9H6INO2)]
 Deg. of freedom    51
 Full point group                 C1      NOp   1
 Largest Abelian subgroup         C1      NOp   1
 Largest concise Abelian subgroup C1      NOp   1
                         Standard orientation:                         
 ---------------------------------------------------------------------
 Center     Atomic      Atomic             Coordinates (Angstroms)
 Number     Number       Type             X           Y           Z
 ---------------------------------------------------------------------
      1          6           0       -1.200565   -1.396515    0.000028
      2          6           0       -2.499720   -1.771633    0.000008
      3          6           0       -3.588439   -0.801819    0.000612
      4          8           0       -4.771525   -1.051269   -0.000474
      5          8           0       -3.195517    0.532447    0.000163
      6          6           0       -1.885885    0.925384    0.000039
      7          6           0       -0.824777   -0.001408    0.000101
      8          6           0        0.496119    0.500719    0.000046
      9          6           0        0.772433    1.876264   -0.000020
     10          6           0       -0.338440    2.758967   -0.000065
     11          6           0       -1.640410    2.299412   -0.000059
     12          7           0        2.038971    2.404243   -0.000133
     13         53           0        2.161129   -0.869548   -0.000011
     14          1           0       -0.419357   -2.149127   -0.000148
     15          1           0       -2.798362   -2.813540   -0.000375
     16          1           0       -0.146901    3.829040   -0.000133
     17          1           0       -2.480801    2.985042   -0.000090
     18          1           0        2.856875    1.817681    0.000322
     19          1           0        2.170328    3.401582    0.000267
 ---------------------------------------------------------------------
 Rotational constants (GHZ):      0.9625193      0.3277380      0.2444893
 General basis read from cards:  (5D, 7F)
 ======================================================================================================
                                       Pseudopotential Parameters
 ======================================================================================================
  Center     Atomic      Valence      Angular      Power
  Number     Number     Electrons     Momentum     of R      Exponent        Coefficient   SO-Coeffient
 ======================================================================================================
    1          6
                                   No pseudopotential on this center.
    2          6
                                   No pseudopotential on this center.
    3          6
                                   No pseudopotential on this center.
    4          8
                                   No pseudopotential on this center.
    5          8
                                   No pseudopotential on this center.
    6          6
                                   No pseudopotential on this center.
    7          6
                                   No pseudopotential on this center.
    8          6
                                   No pseudopotential on this center.
    9          6
                                   No pseudopotential on this center.
   10          6
                                   No pseudopotential on this center.
   11          6
                                   No pseudopotential on this center.
   12          7
                                   No pseudopotential on this center.
   13         53            7
                                      F and up 
                                                     0        1.0715702       -0.07476210    0.00000000
                                                     1       44.1936028      -30.08112240    0.00000000
                                                     2       12.9367609      -75.37227210    0.00000000
                                                     2        3.1956412      -22.05637580    0.00000000
                                                     2        0.8589806       -1.69795850    0.00000000
                                      S - F
                                                     0      127.9202670        2.93800360    0.00000000
                                                     1       78.6211465       41.24712670    0.00000000
                                                     2       36.5146237      287.86800950    0.00000000
                                                     2        9.9065681      114.37585060    0.00000000
                                                     2        1.9420086       37.65477140    0.00000000
                                      P - F
                                                     0       13.0035304        2.22226300    0.00000000
                                                     1       76.0331404       39.40908310    0.00000000
                                                     2       24.1961684      177.40750020    0.00000000
                                                     2        6.4053433       77.98894620    0.00000000
                                                     2        1.5851786       25.75476410    0.00000000
                                      D - F
                                                     0       40.4278108        7.05243600    0.00000000
                                                     1       28.9084375       33.30416350    0.00000000
                                                     2       15.6268936      186.94538750    0.00000000
                                                     2        4.1442856       71.96883610    0.00000000
                                                     2        0.9377235        9.36306570    0.00000000
   14          1
                                   No pseudopotential on this center.
   15          1
                                   No pseudopotential on this center.
   16          1
                                   No pseudopotential on this center.
   17          1
                                   No pseudopotential on this center.
   18          1
                                   No pseudopotential on this center.
   19          1
                                   No pseudopotential on this center.
 ======================================================================================================
 There are   200 symmetry adapted cartesian basis functions of A   symmetry.
 There are   188 symmetry adapted basis functions of A   symmetry.
   188 basis functions,   372 primitive gaussians,   200 cartesian basis functions
    45 alpha electrons       45 beta electrons
       nuclear repulsion energy       705.0838313057 Hartrees.
 NAtoms=   19 NActive=   19 NUniq=   19 SFac= 1.00D+00 NAtFMM=   60 NAOKFM=F Big=F
 Integral buffers will be    131072 words long.
 Raffenetti 1 integral format.
 Two-electron integral symmetry is turned on.
 One-electron integrals computed using PRISM.
   1 Symmetry operations used in ECPInt.
 ECPInt:  NShTT=    2080 NPrTT=   13439 LenC2=    1982 LenP2D=    8351.
 LDataN:  DoStor=T MaxTD1= 5 Len=  102
 NBasis=   188 RedAO= T EigKep=  4.10D-04  NBF=   188
 NBsUse=   188 1.00D-06 EigRej= -1.00D+00 NBFU=   188
 ExpMin= 1.05D-01 ExpMax= 5.48D+03 ExpMxC= 8.25D+02 IAcc=1 IRadAn=         1 AccDes= 0.00D+00
 Harris functional with IExCor=  205 and IRadAn=       1 diagonalized for initial guess.
 HarFok:  IExCor=  205 AccDes= 0.00D+00 IRadAn=         1 IDoV= 1 UseB2=F ITyADJ=14
 ICtDFT=  3500011 ScaDFX=  1.000000  1.000000  1.000000  1.000000
 Defaulting to unpruned grid for atomic number  53.
 FoFCou: FMM=F IPFlag=           0 FMFlag=      100000 FMFlg1=           0
         NFxFlg=           0 DoJE=T BraDBF=F KetDBF=T FulRan=T
         wScrn=  0.000000 ICntrl=     500 IOpCl=  0 I1Cent=   200000004 NGrid=           0
         NMat0=    1 NMatS0=      1 NMatT0=    0 NMatD0=    1 NMtDS0=    0 NMtDT0=    0
 Petite list used in FoFCou.
 Keep R1 ints in memory in canonical form, NReq=162025701.
 Requested convergence on RMS density matrix=1.00D-08 within 128 cycles.
 Requested convergence on MAX density matrix=1.00D-06.
 Requested convergence on             energy=1.00D-06.
 No special actions if energy rises.
 SCF Done:  E(RHF) =  -559.625097867     A.U. after   16 cycles
            NFock= 16  Conv=0.59D-08     -V/T= 2.0161

 **********************************************************************

            Population analysis using the SCF density.

 **********************************************************************

 Orbital symmetries:
 BldTbl:  Degeneracy threshold= 1.00D-02
       Occupied  (A) (A) (A) (A) (A) (A) (A) (A) (A) (A) (A) (A)
                 (A) (A) (A) (A) (A) (A) (A) (A) (A) (A) (A) (A)
                 (A) (A) (A) (A) (A) (A) (A) (A) (A) (A) (A) (A)
                 (A) (A) (A) (A) (A) (A) (A) (A) (A)
       Virtual   (A) (A) (A) (A) (A) (A) (A) (A) (A) (A) (A) (A)
                 (A) (A) (A) (A) (A) (A) (A) (A) (A) (A) (A) (A)
                 (A) (A) (A) (A) (A) (A) (A) (A) (A) (A) (A) (A)
                 (A) (A) (A) (A) (A) (A) (A) (A) (A) (A) (A) (A)
                 (A) (A) (A) (A) (A) (A) (A) (A) (A) (A) (A) (A)
                 (A) (A) (A) (A) (A) (A) (A) (A) (A) (A) (A) (A)
                 (A) (A) (A) (A) (A) (A) (A) (A) (A) (A) (A) (A)
                 (A) (A) (A) (A) (A) (A) (A) (A) (A) (A) (A) (A)
                 (A) (A) (A) (A) (A) (A) (A) (A) (A) (A) (A) (A)
                 (A) (A) (A) (A) (A) (A) (A) (A) (A) (A) (A) (A)
                 (A) (A) (A) (A) (A) (A) (A) (A) (A) (A) (A) (A)
                 (A) (A) (A) (A) (A) (A) (A) (A) (A) (A) (A)
 The electronic state is 1-A.
 Alpha  occ. eigenvalues --  -20.62874 -20.54517 -15.58495 -11.39339 -11.32503
 Alpha  occ. eigenvalues --  -11.31932 -11.30965 -11.28725 -11.28327 -11.26334
 Alpha  occ. eigenvalues --  -11.26205 -11.26106  -1.46909  -1.36764  -1.25261
 Alpha  occ. eigenvalues --   -1.16892  -1.11648  -1.04176  -1.02126  -0.91532
 Alpha  occ. eigenvalues --   -0.89721  -0.87940  -0.82929  -0.77093  -0.73724
 Alpha  occ. eigenvalues --   -0.73424  -0.68010  -0.67685  -0.65552  -0.63248
 Alpha  occ. eigenvalues --   -0.62959  -0.61111  -0.58913  -0.56701  -0.56668
 Alpha  occ. eigenvalues --   -0.54038  -0.51183  -0.47744  -0.46887  -0.44632
 Alpha  occ. eigenvalues --   -0.41838  -0.40204  -0.38862  -0.33501  -0.29290
 Alpha virt. eigenvalues --    0.05461   0.09524   0.13881   0.15261   0.21373
 Alpha virt. eigenvalues --    0.23872   0.25647   0.27788   0.28704   0.31323
 Alpha virt. eigenvalues --    0.32207   0.34783   0.38005   0.39361   0.41389
 Alpha virt. eigenvalues --    0.44218   0.44788   0.47056   0.48164   0.49860
 Alpha virt. eigenvalues --    0.53628   0.53671   0.55522   0.59974   0.62753
 Alpha virt. eigenvalues --    0.66908   0.69246   0.70262   0.70393   0.72426
 Alpha virt. eigenvalues --    0.74218   0.76402   0.77033   0.79767   0.79936
 Alpha virt. eigenvalues --    0.81549   0.82241   0.82723   0.83275   0.83370
 Alpha virt. eigenvalues --    0.87298   0.89532   0.89723   0.91160   0.92896
 Alpha virt. eigenvalues --    0.93970   0.94972   1.00930   1.00974   1.03981
 Alpha virt. eigenvalues --    1.07680   1.09123   1.11193   1.11844   1.13823
 Alpha virt. eigenvalues --    1.16191   1.16839   1.18132   1.20439   1.20994
 Alpha virt. eigenvalues --    1.23935   1.25143   1.26621   1.29806   1.30311
 Alpha virt. eigenvalues --    1.33335   1.35132   1.37443   1.38797   1.42874
 Alpha virt. eigenvalues --    1.44787   1.46523   1.47176   1.48496   1.52809
 Alpha virt. eigenvalues --    1.57629   1.58049   1.62947   1.64175   1.66168
 Alpha virt. eigenvalues --    1.67918   1.72522   1.74024   1.76708   1.78682
 Alpha virt. eigenvalues --    1.79178   1.84665   1.89402   1.93330   1.95830
 Alpha virt. eigenvalues --    2.00130   2.01788   2.05760   2.08746   2.12383
 Alpha virt. eigenvalues --    2.13206   2.14160   2.15518   2.18452   2.18837
 Alpha virt. eigenvalues --    2.19707   2.20159   2.22195   2.28914   2.29772
 Alpha virt. eigenvalues --    2.31681   2.34936   2.35828   2.36620   2.41913
 Alpha virt. eigenvalues --    2.43424   2.48764   2.52771   2.55959   2.57677
 Alpha virt. eigenvalues --    2.59918   2.61217   2.63552   2.66198   2.68278
 Alpha virt. eigenvalues --    2.71305   2.76873   2.81295   2.87791   2.91449
 Alpha virt. eigenvalues --    2.94213   2.97479   2.99538   3.00108   3.00931
 Alpha virt. eigenvalues --    3.06848   3.09045   3.12049   3.16952   3.21490
 Alpha virt. eigenvalues --    3.28480   3.31684   3.37909   3.45170   3.53731
 Alpha virt. eigenvalues --    3.74597   3.82488  10.71119
          Condensed to atoms (all electrons):
               1          2          3          4          5          6
     1  C    4.985577   0.534522  -0.050150   0.003410  -0.013356  -0.052567
     2  C    0.534522   5.232576   0.431852  -0.067649  -0.078969  -0.014687
     3  C   -0.050150   0.431852   3.955317   0.611652   0.239881  -0.026655
     4  O    0.003410  -0.067649   0.611652   8.097972  -0.070470  -0.000711
     5  O   -0.013356  -0.078969   0.239881  -0.070470   8.522906   0.213166
     6  C   -0.052567  -0.014687  -0.026655  -0.000711   0.213166   4.540334
     7  C    0.394664  -0.037231  -0.002691   0.000361  -0.046786   0.488302
     8  C   -0.044727   0.004631   0.000428   0.000004   0.005530   0.032998
     9  C    0.005021  -0.000074  -0.000018   0.000000  -0.000324  -0.060689
    10  C   -0.000960   0.000043   0.000048   0.000001   0.003189  -0.014401
    11  C    0.007231  -0.000280  -0.000135  -0.000118  -0.046848   0.513640
    12  N   -0.000037   0.000000   0.000000   0.000000   0.000000  -0.000144
    13  I    0.001370   0.001782  -0.000034   0.000000  -0.000069  -0.004160
    14  H    0.378026  -0.019731   0.000860  -0.000037  -0.000134   0.002045
    15  H   -0.026091   0.375738  -0.019405   0.001013   0.002341   0.000272
    16  H   -0.000003   0.000000   0.000000   0.000000  -0.000038   0.002575
    17  H   -0.000081   0.000022  -0.000017  -0.000012   0.000054  -0.026932
    18  H    0.000000   0.000000   0.000000   0.000000   0.000000   0.000004
    19  H    0.000001   0.000000   0.000000   0.000000   0.000000  -0.000039
               7          8          9         10         11         12
     1  C    0.394664  -0.044727   0.005021  -0.000960   0.007231  -0.000037
     2  C   -0.037231   0.004631  -0.000074   0.000043  -0.000280   0.000000
     3  C   -0.002691   0.000428  -0.000018   0.000048  -0.000135   0.000000
     4  O    0.000361   0.000004   0.000000   0.000001  -0.000118   0.000000
     5  O   -0.046786   0.005530  -0.000324   0.003189  -0.046848   0.000000
     6  C    0.488302   0.032998  -0.060689  -0.014401   0.513640  -0.000144
     7  C    4.967777   0.330349   0.016312  -0.065166  -0.005243   0.003747
     8  C    0.330349   5.633434   0.422304   0.020775  -0.093355  -0.059220
     9  C    0.016312   0.422304   4.530010   0.473020   0.012693   0.270065
    10  C   -0.065166   0.020775   0.473020   5.049784   0.496822  -0.063969
    11  C   -0.005243  -0.093355   0.012693   0.496822   4.974335   0.004017
    12  N    0.003747  -0.059220   0.270065  -0.063969   0.004017   7.209256
    13  I   -0.062879   0.259792  -0.064421  -0.002128   0.001658  -0.006296
    14  H   -0.028696  -0.003731   0.000027   0.000010  -0.000092  -0.000001
    15  H    0.001451  -0.000062   0.000001   0.000000   0.000008   0.000000
    16  H   -0.000553   0.005605  -0.040098   0.381198  -0.025938  -0.003803
    17  H    0.004426  -0.000763   0.002602  -0.027714   0.373964  -0.000049
    18  H    0.000110  -0.003077  -0.025107   0.002731  -0.000086   0.328663
    19  H    0.000082   0.003123  -0.031514  -0.002043   0.000210   0.336457
              13         14         15         16         17         18
     1  C    0.001370   0.378026  -0.026091  -0.000003  -0.000081   0.000000
     2  C    0.001782  -0.019731   0.375738   0.000000   0.000022   0.000000
     3  C   -0.000034   0.000860  -0.019405   0.000000  -0.000017   0.000000
     4  O    0.000000  -0.000037   0.001013   0.000000  -0.000012   0.000000
     5  O   -0.000069  -0.000134   0.002341  -0.000038   0.000054   0.000000
     6  C   -0.004160   0.002045   0.000272   0.002575  -0.026932   0.000004
     7  C   -0.062879  -0.028696   0.001451  -0.000553   0.004426   0.000110
     8  C    0.259792  -0.003731  -0.000062   0.005605  -0.000763  -0.003077
     9  C   -0.064421   0.000027   0.000001  -0.040098   0.002602  -0.025107
    10  C   -0.002128   0.000010   0.000000   0.381198  -0.027714   0.002731
    11  C    0.001658  -0.000092   0.000008  -0.025938   0.373964  -0.000086
    12  N   -0.006296  -0.000001   0.000000  -0.003803  -0.000049   0.328663
    13  I    6.664581  -0.001895  -0.000003  -0.000216   0.000020   0.010071
    14  H   -0.001895   0.415421  -0.001402   0.000000   0.000001   0.000002
    15  H   -0.000003  -0.001402   0.416760   0.000000   0.000000   0.000000
    16  H   -0.000216   0.000000   0.000000   0.462036  -0.002133  -0.000029
    17  H    0.000020   0.000001   0.000000  -0.002133   0.426782   0.000001
    18  H    0.010071   0.000002   0.000000  -0.000029   0.000001   0.292100
    19  H    0.000958   0.000000   0.000000   0.002906  -0.000004  -0.015898
              19
     1  C    0.000001
     2  C    0.000000
     3  C    0.000000
     4  O    0.000000
     5  O    0.000000
     6  C   -0.000039
     7  C    0.000082
     8  C    0.003123
     9  C   -0.031514
    10  C   -0.002043
    11  C    0.000210
    12  N    0.336457
    13  I    0.000958
    14  H    0.000000
    15  H    0.000000
    16  H    0.002906
    17  H   -0.000004
    18  H   -0.015898
    19  H    0.307404
 Mulliken charges:
               1
     1  C   -0.121853
     2  C   -0.362547
     3  C    0.859067
     4  O   -0.575415
     5  O   -0.730073
     6  C    0.407648
     7  C    0.041663
     8  C   -0.514037
     9  C    0.490191
    10  C   -0.251240
    11  C   -0.212483
    12  N   -1.018686
    13  I    0.201869
    14  H    0.259327
    15  H    0.249378
    16  H    0.218490
    17  H    0.249832
    18  H    0.410514
    19  H    0.398355
 Sum of Mulliken charges =   0.00000
 Mulliken charges with hydrogens summed into heavy atoms:
               1
     1  C    0.137474
     2  C   -0.113169
     3  C    0.859067
     4  O   -0.575415
     5  O   -0.730073
     6  C    0.407648
     7  C    0.041663
     8  C   -0.514037
     9  C    0.490191
    10  C   -0.032750
    11  C    0.037349
    12  N   -0.209817
    13  I    0.201869
 DipInt: DoE/N= T F RetVal/Mat= T F Init=T NMatP=  1 IDeriv=0 Min/MaxMlt=  0  4
 Entering OneElI...
 OneElI was handed   235824623 working-precision words.
 Multipole integrals L=0 to 4 MinM= 0 MaxM= 0.
 Requested accuracy = 0.1000D-12
 ShPair: Thresh= 1.00D-13 NBox=     0 BxSize= 0.00D+00 RnKept= 1.56D+01
         NSMCal=                 2080 NSMKep=                1867
 PrsmSu:  NPrtUS=   1 ThrOK=F IAlg=1 NPAlg=1 LenDen=           0.
 Prism:   IPart=     0 DynPar=F LinDyn=F Incr=          18.
 PRISM was handed   235645750 working-precision words and  1867 shell-pairs
 IPart=  0 NShTot=        1867 NBatch=          89 AvBLen=        21.0
 PrSmSu:  NxtVal=             19.
 Electronic moments (au):
        -90.00000000        190.08669120        -74.64910825          0.00048572
      -1953.11740327       -936.16623143        -69.06490807       -308.38210502
         -0.00755224          0.00348094      10267.66100646      -2532.15579863
          0.00049963        783.60649634       1062.53924128          0.26564729
         57.34589478        -34.92920883          0.10137468          0.10778116
     -96661.27436523     -21357.73113825       -291.70258581     -16713.37682979
         -3.02960725      -3953.21081714          0.26254064          0.01202489
          0.01825402     -13467.70140582      -1338.48866090       -708.55242791
         -0.82799271         -0.19291948       -107.17835607
 Electronic spatial extent (au):  <R**2>=           2958.3485
 DipInt: DoE/N= F T RetVal/Mat= T F Init=T NMatP=  1 IDeriv=0 Min/MaxMlt=  0  4
 Nuclear    moments (au):
         90.00000000       -187.86134901         75.58752896          0.00094406
       1869.06579957        883.47128162          0.00001743        308.69511213
          0.00363940         -0.00150529      -9798.79829823       2508.95966299
          0.00000000       -704.39368234      -1037.69060076         -0.19394502
         -0.00011572         -0.00002073         -0.09198768         -0.08167109
      86832.48355950      18495.99375761          0.00000000      16053.74225584
          2.66903208       3794.69517828         -0.14683610         -0.00000001
          0.00000000      11768.96780335          0.00095676          0.00009246
          0.81765704          0.28667035          0.00022626
 Total      moments (au):
          0.00000000          2.22534219          0.93842071          0.00142977
        -84.05160370        -52.69494980        -69.06489064          0.31300711
         -0.00391284          0.00197565        468.86270824        -23.19613564
          0.00049963         79.21281401         24.84864052          0.07170227
         57.34577905        -34.92922956          0.00938700          0.02611006
      -9828.79080573      -2861.73738064       -291.70258581       -659.63457394
         -0.36057517       -158.51563886          0.11570453          0.01202488
          0.01825402      -1698.73360247      -1338.48770413       -708.55233545
         -0.01033566          0.09375087       -107.17812981
 Traceless Quadrup. (au):
        -15.44778899         15.90886491         -0.46107592          0.31300711
         -0.00391284          0.00197565
 Charge=              0.0000 electrons
 Dipole moment (field-independent basis, Debye):
    X=              5.6563    Y=              2.3852    Z=              0.0036  Tot=              6.1386
 Quadrupole moment (field-independent basis, Debye-Ang):
   XX=           -113.0523   YY=            -70.8765   ZZ=            -92.8946
   XY=              0.4210   XZ=             -0.0053   YZ=              0.0027
 Traceless Quadrupole moment (field-independent basis, Debye-Ang):
   XX=            -20.7778   YY=             21.3980   ZZ=             -0.6202
   XY=              0.4210   XZ=             -0.0053   YZ=              0.0027
 Octapole moment (field-independent basis, Debye-Ang**2):
  XXX=            333.7184  YYY=            -16.5101  ZZZ=              0.0004  XYY=             56.3806
  XXY=             17.6863  XXZ=              0.0510  XZZ=             40.8165  YZZ=            -24.8613
  YYZ=              0.0067  XYZ=              0.0186
 Hexadecapole moment (field-independent basis, Debye-Ang**3):
 XXXX=          -3701.9937 YYYY=          -1077.8675 ZZZZ=           -109.8692 XXXY=           -248.4500
 XXXZ=             -0.1358 YYYX=            -59.7046 YYYZ=              0.0436 ZZZX=              0.0045
 ZZZY=              0.0069 XXYY=           -639.8245 XXZZ=           -504.1386 YYZZ=           -266.8748
 XXYZ=             -0.0039 YYXZ=              0.0353 ZZXY=            -40.3684
 N-N= 7.050838313057D+02 E-N=-2.715052117319D+03  KE= 5.507440790606D+02
 Entering OneElI...
 OneElI was handed   235848716 working-precision words.
 Calculate electrostatic properties
    NBasis =   188  MinDer = 0  MaxDer = 0
    NGrid  =    19  NMatD  =   1
 Requested accuracy = 0.1000D-12
 ShPair: Thresh= 1.00D-13 NBox=     0 BxSize= 0.00D+00 RnKept= 1.56D+01
         NSMCal=                 2080 NSMKep=                1747
 PrsmSu:  NPrtUS=   1 ThrOK=F IAlg=1 NPAlg=1 LenDen=           0.
 Prism:   IPart=     0 DynPar=F LinDyn=F Incr=         331.
 PRISM was handed   235681789 working-precision words and  1747 shell-pairs
 IPart=  0 NShTot=       33193 NBatch=        1747 AvBLen=        19.0
 PrSmSu:  NxtVal=            332.
 --------------------------------------------------------
       Center         ----      EFG at Nuclei      ----
                      3XX-RR        3YY-RR        3ZZ-RR
 --------------------------------------------------------
     1   Atom        0.291993      0.167791     -0.459783
     2   Atom        0.132702      0.093125     -0.225827
     3   Atom        0.470156     -0.032709     -0.437447
     4   Atom       -0.715028      1.565589     -0.850561
     5   Atom       -0.654362     -0.469515      1.123876
     6   Atom       -0.173207      0.301460     -0.128253
     7   Atom        0.097242      0.122003     -0.219245
     8   Atom       -0.097479     -0.002717      0.100196
     9   Atom        0.089174      0.227061     -0.316234
    10   Atom        0.147110      0.083778     -0.230889
    11   Atom        0.190018      0.131223     -0.321241
    12   Atom       -0.633880     -0.564270      1.198150
    13   Atom       -0.036118     -0.010246      0.046364
    14   Atom       -0.086728     -0.074218      0.160946
    15   Atom        0.110069     -0.278435      0.168366
    16   Atom        0.121463     -0.292642      0.171180
    17   Atom       -0.124208     -0.040802      0.165010
    18   Atom       -0.218165     -0.034145      0.252311
    19   Atom        0.152167     -0.407491      0.255324
 --------------------------------------------------------
                        XY            XZ            YZ
 --------------------------------------------------------
     1   Atom        0.001517     -0.000163      0.000091
     2   Atom        0.071764      0.000080     -0.000026
     3   Atom       -0.149377      0.000321      0.000004
     4   Atom       -0.578970     -0.001260     -0.000681
     5   Atom       -1.139987      0.000646      0.001355
     6   Atom       -0.163887      0.000025     -0.000022
     7   Atom       -0.006859     -0.000003      0.000007
     8   Atom        0.309464     -0.000001     -0.000007
     9   Atom       -0.091100      0.000037     -0.000007
    10   Atom        0.035265     -0.000006     -0.000018
    11   Atom        0.010444     -0.000018     -0.000059
    12   Atom       -0.072337     -0.000374     -0.000115
    13   Atom        0.060935      0.000002     -0.000005
    14   Atom        0.219750      0.000056     -0.000065
    15   Atom       -0.116188     -0.000032     -0.000160
    16   Atom       -0.079439      0.000002      0.000028
    17   Atom        0.222371     -0.000010      0.000009
    18   Atom        0.265077     -0.000250      0.000161
    19   Atom       -0.073995     -0.000050     -0.000261
 --------------------------------------------------------


 ---------------------------------------------------------------------------------
              Nuclear Quadrupole Coupling Constant in Principal Axis System
 ---------------------------------------------------------------------------------

       Atom             a.u.   MegaHertz   Gauss  10(-4) cm-1        Axes

              Baa    -0.6794     3.263     1.164     1.088  0.8466  0.5322  0.0002
    12 N(14)  Bbb    -0.5188     2.492     0.889     0.831 -0.5322  0.8466 -0.0001
              Bcc     1.1982    -5.754    -2.053    -1.919 -0.0002 -0.0001  1.0000
 
              Baa    -0.0855   -14.259    -5.088    -4.756  0.7771 -0.6294  0.0000
    13 I(127) Bbb     0.0391     6.525     2.328     2.176  0.6294  0.7771  0.0003
              Bcc     0.0464     7.735     2.760     2.580 -0.0002 -0.0003  1.0000
 

 ---------------------------------------------------------------------------------

 No NMR shielding tensors so no spin-rotation constants.
 Leave Link  601 at Fri Jan 17 11:54:59 2014, MaxMem=   235929600 cpu:         0.3
 FitSet:  NAtFit=    19 NAtPot=    19 NAtFrz=     0 MDM=    23 TotChg=   0.00000
 Merz-Kollman atomic radii used.
 Read replacement radii for each type of atom:
 Rad(53) =   2.700000000000D+00
 Atom Element Radius
    1     6    1.50
    2     6    1.50
    3     6    1.50
    4     8    1.40
    5     8    1.40
    6     6    1.50
    7     6    1.50
    8     6    1.50
    9     6    1.50
   10     6    1.50
   11     6    1.50
   12     7    1.50
   13    53    2.70
   14     1    1.20
   15     1    1.20
   16     1    1.20
   17     1    1.20
   18     1    1.20
   19     1    1.20
 Generate VDW surfaces: Layer= 5 Dens= 2 Start= 1.400 Inc= 0.179

 **********************************************************************

            Electrostatic Properties Using The SCF Density

 **********************************************************************

       Atomic Center    1 is at  -1.200565 -1.396515  0.000028
       Atomic Center    2 is at  -2.499720 -1.771633  0.000008
       Atomic Center    3 is at  -3.588439 -0.801819  0.000612
       Atomic Center    4 is at  -4.771525 -1.051269 -0.000474
       Atomic Center    5 is at  -3.195517  0.532447  0.000163
       Atomic Center    6 is at  -1.885885  0.925384  0.000039
       Atomic Center    7 is at  -0.824777 -0.001408  0.000101
       Atomic Center    8 is at   0.496119  0.500719  0.000046
       Atomic Center    9 is at   0.772433  1.876264 -0.000020
       Atomic Center   10 is at  -0.338440  2.758967 -0.000065
       Atomic Center   11 is at  -1.640410  2.299412 -0.000059
       Atomic Center   12 is at   2.038971  2.404243 -0.000133
       Atomic Center   13 is at   2.161129 -0.869548 -0.000011
       Atomic Center   14 is at  -0.419357 -2.149127 -0.000148
       Atomic Center   15 is at  -2.798362 -2.813540 -0.000375
       Atomic Center   16 is at  -0.146901  3.829040 -0.000133
       Atomic Center   17 is at  -2.480801  2.985042 -0.000090
       Atomic Center   18 is at   2.856875  1.817681  0.000322
       Atomic Center   19 is at   2.170328  3.401582  0.000267
      ESP Fit Center   20 is at  -1.200565 -1.396515  2.100028
      ESP Fit Center   21 is at  -1.559686 -0.774499  1.973383
      ESP Fit Center   22 is at  -1.559686 -2.018531  1.973383
      ESP Fit Center   23 is at  -1.392669 -2.732629  1.608721
      ESP Fit Center   24 is at  -1.392669 -2.732629 -1.608665
      ESP Fit Center   25 is at  -1.559686 -0.774499 -1.973326
      ESP Fit Center   26 is at  -1.559686 -2.018531 -1.973326
      ESP Fit Center   27 is at  -1.200565 -1.396515 -2.099972
      ESP Fit Center   28 is at  -2.499720 -1.771633  2.100008
      ESP Fit Center   29 is at  -2.140599 -1.149617  1.973363
      ESP Fit Center   30 is at  -2.858841 -1.149617  1.973363
      ESP Fit Center   31 is at  -3.217962 -1.771633  1.973363
      ESP Fit Center   32 is at  -2.858841 -2.393649  1.973363
      ESP Fit Center   33 is at  -2.140599 -2.393649  1.973363
      ESP Fit Center   34 is at  -3.794895 -2.151931  1.608701
      ESP Fit Center   35 is at  -3.383686 -2.791785  1.608701
      ESP Fit Center   36 is at  -1.938970 -2.999503  1.608701
      ESP Fit Center   37 is at  -3.794895 -2.151931 -1.608685
      ESP Fit Center   38 is at  -3.383686 -2.791785 -1.608685
      ESP Fit Center   39 is at  -1.938970 -2.999503 -1.608685
      ESP Fit Center   40 is at  -2.140599 -1.149617 -1.973346
      ESP Fit Center   41 is at  -2.858841 -1.149617 -1.973346
      ESP Fit Center   42 is at  -3.217962 -1.771633 -1.973346
      ESP Fit Center   43 is at  -2.858841 -2.393649 -1.973346
      ESP Fit Center   44 is at  -2.140599 -2.393649 -1.973346
      ESP Fit Center   45 is at  -2.499720 -1.771633 -2.099992
      ESP Fit Center   46 is at  -3.588439 -0.801819  2.100612
      ESP Fit Center   47 is at  -2.870196 -0.801819  1.973967
      ESP Fit Center   48 is at  -3.229318 -0.179803  1.973967
      ESP Fit Center   49 is at  -3.947560 -0.179803  1.973967
      ESP Fit Center   50 is at  -4.306681 -0.801819  1.973967
      ESP Fit Center   51 is at  -3.947560 -1.423835  1.973967
      ESP Fit Center   52 is at  -3.229318 -1.423835  1.973967
      ESP Fit Center   53 is at  -4.472405  0.218332  1.609305
      ESP Fit Center   54 is at  -4.472405  0.218332 -1.608081
      ESP Fit Center   55 is at  -2.870196 -0.801819 -1.972742
      ESP Fit Center   56 is at  -3.229318 -0.179803 -1.972742
      ESP Fit Center   57 is at  -3.947560 -0.179803 -1.972742
      ESP Fit Center   58 is at  -4.306681 -0.801819 -1.972742
      ESP Fit Center   59 is at  -3.947560 -1.423835 -1.972742
      ESP Fit Center   60 is at  -3.229318 -1.423835 -1.972742
      ESP Fit Center   61 is at  -3.588439 -0.801819 -2.099388
      ESP Fit Center   62 is at  -4.771525 -1.051269  1.959526
      ESP Fit Center   63 is at  -5.146555 -0.401699  1.810330
      ESP Fit Center   64 is at  -5.521584 -1.051269  1.810330
      ESP Fit Center   65 is at  -5.146555 -1.700840  1.810330
      ESP Fit Center   66 is at  -4.396495 -1.700840  1.810330
      ESP Fit Center   67 is at  -4.771525  0.334660  1.385455
      ESP Fit Center   68 is at  -5.464489  0.148981  1.385455
      ESP Fit Center   69 is at  -5.971775 -0.358305  1.385455
      ESP Fit Center   70 is at  -6.157454 -1.051269  1.385455
      ESP Fit Center   71 is at  -5.971775 -1.744234  1.385455
      ESP Fit Center   72 is at  -5.464489 -2.251519  1.385455
      ESP Fit Center   73 is at  -4.771525 -2.437198  1.385455
      ESP Fit Center   74 is at  -5.676927  0.516933  0.749586
      ESP Fit Center   75 is at  -6.236496  0.013095  0.749586
      ESP Fit Center   76 is at  -6.542758 -0.674782  0.749586
      ESP Fit Center   77 is at  -6.542758 -1.427756  0.749586
      ESP Fit Center   78 is at  -6.236496 -2.115633  0.749586
      ESP Fit Center   79 is at  -5.676927 -2.619471  0.749586
      ESP Fit Center   80 is at  -4.960805 -2.852153  0.749586
      ESP Fit Center   81 is at  -5.307904  0.833909 -0.000474
      ESP Fit Center   82 is at  -5.952689  0.512845 -0.000474
      ESP Fit Center   83 is at  -6.437950 -0.019462 -0.000474
      ESP Fit Center   84 is at  -6.698152 -0.691120 -0.000474
      ESP Fit Center   85 is at  -6.698152 -1.411418 -0.000474
      ESP Fit Center   86 is at  -6.437950 -2.083076 -0.000474
      ESP Fit Center   87 is at  -5.952689 -2.615383 -0.000474
      ESP Fit Center   88 is at  -5.307904 -2.936447 -0.000474
      ESP Fit Center   89 is at  -4.590679 -3.002908 -0.000474
      ESP Fit Center   90 is at  -5.676927  0.516933 -0.750533
      ESP Fit Center   91 is at  -6.236496  0.013095 -0.750533
      ESP Fit Center   92 is at  -6.542758 -0.674782 -0.750533
      ESP Fit Center   93 is at  -6.542758 -1.427756 -0.750533
      ESP Fit Center   94 is at  -6.236496 -2.115633 -0.750533
      ESP Fit Center   95 is at  -5.676927 -2.619471 -0.750533
      ESP Fit Center   96 is at  -4.960805 -2.852153 -0.750533
      ESP Fit Center   97 is at  -4.771525  0.334660 -1.386403
      ESP Fit Center   98 is at  -5.464489  0.148981 -1.386403
      ESP Fit Center   99 is at  -5.971775 -0.358305 -1.386403
      ESP Fit Center  100 is at  -6.157454 -1.051269 -1.386403
      ESP Fit Center  101 is at  -5.971775 -1.744234 -1.386403
      ESP Fit Center  102 is at  -5.464489 -2.251519 -1.386403
      ESP Fit Center  103 is at  -4.771525 -2.437198 -1.386403
      ESP Fit Center  104 is at  -5.146555 -0.401699 -1.811278
      ESP Fit Center  105 is at  -5.521584 -1.051269 -1.811278
      ESP Fit Center  106 is at  -5.146555 -1.700840 -1.811278
      ESP Fit Center  107 is at  -4.396495 -1.700840 -1.811278
      ESP Fit Center  108 is at  -4.771525 -1.051269 -1.960474
      ESP Fit Center  109 is at  -3.195517  0.532447  1.960163
      ESP Fit Center  110 is at  -3.570547  1.182018  1.810967
      ESP Fit Center  111 is at  -3.945576  0.532447  1.810967
      ESP Fit Center  112 is at  -3.195517  1.918376  1.386092
      ESP Fit Center  113 is at  -3.888481  1.732697  1.386092
      ESP Fit Center  114 is at  -4.395767  1.225412  1.386092
      ESP Fit Center  115 is at  -4.581446  0.532447  1.386092
      ESP Fit Center  116 is at  -4.100919  2.100649  0.750223
      ESP Fit Center  117 is at  -4.660488  1.596811  0.750223
      ESP Fit Center  118 is at  -4.966750  0.908934  0.750223
      ESP Fit Center  119 is at  -4.376681  2.096561  0.000163
      ESP Fit Center  120 is at  -4.861942  1.564254  0.000163
      ESP Fit Center  121 is at  -5.122144  0.892596  0.000163
      ESP Fit Center  122 is at  -4.100919  2.100649 -0.749896
      ESP Fit Center  123 is at  -4.660488  1.596811 -0.749896
      ESP Fit Center  124 is at  -4.966750  0.908934 -0.749896
      ESP Fit Center  125 is at  -3.195517  1.918376 -1.385766
      ESP Fit Center  126 is at  -3.888481  1.732697 -1.385766
      ESP Fit Center  127 is at  -4.395767  1.225412 -1.385766
      ESP Fit Center  128 is at  -4.581446  0.532447 -1.385766
      ESP Fit Center  129 is at  -3.570547  1.182018 -1.810641
      ESP Fit Center  130 is at  -3.945576  0.532447 -1.810641
      ESP Fit Center  131 is at  -3.195517  0.532447 -1.959837
      ESP Fit Center  132 is at  -1.885885  0.925384  2.100039
      ESP Fit Center  133 is at  -1.167643  0.925384  1.973394
      ESP Fit Center  134 is at  -1.526764  1.547400  1.973394
      ESP Fit Center  135 is at  -2.245006  1.547400  1.973394
      ESP Fit Center  136 is at  -2.604127  0.925384  1.973394
      ESP Fit Center  137 is at  -2.245006  0.303368  1.973394
      ESP Fit Center  138 is at  -1.526764  0.303368  1.973394
      ESP Fit Center  139 is at  -1.167643  0.925384 -1.973315
      ESP Fit Center  140 is at  -1.526764  1.547400 -1.973315
      ESP Fit Center  141 is at  -2.245006  1.547400 -1.973315
      ESP Fit Center  142 is at  -2.604127  0.925384 -1.973315
      ESP Fit Center  143 is at  -2.245006  0.303368 -1.973315
      ESP Fit Center  144 is at  -1.526764  0.303368 -1.973315
      ESP Fit Center  145 is at  -1.885885  0.925384 -2.099961
      ESP Fit Center  146 is at  -1.183898  0.620608  1.973456
      ESP Fit Center  147 is at  -1.543019 -0.001408  1.973456
      ESP Fit Center  148 is at  -1.183898 -0.623424  1.973456
      ESP Fit Center  149 is at  -1.183898  0.620608 -1.973253
      ESP Fit Center  150 is at  -1.543019 -0.001408 -1.973253
      ESP Fit Center  151 is at  -1.183898 -0.623424 -1.973253
      ESP Fit Center  152 is at   1.131554  2.498280  1.973335
      ESP Fit Center  153 is at   0.413312  2.498280  1.973335
      ESP Fit Center  154 is at   0.054191  1.876264  1.973335
      ESP Fit Center  155 is at   1.131554  2.498280 -1.973374
      ESP Fit Center  156 is at   0.413312  2.498280 -1.973374
      ESP Fit Center  157 is at   0.054191  1.876264 -1.973374
      ESP Fit Center  158 is at  -0.338440  2.758967  2.099935
      ESP Fit Center  159 is at   0.379802  2.758967  1.973290
      ESP Fit Center  160 is at   0.020681  3.380983  1.973290
      ESP Fit Center  161 is at  -0.697561  3.380983  1.973290
      ESP Fit Center  162 is at  -1.056682  2.758967  1.973290
      ESP Fit Center  163 is at  -0.697561  2.136951  1.973290
      ESP Fit Center  164 is at   0.020681  2.136951  1.973290
      ESP Fit Center  165 is at   0.797129  3.488753  1.608628
      ESP Fit Center  166 is at  -1.222406  3.779119  1.608628
      ESP Fit Center  167 is at  -0.530544  1.422853  1.608628
      ESP Fit Center  168 is at   0.797129  3.488753 -1.608758
      ESP Fit Center  169 is at  -1.222406  3.779119 -1.608758
      ESP Fit Center  170 is at  -0.530544  1.422853 -1.608758
      ESP Fit Center  171 is at   0.379802  2.758967 -1.973419
      ESP Fit Center  172 is at   0.020681  3.380983 -1.973419
      ESP Fit Center  173 is at  -0.697561  3.380983 -1.973419
      ESP Fit Center  174 is at  -1.056682  2.758967 -1.973419
      ESP Fit Center  175 is at  -0.697561  2.136951 -1.973419
      ESP Fit Center  176 is at   0.020681  2.136951 -1.973419
      ESP Fit Center  177 is at  -0.338440  2.758967 -2.100065
      ESP Fit Center  178 is at  -1.640410  2.299412  2.099941
      ESP Fit Center  179 is at  -0.922168  2.299412  1.973296
      ESP Fit Center  180 is at  -1.281289  2.921428  1.973296
      ESP Fit Center  181 is at  -1.999531  2.921428  1.973296
      ESP Fit Center  182 is at  -2.358652  2.299412  1.973296
      ESP Fit Center  183 is at  -1.999531  1.677396  1.973296
      ESP Fit Center  184 is at  -1.281289  1.677396  1.973296
      ESP Fit Center  185 is at  -1.832514  3.635526  1.608634
      ESP Fit Center  186 is at  -2.935585  2.679710  1.608634
      ESP Fit Center  187 is at  -2.935585  1.919114  1.608634
      ESP Fit Center  188 is at  -1.832514  3.635526 -1.608752
      ESP Fit Center  189 is at  -2.935585  2.679710 -1.608752
      ESP Fit Center  190 is at  -2.935585  1.919114 -1.608752
      ESP Fit Center  191 is at  -0.922168  2.299412 -1.973413
      ESP Fit Center  192 is at  -1.281289  2.921428 -1.973413
      ESP Fit Center  193 is at  -1.999531  2.921428 -1.973413
      ESP Fit Center  194 is at  -2.358652  2.299412 -1.973413
      ESP Fit Center  195 is at  -1.999531  1.677396 -1.973413
      ESP Fit Center  196 is at  -1.281289  1.677396 -1.973413
      ESP Fit Center  197 is at  -1.640410  2.299412 -2.100059
      ESP Fit Center  198 is at   2.038971  2.404243  2.099867
      ESP Fit Center  199 is at   2.757213  2.404243  1.973222
      ESP Fit Center  200 is at   2.398092  3.026259  1.973222
      ESP Fit Center  201 is at   1.679850  3.026259  1.973222
      ESP Fit Center  202 is at   1.320729  2.404243  1.973222
      ESP Fit Center  203 is at   3.388825  2.404243  1.608560
      ESP Fit Center  204 is at   3.174540  3.134029  1.608560
      ESP Fit Center  205 is at   2.599721  3.632114  1.608560
      ESP Fit Center  206 is at   1.155005  3.424395  1.608560
      ESP Fit Center  207 is at   3.700394  3.143956  1.049867
      ESP Fit Center  208 is at   3.967413  3.151326  0.364528
      ESP Fit Center  209 is at   3.967413  3.151326 -0.364794
      ESP Fit Center  210 is at   3.700394  3.143956 -1.050133
      ESP Fit Center  211 is at   3.388825  2.404243 -1.608826
      ESP Fit Center  212 is at   3.174540  3.134029 -1.608826
      ESP Fit Center  213 is at   2.599721  3.632114 -1.608826
      ESP Fit Center  214 is at   1.155005  3.424395 -1.608826
      ESP Fit Center  215 is at   2.757213  2.404243 -1.973487
      ESP Fit Center  216 is at   2.398092  3.026259 -1.973487
      ESP Fit Center  217 is at   1.679850  3.026259 -1.973487
      ESP Fit Center  218 is at   1.320729  2.404243 -1.973487
      ESP Fit Center  219 is at   2.038971  2.404243 -2.100133
      ESP Fit Center  220 is at   2.161129 -0.869548  3.779989
      ESP Fit Center  221 is at   2.898571 -0.869548  3.707357
      ESP Fit Center  222 is at   2.529850 -0.230905  3.707357
      ESP Fit Center  223 is at   1.792409 -0.230905  3.707357
      ESP Fit Center  224 is at   1.423688 -0.869548  3.707357
      ESP Fit Center  225 is at   1.792409 -1.508191  3.707357
      ESP Fit Center  226 is at   2.529850 -1.508191  3.707357
      ESP Fit Center  227 is at   3.607673 -0.869548  3.492254
      ESP Fit Center  228 is at   3.413873 -0.146276  3.492254
      ESP Fit Center  229 is at   2.884401  0.383196  3.492254
      ESP Fit Center  230 is at   2.161129  0.576996  3.492254
      ESP Fit Center  231 is at   1.437858  0.383196  3.492254
      ESP Fit Center  232 is at   0.908386 -0.146276  3.492254
      ESP Fit Center  233 is at   0.714586 -0.869548  3.492254
      ESP Fit Center  234 is at   0.908386 -1.592819  3.492254
      ESP Fit Center  235 is at   1.437858 -2.122291  3.492254
      ESP Fit Center  236 is at   2.161129 -2.316091  3.492254
      ESP Fit Center  237 is at   2.884401 -2.122291  3.492254
      ESP Fit Center  238 is at   3.413873 -1.592819  3.492254
      ESP Fit Center  239 is at   4.261185 -0.869548  3.142944
      ESP Fit Center  240 is at   4.134536 -0.151286  3.142944
      ESP Fit Center  241 is at   3.769865  0.480342  3.142944
      ESP Fit Center  242 is at   3.211157  0.949154  3.142944
      ESP Fit Center  243 is at   2.525800  1.198603  3.142944
      ESP Fit Center  244 is at   1.796458  1.198603  3.142944
      ESP Fit Center  245 is at   1.111101  0.949154  3.142944
      ESP Fit Center  246 is at   0.552393  0.480342  3.142944
      ESP Fit Center  247 is at   0.187723 -0.151286  3.142944
      ESP Fit Center  248 is at   0.061074 -0.869548  3.142944
      ESP Fit Center  249 is at   0.187723 -1.587809  3.142944
      ESP Fit Center  250 is at   0.552393 -2.219437  3.142944
      ESP Fit Center  251 is at   1.111101 -2.688249  3.142944
      ESP Fit Center  252 is at   1.796458 -2.937699  3.142944
      ESP Fit Center  253 is at   2.525800 -2.937699  3.142944
      ESP Fit Center  254 is at   3.211157 -2.688249  3.142944
      ESP Fit Center  255 is at   3.769865 -2.219437  3.142944
      ESP Fit Center  256 is at   4.134536 -1.587809  3.142944
      ESP Fit Center  257 is at   4.833993 -0.869548  2.672853
      ESP Fit Center  258 is at   4.734876 -0.148418  2.672853
      ESP Fit Center  259 is at   4.444876  0.519229  2.672853
      ESP Fit Center  260 is at   3.985501  1.083877  2.672853
      ESP Fit Center  261 is at   3.390820  1.503648  2.672853
      ESP Fit Center  262 is at   2.704939  1.747410  2.672853
      ESP Fit Center  263 is at   1.978727  1.797085  2.672853
      ESP Fit Center  264 is at   1.266042  1.648987  2.672853
      ESP Fit Center  265 is at   0.619741  1.314101  2.672853
      ESP Fit Center  266 is at   0.087759  0.817264  2.672853
      ESP Fit Center  267 is at  -0.290452  0.195324  2.672853
      ESP Fit Center  268 is at  -0.486839 -0.505593  2.672853
      ESP Fit Center  269 is at  -0.486839 -1.233503  2.672853
      ESP Fit Center  270 is at  -0.290452 -1.934420  2.672853
      ESP Fit Center  271 is at   0.087759 -2.556360  2.672853
      ESP Fit Center  272 is at   0.619741 -3.053197  2.672853
      ESP Fit Center  273 is at   1.266042 -3.388083  2.672853
      ESP Fit Center  274 is at   1.978727 -3.536180  2.672853
      ESP Fit Center  275 is at   2.704939 -3.486506  2.672853
      ESP Fit Center  276 is at   3.390820 -3.242744  2.672853
      ESP Fit Center  277 is at   3.985501 -2.822973  2.672853
      ESP Fit Center  278 is at   4.444876 -2.258325  2.672853
      ESP Fit Center  279 is at   4.734876 -1.590678  2.672853
      ESP Fit Center  280 is at   5.304084 -0.869548  2.100045
      ESP Fit Center  281 is at   5.219366 -0.144732  2.100045
      ESP Fit Center  282 is at   4.969777  0.541008  2.100045
      ESP Fit Center  283 is at   4.568773  1.150705  2.100045
      ESP Fit Center  284 is at   4.037972  1.651489  2.100045
      ESP Fit Center  285 is at   3.405990  2.016364  2.100045
      ESP Fit Center  286 is at   2.706898  2.225659  2.100045
      ESP Fit Center  287 is at   1.978383  2.268090  2.100045
      ESP Fit Center  288 is at   1.259720  2.141370  2.100045
      ESP Fit Center  289 is at   0.589652  1.852331  2.100045
      ESP Fit Center  290 is at   0.004303  1.416555  2.100045
      ESP Fit Center  291 is at  -0.464771  0.857534  2.100045
      ESP Fit Center  292 is at  -0.792283  0.205406  2.100045
      ESP Fit Center  293 is at  -0.960574 -0.504673  2.100045
      ESP Fit Center  294 is at  -0.960574 -1.234423  2.100045
      ESP Fit Center  295 is at  -0.792283 -1.944502  2.100045
      ESP Fit Center  296 is at  -0.464771 -2.596630  2.100045
      ESP Fit Center  297 is at   0.004303 -3.155650  2.100045
      ESP Fit Center  298 is at   0.589652 -3.591427  2.100045
      ESP Fit Center  299 is at   1.259720 -3.880466  2.100045
      ESP Fit Center  300 is at   1.978383 -4.007186  2.100045
      ESP Fit Center  301 is at   2.706898 -3.964754  2.100045
      ESP Fit Center  302 is at   3.405990 -3.755460  2.100045
      ESP Fit Center  303 is at   4.037972 -3.390585  2.100045
      ESP Fit Center  304 is at   4.568773 -2.889800  2.100045
      ESP Fit Center  305 is at   4.969777 -2.280103  2.100045
      ESP Fit Center  306 is at   5.219366 -1.594363  2.100045
      ESP Fit Center  307 is at   5.653394 -0.869548  1.446533
      ESP Fit Center  308 is at   5.577079 -0.143465  1.446533
      ESP Fit Center  309 is at   5.351472  0.550884  1.446533
      ESP Fit Center  310 is at   4.986431  1.183154  1.446533
      ESP Fit Center  311 is at   4.497910  1.725711  1.446533
      ESP Fit Center  312 is at   3.907262  2.154842  1.446533
      ESP Fit Center  313 is at  -0.175652 -3.464806  1.446533
      ESP Fit Center  314 is at   0.414997 -3.893938  1.446533
      ESP Fit Center  315 is at   1.081960 -4.190889  1.446533
      ESP Fit Center  316 is at   1.796088 -4.342681  1.446533
      ESP Fit Center  317 is at   2.526170 -4.342681  1.446533
      ESP Fit Center  318 is at   3.240298 -4.190889  1.446533
      ESP Fit Center  319 is at   3.907262 -3.893938  1.446533
      ESP Fit Center  320 is at   4.497910 -3.464806  1.446533
      ESP Fit Center  321 is at   4.986431 -2.922249  1.446533
      ESP Fit Center  322 is at   5.351472 -2.289980  1.446533
      ESP Fit Center  323 is at   5.577079 -1.595630  1.446533
      ESP Fit Center  324 is at   5.868498 -0.869548  0.737431
      ESP Fit Center  325 is at   5.797262 -0.146276  0.737431
      ESP Fit Center  326 is at   5.586291  0.549201  0.737431
      ESP Fit Center  327 is at   5.243693  1.190156  0.737431
      ESP Fit Center  328 is at   4.782635  1.751958  0.737431
      ESP Fit Center  329 is at   0.101426 -3.952112  0.737431
      ESP Fit Center  330 is at   0.742381 -4.294710  0.737431
      ESP Fit Center  331 is at   1.437858 -4.505680  0.737431
      ESP Fit Center  332 is at   2.161129 -4.576916  0.737431
      ESP Fit Center  333 is at   2.884401 -4.505680  0.737431
      ESP Fit Center  334 is at   3.579878 -4.294710  0.737431
      ESP Fit Center  335 is at   4.220833 -3.952112  0.737431
      ESP Fit Center  336 is at   4.782635 -3.491053  0.737431
      ESP Fit Center  337 is at   5.243693 -2.929251  0.737431
      ESP Fit Center  338 is at   5.586291 -2.288296  0.737431
      ESP Fit Center  339 is at   5.797262 -1.592819  0.737431
      ESP Fit Center  340 is at   5.941129 -0.869548 -0.000011
      ESP Fit Center  341 is at   5.872820 -0.154178 -0.000011
      ESP Fit Center  342 is at   5.670360  0.535336 -0.000011
      ESP Fit Center  343 is at   5.341068  1.174075 -0.000011
      ESP Fit Center  344 is at   4.896844  1.738951 -0.000011
      ESP Fit Center  345 is at   0.271129 -4.143124 -0.000011
      ESP Fit Center  346 is at   0.924812 -4.441651 -0.000011
      ESP Fit Center  347 is at   1.623179 -4.611073 -0.000011
      ESP Fit Center  348 is at   2.340989 -4.645266 -0.000011
      ESP Fit Center  349 is at   3.052298 -4.542996 -0.000011
      ESP Fit Center  350 is at   3.731398 -4.307957 -0.000011
      ESP Fit Center  351 is at   4.353744 -3.948645 -0.000011
      ESP Fit Center  352 is at   4.896844 -3.478046 -0.000011
      ESP Fit Center  353 is at   5.341068 -2.913170 -0.000011
      ESP Fit Center  354 is at   5.670360 -2.274432 -0.000011
      ESP Fit Center  355 is at   5.872820 -1.584917 -0.000011
      ESP Fit Center  356 is at   5.868498 -0.869548 -0.737452
      ESP Fit Center  357 is at   5.797262 -0.146276 -0.737452
      ESP Fit Center  358 is at   5.586291  0.549201 -0.737452
      ESP Fit Center  359 is at   5.243693  1.190156 -0.737452
      ESP Fit Center  360 is at   4.782635  1.751958 -0.737452
      ESP Fit Center  361 is at   0.101426 -3.952112 -0.737452
      ESP Fit Center  362 is at   0.742381 -4.294710 -0.737452
      ESP Fit Center  363 is at   1.437858 -4.505680 -0.737452
      ESP Fit Center  364 is at   2.161129 -4.576916 -0.737452
      ESP Fit Center  365 is at   2.884401 -4.505680 -0.737452
      ESP Fit Center  366 is at   3.579878 -4.294710 -0.737452
      ESP Fit Center  367 is at   4.220833 -3.952112 -0.737452
      ESP Fit Center  368 is at   4.782635 -3.491053 -0.737452
      ESP Fit Center  369 is at   5.243693 -2.929251 -0.737452
      ESP Fit Center  370 is at   5.586291 -2.288296 -0.737452
      ESP Fit Center  371 is at   5.797262 -1.592819 -0.737452
      ESP Fit Center  372 is at   5.653394 -0.869548 -1.446554
      ESP Fit Center  373 is at   5.577079 -0.143465 -1.446554
      ESP Fit Center  374 is at   5.351472  0.550884 -1.446554
      ESP Fit Center  375 is at   4.986431  1.183154 -1.446554
      ESP Fit Center  376 is at   4.497910  1.725711 -1.446554
      ESP Fit Center  377 is at   3.907262  2.154842 -1.446554
      ESP Fit Center  378 is at  -0.175652 -3.464806 -1.446554
      ESP Fit Center  379 is at   0.414997 -3.893938 -1.446554
      ESP Fit Center  380 is at   1.081960 -4.190889 -1.446554
      ESP Fit Center  381 is at   1.796088 -4.342681 -1.446554
      ESP Fit Center  382 is at   2.526170 -4.342681 -1.446554
      ESP Fit Center  383 is at   3.240298 -4.190889 -1.446554
      ESP Fit Center  384 is at   3.907262 -3.893938 -1.446554
      ESP Fit Center  385 is at   4.497910 -3.464806 -1.446554
      ESP Fit Center  386 is at   4.986431 -2.922249 -1.446554
      ESP Fit Center  387 is at   5.351472 -2.289980 -1.446554
      ESP Fit Center  388 is at   5.577079 -1.595630 -1.446554
      ESP Fit Center  389 is at   5.304084 -0.869548 -2.100066
      ESP Fit Center  390 is at   5.219366 -0.144732 -2.100066
      ESP Fit Center  391 is at   4.969777  0.541008 -2.100066
      ESP Fit Center  392 is at   4.568773  1.150705 -2.100066
      ESP Fit Center  393 is at   4.037972  1.651489 -2.100066
      ESP Fit Center  394 is at   3.405990  2.016364 -2.100066
      ESP Fit Center  395 is at   2.706898  2.225659 -2.100066
      ESP Fit Center  396 is at   1.978383  2.268090 -2.100066
      ESP Fit Center  397 is at   1.259720  2.141370 -2.100066
      ESP Fit Center  398 is at   0.589652  1.852331 -2.100066
      ESP Fit Center  399 is at   0.004303  1.416555 -2.100066
      ESP Fit Center  400 is at  -0.464771  0.857534 -2.100066
      ESP Fit Center  401 is at  -0.792283  0.205406 -2.100066
      ESP Fit Center  402 is at  -0.960574 -0.504673 -2.100066
      ESP Fit Center  403 is at  -0.960574 -1.234423 -2.100066
      ESP Fit Center  404 is at  -0.792283 -1.944502 -2.100066
      ESP Fit Center  405 is at  -0.464771 -2.596630 -2.100066
      ESP Fit Center  406 is at   0.004303 -3.155650 -2.100066
      ESP Fit Center  407 is at   0.589652 -3.591427 -2.100066
      ESP Fit Center  408 is at   1.259720 -3.880466 -2.100066
      ESP Fit Center  409 is at   1.978383 -4.007186 -2.100066
      ESP Fit Center  410 is at   2.706898 -3.964754 -2.100066
      ESP Fit Center  411 is at   3.405990 -3.755460 -2.100066
      ESP Fit Center  412 is at   4.037972 -3.390585 -2.100066
      ESP Fit Center  413 is at   4.568773 -2.889800 -2.100066
      ESP Fit Center  414 is at   4.969777 -2.280103 -2.100066
      ESP Fit Center  415 is at   5.219366 -1.594363 -2.100066
      ESP Fit Center  416 is at   4.833993 -0.869548 -2.672874
      ESP Fit Center  417 is at   4.734876 -0.148418 -2.672874
      ESP Fit Center  418 is at   4.444876  0.519229 -2.672874
      ESP Fit Center  419 is at   3.985501  1.083877 -2.672874
      ESP Fit Center  420 is at   3.390820  1.503648 -2.672874
      ESP Fit Center  421 is at   2.704939  1.747410 -2.672874
      ESP Fit Center  422 is at   1.978727  1.797085 -2.672874
      ESP Fit Center  423 is at   1.266042  1.648987 -2.672874
      ESP Fit Center  424 is at   0.619741  1.314101 -2.672874
      ESP Fit Center  425 is at   0.087759  0.817264 -2.672874
      ESP Fit Center  426 is at  -0.290452  0.195324 -2.672874
      ESP Fit Center  427 is at  -0.486839 -0.505593 -2.672874
      ESP Fit Center  428 is at  -0.486839 -1.233503 -2.672874
      ESP Fit Center  429 is at  -0.290452 -1.934420 -2.672874
      ESP Fit Center  430 is at   0.087759 -2.556360 -2.672874
      ESP Fit Center  431 is at   0.619741 -3.053197 -2.672874
      ESP Fit Center  432 is at   1.266042 -3.388083 -2.672874
      ESP Fit Center  433 is at   1.978727 -3.536180 -2.672874
      ESP Fit Center  434 is at   2.704939 -3.486506 -2.672874
      ESP Fit Center  435 is at   3.390820 -3.242744 -2.672874
      ESP Fit Center  436 is at   3.985501 -2.822973 -2.672874
      ESP Fit Center  437 is at   4.444876 -2.258325 -2.672874
      ESP Fit Center  438 is at   4.734876 -1.590678 -2.672874
      ESP Fit Center  439 is at   4.261185 -0.869548 -3.142966
      ESP Fit Center  440 is at   4.134536 -0.151286 -3.142966
      ESP Fit Center  441 is at   3.769865  0.480342 -3.142966
      ESP Fit Center  442 is at   3.211157  0.949154 -3.142966
      ESP Fit Center  443 is at   2.525800  1.198603 -3.142966
      ESP Fit Center  444 is at   1.796458  1.198603 -3.142966
      ESP Fit Center  445 is at   1.111101  0.949154 -3.142966
      ESP Fit Center  446 is at   0.552393  0.480342 -3.142966
      ESP Fit Center  447 is at   0.187723 -0.151286 -3.142966
      ESP Fit Center  448 is at   0.061074 -0.869548 -3.142966
      ESP Fit Center  449 is at   0.187723 -1.587809 -3.142966
      ESP Fit Center  450 is at   0.552393 -2.219437 -3.142966
      ESP Fit Center  451 is at   1.111101 -2.688249 -3.142966
      ESP Fit Center  452 is at   1.796458 -2.937699 -3.142966
      ESP Fit Center  453 is at   2.525800 -2.937699 -3.142966
      ESP Fit Center  454 is at   3.211157 -2.688249 -3.142966
      ESP Fit Center  455 is at   3.769865 -2.219437 -3.142966
      ESP Fit Center  456 is at   4.134536 -1.587809 -3.142966
      ESP Fit Center  457 is at   3.607673 -0.869548 -3.492275
      ESP Fit Center  458 is at   3.413873 -0.146276 -3.492275
      ESP Fit Center  459 is at   2.884401  0.383196 -3.492275
      ESP Fit Center  460 is at   2.161129  0.576996 -3.492275
      ESP Fit Center  461 is at   1.437858  0.383196 -3.492275
      ESP Fit Center  462 is at   0.908386 -0.146276 -3.492275
      ESP Fit Center  463 is at   0.714586 -0.869548 -3.492275
      ESP Fit Center  464 is at   0.908386 -1.592819 -3.492275
      ESP Fit Center  465 is at   1.437858 -2.122291 -3.492275
      ESP Fit Center  466 is at   2.161129 -2.316091 -3.492275
      ESP Fit Center  467 is at   2.884401 -2.122291 -3.492275
      ESP Fit Center  468 is at   3.413873 -1.592819 -3.492275
      ESP Fit Center  469 is at   2.898571 -0.869548 -3.707379
      ESP Fit Center  470 is at   2.529850 -0.230905 -3.707379
      ESP Fit Center  471 is at   1.792409 -0.230905 -3.707379
      ESP Fit Center  472 is at   1.423688 -0.869548 -3.707379
      ESP Fit Center  473 is at   1.792409 -1.508191 -3.707379
      ESP Fit Center  474 is at   2.529850 -1.508191 -3.707379
      ESP Fit Center  475 is at   2.161129 -0.869548 -3.780011
      ESP Fit Center  476 is at  -0.825243 -3.398318  1.047315
      ESP Fit Center  477 is at  -1.000157 -3.680570  0.373687
      ESP Fit Center  478 is at  -1.000157 -3.680570 -0.373983
      ESP Fit Center  479 is at  -0.825243 -3.398318 -1.047611
      ESP Fit Center  480 is at  -3.527286 -2.813540  1.513253
      ESP Fit Center  481 is at  -3.162824 -3.444807  1.513253
      ESP Fit Center  482 is at  -2.433899 -3.444807  1.513253
      ESP Fit Center  483 is at  -4.111839 -2.813540  1.047088
      ESP Fit Center  484 is at  -3.860987 -3.585582  1.047088
      ESP Fit Center  485 is at  -3.204248 -4.062731  1.047088
      ESP Fit Center  486 is at  -2.392475 -4.062731  1.047088
      ESP Fit Center  487 is at  -1.735737 -3.585582  1.047088
      ESP Fit Center  488 is at  -4.388647 -3.205510  0.373460
      ESP Fit Center  489 is at  -4.024332 -3.899655  0.373460
      ESP Fit Center  490 is at  -3.379162 -4.344983  0.373460
      ESP Fit Center  491 is at  -2.600937 -4.439477  0.373460
      ESP Fit Center  492 is at  -1.867940 -4.161488  0.373460
      ESP Fit Center  493 is at  -1.348092 -3.574700  0.373460
      ESP Fit Center  494 is at  -4.388647 -3.205510 -0.374210
      ESP Fit Center  495 is at  -4.024332 -3.899655 -0.374210
      ESP Fit Center  496 is at  -3.379162 -4.344983 -0.374210
      ESP Fit Center  497 is at  -2.600937 -4.439477 -0.374210
      ESP Fit Center  498 is at  -1.867940 -4.161488 -0.374210
      ESP Fit Center  499 is at  -1.348092 -3.574700 -0.374210
      ESP Fit Center  500 is at  -4.111839 -2.813540 -1.047838
      ESP Fit Center  501 is at  -3.860987 -3.585582 -1.047838
      ESP Fit Center  502 is at  -3.204248 -4.062731 -1.047838
      ESP Fit Center  503 is at  -2.392475 -4.062731 -1.047838
      ESP Fit Center  504 is at  -1.735737 -3.585582 -1.047838
      ESP Fit Center  505 is at  -3.527286 -2.813540 -1.514003
      ESP Fit Center  506 is at  -3.162824 -3.444807 -1.514003
      ESP Fit Center  507 is at  -2.433899 -3.444807 -1.514003
      ESP Fit Center  508 is at   0.217561  4.460307  1.513495
      ESP Fit Center  509 is at  -0.511363  4.460307  1.513495
      ESP Fit Center  510 is at   0.915724  4.601082  1.047330
      ESP Fit Center  511 is at   0.258986  5.078231  1.047330
      ESP Fit Center  512 is at  -0.552788  5.078231  1.047330
      ESP Fit Center  513 is at  -1.209526  4.601082  1.047330
      ESP Fit Center  514 is at   0.783520  5.176988  0.373702
      ESP Fit Center  515 is at   0.050523  5.454977  0.373702
      ESP Fit Center  516 is at  -0.727701  5.360483  0.373702
      ESP Fit Center  517 is at  -1.372871  4.915155  0.373702
      ESP Fit Center  518 is at   0.783520  5.176988 -0.373968
      ESP Fit Center  519 is at   0.050523  5.454977 -0.373968
      ESP Fit Center  520 is at  -0.727701  5.360483 -0.373968
      ESP Fit Center  521 is at  -1.372871  4.915155 -0.373968
      ESP Fit Center  522 is at   0.915724  4.601082 -1.047596
      ESP Fit Center  523 is at   0.258986  5.078231 -1.047596
      ESP Fit Center  524 is at  -0.552788  5.078231 -1.047596
      ESP Fit Center  525 is at  -1.209526  4.601082 -1.047596
      ESP Fit Center  526 is at   0.217561  4.460307 -1.513761
      ESP Fit Center  527 is at  -0.511363  4.460307 -1.513761
      ESP Fit Center  528 is at  -2.845263  3.616309  1.513538
      ESP Fit Center  529 is at  -3.209726  2.985042  1.513538
      ESP Fit Center  530 is at  -2.074914  4.234233  1.047373
      ESP Fit Center  531 is at  -2.886688  4.234233  1.047373
      ESP Fit Center  532 is at  -3.543426  3.757084  1.047373
      ESP Fit Center  533 is at  -3.794278  2.985042  1.047373
      ESP Fit Center  534 is at  -3.543426  2.213000  1.047373
      ESP Fit Center  535 is at  -2.283376  4.610979  0.373745
      ESP Fit Center  536 is at  -3.061601  4.516485  0.373745
      ESP Fit Center  537 is at  -3.706771  4.071157  0.373745
      ESP Fit Center  538 is at  -4.071086  3.377012  0.373745
      ESP Fit Center  539 is at  -4.071086  2.593072  0.373745
      ESP Fit Center  540 is at  -2.283376  4.610979 -0.373925
      ESP Fit Center  541 is at  -3.061601  4.516485 -0.373925
      ESP Fit Center  542 is at  -3.706771  4.071157 -0.373925
      ESP Fit Center  543 is at  -4.071086  3.377012 -0.373925
      ESP Fit Center  544 is at  -4.071086  2.593072 -0.373925
      ESP Fit Center  545 is at  -2.074914  4.234233 -1.047553
      ESP Fit Center  546 is at  -2.886688  4.234233 -1.047553
      ESP Fit Center  547 is at  -3.543426  3.757084 -1.047553
      ESP Fit Center  548 is at  -3.794278  2.985042 -1.047553
      ESP Fit Center  549 is at  -3.543426  2.213000 -1.047553
      ESP Fit Center  550 is at  -2.845263  3.616309 -1.513718
      ESP Fit Center  551 is at  -3.209726  2.985042 -1.513718
      ESP Fit Center  552 is at   3.919500  2.589724  1.047785
      ESP Fit Center  553 is at   4.307145  2.578842  0.374157
      ESP Fit Center  554 is at   4.307145  2.578842 -0.373513
      ESP Fit Center  555 is at   3.919500  2.589724 -1.047141
      ESP Fit Center  556 is at   2.534790  4.032850  1.513895
      ESP Fit Center  557 is at   1.805866  4.032850  1.513895
      ESP Fit Center  558 is at   3.232953  4.173625  1.047730
      ESP Fit Center  559 is at   2.576215  4.650773  1.047730
      ESP Fit Center  560 is at   1.764441  4.650773  1.047730
      ESP Fit Center  561 is at   3.620598  4.162743  0.374102
      ESP Fit Center  562 is at   3.100749  4.749530  0.374102
      ESP Fit Center  563 is at   2.367752  5.027519  0.374102
      ESP Fit Center  564 is at   1.589528  4.933026  0.374102
      ESP Fit Center  565 is at   3.620598  4.162743 -0.373568
      ESP Fit Center  566 is at   3.100749  4.749530 -0.373568
      ESP Fit Center  567 is at   2.367752  5.027519 -0.373568
      ESP Fit Center  568 is at   1.589528  4.933026 -0.373568
      ESP Fit Center  569 is at   3.232953  4.173625 -1.047196
      ESP Fit Center  570 is at   2.576215  4.650773 -1.047196
      ESP Fit Center  571 is at   1.764441  4.650773 -1.047196
      ESP Fit Center  572 is at   2.534790  4.032850 -1.513361
      ESP Fit Center  573 is at   1.805866  4.032850 -1.513361
      ESP Fit Center  574 is at  -1.566492 -0.762711  2.252442
      ESP Fit Center  575 is at  -1.566492 -2.030319  2.252442
      ESP Fit Center  576 is at  -1.398677 -2.774414  1.916046
      ESP Fit Center  577 is at  -1.200565 -3.312533  1.392097
      ESP Fit Center  578 is at  -1.200565 -3.312533 -1.392040
      ESP Fit Center  579 is at  -1.398677 -2.774414 -1.915990
      ESP Fit Center  580 is at  -1.566492 -0.762711 -2.252386
      ESP Fit Center  581 is at  -1.566492 -2.030319 -2.252386
      ESP Fit Center  582 is at  -2.499720 -1.771633  2.368336
      ESP Fit Center  583 is at  -2.133793 -1.137829  2.252422
      ESP Fit Center  584 is at  -2.865647 -1.137829  2.252422
      ESP Fit Center  585 is at  -3.231573 -1.771633  2.252422
      ESP Fit Center  586 is at  -2.865647 -2.405437  2.252422
      ESP Fit Center  587 is at  -2.133793 -2.405437  2.252422
      ESP Fit Center  588 is at  -3.411331 -2.823688  1.916026
      ESP Fit Center  589 is at  -2.697832 -3.149532  1.916026
      ESP Fit Center  590 is at  -1.921434 -3.037903  1.916026
      ESP Fit Center  591 is at  -3.411331 -2.823688 -1.916010
      ESP Fit Center  592 is at  -2.697832 -3.149532 -1.916010
      ESP Fit Center  593 is at  -1.921434 -3.037903 -1.916010
      ESP Fit Center  594 is at  -2.133793 -1.137829 -2.252406
      ESP Fit Center  595 is at  -2.865647 -1.137829 -2.252406
      ESP Fit Center  596 is at  -3.231573 -1.771633 -2.252406
      ESP Fit Center  597 is at  -2.865647 -2.405437 -2.252406
      ESP Fit Center  598 is at  -2.133793 -2.405437 -2.252406
      ESP Fit Center  599 is at  -2.499720 -1.771633 -2.368320
      ESP Fit Center  600 is at  -3.588439 -0.801819  2.368940
      ESP Fit Center  601 is at  -2.856585 -0.801819  2.253026
      ESP Fit Center  602 is at  -3.222512 -0.168015  2.253026
      ESP Fit Center  603 is at  -3.954366 -0.168015  2.253026
      ESP Fit Center  604 is at  -4.320292 -0.801819  2.253026
      ESP Fit Center  605 is at  -3.954366 -1.435623  2.253026
      ESP Fit Center  606 is at  -3.222512 -1.435623  2.253026
      ESP Fit Center  607 is at  -4.500050  0.250236  1.916630
      ESP Fit Center  608 is at  -4.500050  0.250236 -1.915406
      ESP Fit Center  609 is at  -2.856585 -0.801819 -2.251802
      ESP Fit Center  610 is at  -3.222512 -0.168015 -2.251802
      ESP Fit Center  611 is at  -3.954366 -0.168015 -2.251802
      ESP Fit Center  612 is at  -4.320292 -0.801819 -2.251802
      ESP Fit Center  613 is at  -3.954366 -1.435623 -2.251802
      ESP Fit Center  614 is at  -3.222512 -1.435623 -2.251802
      ESP Fit Center  615 is at  -3.588439 -0.801819 -2.367716
      ESP Fit Center  616 is at  -4.771525 -1.051269  2.209966
      ESP Fit Center  617 is at  -5.149532 -0.396541  2.076660
      ESP Fit Center  618 is at  -5.527540 -1.051269  2.076660
      ESP Fit Center  619 is at  -5.149532 -1.705997  2.076660
      ESP Fit Center  620 is at  -4.393517 -1.705997  2.076660
      ESP Fit Center  621 is at  -4.771525  0.369574  1.692821
      ESP Fit Center  622 is at  -5.481946  0.179217  1.692821
      ESP Fit Center  623 is at  -6.002011 -0.340848  1.692821
      ESP Fit Center  624 is at  -6.192368 -1.051269  1.692821
      ESP Fit Center  625 is at  -6.002011 -1.761691  1.692821
      ESP Fit Center  626 is at  -5.481946 -2.281755  1.692821
      ESP Fit Center  627 is at  -4.771525 -2.472112  1.692821
      ESP Fit Center  628 is at  -5.504094  0.717311  1.104746
      ESP Fit Center  629 is at  -6.125137  0.302343  1.104746
      ESP Fit Center  630 is at  -6.540104 -0.318699  1.104746
      ESP Fit Center  631 is at  -6.685822 -1.051269  1.104746
      ESP Fit Center  632 is at  -6.540104 -1.783839  1.104746
      ESP Fit Center  633 is at  -6.125137 -2.404881  1.104746
      ESP Fit Center  634 is at  -5.504094 -2.819849  1.104746
      ESP Fit Center  635 is at  -4.771525 -2.965566  1.104746
      ESP Fit Center  636 is at  -5.859954  0.833945  0.383365
      ESP Fit Center  637 is at  -6.439095  0.347988  0.383365
      ESP Fit Center  638 is at  -6.817102 -0.306740  0.383365
      ESP Fit Center  639 is at  -6.948383 -1.051269  0.383365
      ESP Fit Center  640 is at  -6.817102 -1.795798  0.383365
      ESP Fit Center  641 is at  -6.439095 -2.450527  0.383365
      ESP Fit Center  642 is at  -5.859954 -2.936484  0.383365
      ESP Fit Center  643 is at  -5.149532 -3.195056  0.383365
      ESP Fit Center  644 is at  -5.859954  0.833945 -0.384313
      ESP Fit Center  645 is at  -6.439095  0.347988 -0.384313
      ESP Fit Center  646 is at  -6.817102 -0.306740 -0.384313
      ESP Fit Center  647 is at  -6.948383 -1.051269 -0.384313
      ESP Fit Center  648 is at  -6.817102 -1.795798 -0.384313
      ESP Fit Center  649 is at  -6.439095 -2.450527 -0.384313
      ESP Fit Center  650 is at  -5.859954 -2.936484 -0.384313
      ESP Fit Center  651 is at  -5.149532 -3.195056 -0.384313
      ESP Fit Center  652 is at  -5.504094  0.717311 -1.105694
      ESP Fit Center  653 is at  -6.125137  0.302343 -1.105694
[...]
 3052 Fit       0.000590
 3053 Fit       0.000883
 3054 Fit       0.001637
 3055 Fit       0.001821
 3056 Fit       0.001888
 3057 Fit       0.001747
 3058 Fit       0.001348
 3059 Fit       0.000733
 3060 Fit       0.000032
 3061 Fit      -0.000572
 3062 Fit      -0.000915
 3063 Fit      -0.000942
 3064 Fit      -0.000713
 3065 Fit      -0.000356
 3066 Fit       0.000003
 3067 Fit       0.000315
 3068 Fit       0.000598
 3069 Fit       0.000873
 3070 Fit       0.001143
 3071 Fit       0.001401
 3072 Fit       0.002197
 3073 Fit       0.002446
 3074 Fit       0.002653
 3075 Fit       0.002745
 3076 Fit       0.002637
 3077 Fit       0.002279
 3078 Fit       0.001687
 3079 Fit       0.000923
 3080 Fit       0.000091
 3081 Fit      -0.000662
 3082 Fit      -0.001187
 3083 Fit      -0.001408
 3084 Fit      -0.001336
 3085 Fit      -0.001033
 3086 Fit      -0.000595
 3087 Fit      -0.000149
 3088 Fit       0.000218
 3089 Fit       0.000499
 3090 Fit       0.000736
 3091 Fit       0.000967
 3092 Fit       0.001206
 3093 Fit       0.001452
 3094 Fit       0.001698
 3095 Fit       0.001946
 3096 Fit       0.002781
 3097 Fit       0.003091
 3098 Fit       0.003412
 3099 Fit       0.003687
 3100 Fit       0.003827
 3101 Fit       0.003739
 3102 Fit       0.003373
 3103 Fit       0.002751
 3104 Fit       0.001921
 3105 Fit       0.000934
 3106 Fit      -0.000102
 3107 Fit      -0.001011
 3108 Fit      -0.001636
 3109 Fit      -0.001918
 3110 Fit      -0.001888
 3111 Fit      -0.001608
 3112 Fit      -0.001118
 3113 Fit      -0.000510
 3114 Fit       0.000058
 3115 Fit       0.000478
 3116 Fit       0.000754
 3117 Fit       0.000949
 3118 Fit       0.001127
 3119 Fit       0.001322
 3120 Fit       0.001539
 3121 Fit       0.001771
 3122 Fit       0.002008
 3123 Fit       0.002248
 3124 Fit       0.002502
 3125 Fit       0.003368
 3126 Fit       0.003731
 3127 Fit       0.004148
 3128 Fit       0.004588
 3129 Fit       0.004975
 3130 Fit       0.005204
 3131 Fit       0.005172
 3132 Fit       0.004833
 3133 Fit       0.004213
 3134 Fit       0.003360
 3135 Fit       0.002273
 3136 Fit       0.000979
 3137 Fit      -0.000347
 3138 Fit      -0.001454
 3139 Fit      -0.002186
 3140 Fit      -0.002509
 3141 Fit      -0.002493
 3142 Fit      -0.002261
 3143 Fit      -0.001830
 3144 Fit      -0.001137
 3145 Fit      -0.000300
 3146 Fit       0.000433
 3147 Fit       0.000919
 3148 Fit       0.001182
 3149 Fit       0.001319
 3150 Fit       0.001420
 3151 Fit       0.001542
 3152 Fit       0.001702
 3153 Fit       0.001898
 3154 Fit       0.002115
 3155 Fit       0.002340
 3156 Fit       0.002568
 3157 Fit       0.002804
 3158 Fit       0.003064
 3159 Fit       0.003936
 3160 Fit       0.004353
 3161 Fit       0.004865
 3162 Fit       0.005460
 3163 Fit       0.006084
 3164 Fit       0.006640
 3165 Fit       0.007002
 3166 Fit       0.007053
 3167 Fit       0.006752
 3168 Fit       0.006138
 3169 Fit       0.005247
 3170 Fit       0.004000
 3171 Fit       0.002317
 3172 Fit       0.000412
 3173 Fit      -0.001271
 3174 Fit      -0.002443
 3175 Fit      -0.003070
 3176 Fit      -0.003181
 3177 Fit      -0.002937
 3178 Fit      -0.002671
 3179 Fit      -0.002354
 3180 Fit      -0.001585
 3181 Fit      -0.000400
 3182 Fit       0.000719
 3183 Fit       0.001444
 3184 Fit       0.001776
 3185 Fit       0.001867
 3186 Fit       0.001867
 3187 Fit       0.001874
 3188 Fit       0.001933
 3189 Fit       0.002054
 3190 Fit       0.002227
 3191 Fit       0.002431
 3192 Fit       0.002649
 3193 Fit       0.002871
 3194 Fit       0.003095
 3195 Fit       0.003332
 3196 Fit       0.003604
 3197 Fit       0.004460
 3198 Fit       0.004919
 3199 Fit       0.005507
 3200 Fit       0.006230
 3201 Fit       0.007065
 3202 Fit       0.007947
 3203 Fit       0.008768
 3204 Fit       0.009395
 3205 Fit       0.009713
 3206 Fit       0.009669
 3207 Fit       0.009262
 3208 Fit       0.008459
 3209 Fit       0.007063
 3210 Fit       0.004814
 3211 Fit      -0.002753
 3212 Fit      -0.002444
 3213 Fit      -0.000603
 3214 Fit       0.001165
 3215 Fit       0.002270
 3216 Fit       0.002697
 3217 Fit       0.002719
 3218 Fit       0.002576
 3219 Fit       0.002419
 3220 Fit       0.002325
 3221 Fit       0.002319
 3222 Fit       0.002398
 3223 Fit       0.002543
 3224 Fit       0.002731
 3225 Fit       0.002941
 3226 Fit       0.003156
 3227 Fit       0.003370
 3228 Fit       0.003588
 3229 Fit       0.003825
 3230 Fit       0.004105
 3231 Fit       0.004915
 3232 Fit       0.005415
 3233 Fit       0.006073
 3234 Fit       0.006912
 3235 Fit       0.007937
 3236 Fit       0.009120
 3237 Fit       0.010395
 3238 Fit       0.011665
 3239 Fit       0.012838
 3240 Fit       0.013844
 3241 Fit       0.014567
 3242 Fit       0.003303
 3243 Fit       0.004130
 3244 Fit       0.004115
 3245 Fit       0.003764
 3246 Fit       0.003351
 3247 Fit       0.003005
 3248 Fit       0.002778
 3249 Fit       0.002679
 3250 Fit       0.002694
 3251 Fit       0.002798
 3252 Fit       0.002963
 3253 Fit       0.003162
 3254 Fit       0.003373
 3255 Fit       0.003585
 3256 Fit       0.003794
 3257 Fit       0.004009
 3258 Fit       0.004248
 3259 Fit       0.004538
 3260 Fit       0.005279
 3261 Fit       0.005815
 3262 Fit       0.006535
 3263 Fit       0.007478
 3264 Fit       0.008670
 3265 Fit       0.010121
 3266 Fit       0.011815
 3267 Fit       0.013729
 3268 Fit       0.015889
 3269 Fit       0.018424
 3270 Fit       0.006963
 3271 Fit       0.006085
 3272 Fit       0.005146
 3273 Fit       0.004338
 3274 Fit       0.003716
 3275 Fit       0.003290
 3276 Fit       0.003046
 3277 Fit       0.002957
 3278 Fit       0.002992
 3279 Fit       0.003114
 3280 Fit       0.003292
 3281 Fit       0.003497
 3282 Fit       0.003710
 3283 Fit       0.003920
 3284 Fit       0.004127
 3285 Fit       0.004340
 3286 Fit       0.004582
 3287 Fit       0.004882
 3288 Fit       0.005533
 3289 Fit       0.006086
 3290 Fit       0.006835
 3291 Fit       0.007828
 3292 Fit       0.009109
 3293 Fit       0.010715
 3294 Fit       0.012676
 3295 Fit       0.015044
 3296 Fit       0.017981
 3297 Fit       0.021926
 3298 Fit       0.008722
 3299 Fit       0.006757
 3300 Fit       0.005411
 3301 Fit       0.004463
 3302 Fit       0.003815
 3303 Fit       0.003410
 3304 Fit       0.003204
 3305 Fit       0.003153
 3306 Fit       0.003216
 3307 Fit       0.003358
 3308 Fit       0.003545
 3309 Fit       0.003752
 3310 Fit       0.003962
 3311 Fit       0.004167
 3312 Fit       0.004369
 3313 Fit       0.004580
 3314 Fit       0.004822
 3315 Fit       0.005126
 3316 Fit       0.005663
 3317 Fit       0.006238
 3318 Fit       0.007025
 3319 Fit       0.008079
 3320 Fit       0.009457
 3321 Fit       0.011212
 3322 Fit       0.013405
 3323 Fit       0.016147
 3324 Fit       0.019740
 3325 Fit       0.010439
 3326 Fit       0.007594
 3327 Fit       0.005885
 3328 Fit       0.004757
 3329 Fit       0.004012
 3330 Fit       0.003554
 3331 Fit       0.003318
 3332 Fit       0.003252
 3333 Fit       0.003311
 3334 Fit       0.003452
 3335 Fit       0.003642
 3336 Fit       0.003853
 3337 Fit       0.004066
 3338 Fit       0.004273
 3339 Fit       0.004476
 3340 Fit       0.004689
 3341 Fit       0.004934
 3342 Fit       0.005244
 3343 Fit       0.005662
 3344 Fit       0.006238
 3345 Fit       0.007024
 3346 Fit       0.008078
 3347 Fit       0.009456
 3348 Fit       0.011210
 3349 Fit       0.013403
 3350 Fit       0.016144
 3351 Fit       0.019735
 3352 Fit       0.010440
 3353 Fit       0.007594
 3354 Fit       0.005884
 3355 Fit       0.004757
 3356 Fit       0.004012
 3357 Fit       0.003553
 3358 Fit       0.003317
 3359 Fit       0.003252
 3360 Fit       0.003310
 3361 Fit       0.003452
 3362 Fit       0.003642
 3363 Fit       0.003852
 3364 Fit       0.004065
 3365 Fit       0.004273
 3366 Fit       0.004476
 3367 Fit       0.004688
 3368 Fit       0.004933
 3369 Fit       0.005244
 3370 Fit       0.005531
 3371 Fit       0.006084
 3372 Fit       0.006832
 3373 Fit       0.007825
 3374 Fit       0.009105
 3375 Fit       0.010709
 3376 Fit       0.012669
 3377 Fit       0.015035
 3378 Fit       0.017968
 3379 Fit       0.021909
 3380 Fit       0.008723
 3381 Fit       0.006757
 3382 Fit       0.005411
 3383 Fit       0.004462
 3384 Fit       0.003814
 3385 Fit       0.003409
 3386 Fit       0.003203
 3387 Fit       0.003152
 3388 Fit       0.003215
 3389 Fit       0.003357
 3390 Fit       0.003544
 3391 Fit       0.003752
 3392 Fit       0.003962
 3393 Fit       0.004166
 3394 Fit       0.004368
 3395 Fit       0.004579
 3396 Fit       0.004820
 3397 Fit       0.005125
 3398 Fit       0.005276
 3399 Fit       0.005812
 3400 Fit       0.006531
 3401 Fit       0.007472
 3402 Fit       0.008664
 3403 Fit       0.010112
 3404 Fit       0.011803
 3405 Fit       0.013714
 3406 Fit       0.015870
 3407 Fit       0.018398
 3408 Fit       0.006964
 3409 Fit       0.006084
 3410 Fit       0.005144
 3411 Fit       0.004337
 3412 Fit       0.003715
 3413 Fit       0.003288
 3414 Fit       0.003044
 3415 Fit       0.002956
 3416 Fit       0.002991
 3417 Fit       0.003113
 3418 Fit       0.003291
 3419 Fit       0.003496
 3420 Fit       0.003709
 3421 Fit       0.003919
 3422 Fit       0.004125
 3423 Fit       0.004338
 3424 Fit       0.004580
 3425 Fit       0.004880
 3426 Fit       0.004911
 3427 Fit       0.005410
 3428 Fit       0.006067
 3429 Fit       0.006905
 3430 Fit       0.007928
 3431 Fit       0.009109
 3432 Fit       0.010380
 3433 Fit       0.011646
 3434 Fit       0.012814
 3435 Fit       0.013815
 3436 Fit       0.014533
 3437 Fit       0.003298
 3438 Fit       0.004127
 3439 Fit       0.004112
 3440 Fit       0.003761
 3441 Fit       0.003349
 3442 Fit       0.003003
 3443 Fit       0.002776
 3444 Fit       0.002677
 3445 Fit       0.002692
 3446 Fit       0.002796
 3447 Fit       0.002961
 3448 Fit       0.003160
 3449 Fit       0.003371
 3450 Fit       0.003583
 3451 Fit       0.003792
 3452 Fit       0.004006
 3453 Fit       0.004245
 3454 Fit       0.004535
 3455 Fit       0.004455
 3456 Fit       0.004913
 3457 Fit       0.005500
 3458 Fit       0.006221
 3459 Fit       0.007054
 3460 Fit       0.007933
 3461 Fit       0.008751
 3462 Fit       0.009373
 3463 Fit       0.009687
 3464 Fit       0.009639
 3465 Fit       0.009231
 3466 Fit       0.008429
 3467 Fit       0.007037
 3468 Fit       0.004793
 3469 Fit      -0.002799
 3470 Fit      -0.002493
 3471 Fit      -0.000620
 3472 Fit       0.001155
 3473 Fit       0.002263
 3474 Fit       0.002692
 3475 Fit       0.002715
 3476 Fit       0.002572
 3477 Fit       0.002416
 3478 Fit       0.002322
 3479 Fit       0.002316
 3480 Fit       0.002395
 3481 Fit       0.002540
 3482 Fit       0.002729
 3483 Fit       0.002938
 3484 Fit       0.003153
 3485 Fit       0.003367
 3486 Fit       0.003584
 3487 Fit       0.003821
 3488 Fit       0.004101
 3489 Fit       0.003930
 3490 Fit       0.004346
 3491 Fit       0.004857
 3492 Fit       0.005450
 3493 Fit       0.006071
 3494 Fit       0.006625
 3495 Fit       0.006983
 3496 Fit       0.007031
 3497 Fit       0.006726
 3498 Fit       0.006111
 3499 Fit       0.005221
 3500 Fit       0.003977
 3501 Fit       0.002298
 3502 Fit       0.000394
 3503 Fit      -0.001288
 3504 Fit      -0.002461
 3505 Fit      -0.003092
 3506 Fit      -0.003207
 3507 Fit      -0.002968
 3508 Fit      -0.002703
 3509 Fit      -0.002382
 3510 Fit      -0.001607
 3511 Fit      -0.000415
 3512 Fit       0.000709
 3513 Fit       0.001437
 3514 Fit       0.001770
 3515 Fit       0.001862
 3516 Fit       0.001863
 3517 Fit       0.001870
 3518 Fit       0.001929
 3519 Fit       0.002051
 3520 Fit       0.002223
 3521 Fit       0.002428
 3522 Fit       0.002646
 3523 Fit       0.002867
 3524 Fit       0.003091
 3525 Fit       0.003328
 3526 Fit       0.003599
 3527 Fit       0.003361
 3528 Fit       0.003722
 3529 Fit       0.004139
 3530 Fit       0.004576
 3531 Fit       0.004961
 3532 Fit       0.005187
 3533 Fit       0.005153
 3534 Fit       0.004811
 3535 Fit       0.004191
 3536 Fit       0.003338
 3537 Fit       0.002253
 3538 Fit       0.000960
 3539 Fit      -0.000364
 3540 Fit      -0.001471
 3541 Fit      -0.002204
 3542 Fit      -0.002530
 3543 Fit      -0.002516
 3544 Fit      -0.002285
 3545 Fit      -0.001850
 3546 Fit      -0.001154
 3547 Fit      -0.000313
 3548 Fit       0.000423
 3549 Fit       0.000912
 3550 Fit       0.001176
 3551 Fit       0.001313
 3552 Fit       0.001416
 3553 Fit       0.001537
 3554 Fit       0.001698
 3555 Fit       0.001894
 3556 Fit       0.002111
 3557 Fit       0.002335
 3558 Fit       0.002563
 3559 Fit       0.002799
 3560 Fit       0.003059
 3561 Fit       0.002773
 3562 Fit       0.003082
 3563 Fit       0.003401
 3564 Fit       0.003675
 3565 Fit       0.003813
 3566 Fit       0.003721
 3567 Fit       0.003355
 3568 Fit       0.002732
 3569 Fit       0.001902
 3570 Fit       0.000916
 3571 Fit      -0.000119
 3572 Fit      -0.001028
 3573 Fit      -0.001654
 3574 Fit      -0.001936
 3575 Fit      -0.001907
 3576 Fit      -0.001625
 3577 Fit      -0.001133
 3578 Fit      -0.000522
 3579 Fit       0.000048
 3580 Fit       0.000470
 3581 Fit       0.000747
 3582 Fit       0.000943
 3583 Fit       0.001122
 3584 Fit       0.001317
 3585 Fit       0.001534
 3586 Fit       0.001766
 3587 Fit       0.002002
 3588 Fit       0.002242
 3589 Fit       0.002495
 3590 Fit       0.002189
 3591 Fit       0.002436
 3592 Fit       0.002641
 3593 Fit       0.002732
 3594 Fit       0.002622
 3595 Fit       0.002263
 3596 Fit       0.001670
 3597 Fit       0.000907
 3598 Fit       0.000075
 3599 Fit      -0.000678
 3600 Fit      -0.001203
 3601 Fit      -0.001424
 3602 Fit      -0.001351
 3603 Fit      -0.001047
 3604 Fit      -0.000607
 3605 Fit      -0.000159
 3606 Fit       0.000210
 3607 Fit       0.000492
 3608 Fit       0.000729
 3609 Fit       0.000961
 3610 Fit       0.001201
 3611 Fit       0.001446
 3612 Fit       0.001692
 3613 Fit       0.001938
 3614 Fit       0.001628
 3615 Fit       0.001811
 3616 Fit       0.001876
 3617 Fit       0.001734
 3618 Fit       0.001334
 3619 Fit       0.000718
 3620 Fit       0.000017
 3621 Fit      -0.000586
 3622 Fit      -0.000929
 3623 Fit      -0.000956
 3624 Fit      -0.000725
 3625 Fit      -0.000367
 3626 Fit      -0.000006
 3627 Fit       0.000308
 3628 Fit       0.000591
 3629 Fit       0.000866
 3630 Fit       0.001136
 3631 Fit       0.001393
 3632 Fit       0.001103
 3633 Fit       0.001197
 3634 Fit       0.001048
 3635 Fit       0.000611
 3636 Fit       0.000021
 3637 Fit      -0.000447
 3638 Fit      -0.000584
 3639 Fit      -0.000405
 3640 Fit      -0.000081
 3641 Fit       0.000260
 3642 Fit       0.000582
 3643 Fit       0.000875
 3644 Fit       0.000623
 3645 Fit       0.000539
 3646 Fit       0.000077
 3647 Fit      -0.000210
 3648 Fit      -0.000017
 3649 Fit       0.000355
 3650 Fit       0.000188
 3651 Fit      -0.002593
 3652 Fit       0.001904
 3653 Fit      -0.012106
 3654 Fit      -0.004134
 3655 Fit       0.001176
 3656 Fit       0.004674
 3657 Fit       0.007089
 3658 Fit      -0.008651
 3659 Fit      -0.001674
 3660 Fit       0.002897
 3661 Fit       0.006053
 3662 Fit       0.008474
 3663 Fit      -0.006087
 3664 Fit       0.000285
 3665 Fit       0.004463
 3666 Fit       0.007427
 3667 Fit       0.009898
 3668 Fit      -0.006090
 3669 Fit       0.000283
 3670 Fit       0.004462
 3671 Fit       0.007427
 3672 Fit       0.009898
 3673 Fit      -0.008660
 3674 Fit      -0.001679
 3675 Fit       0.002893
 3676 Fit       0.006051
 3677 Fit       0.008472
 3678 Fit      -0.012126
 3679 Fit      -0.004146
 3680 Fit       0.001168
 3681 Fit       0.004669
 3682 Fit       0.007086
 3683 Fit      -0.002609
 3684 Fit       0.001894
 3685 Fit       0.016428
 3686 Fit       0.014141
 3687 Fit       0.023702
 3688 Fit       0.020256
 3689 Fit       0.017545
 3690 Fit       0.015443
 3691 Fit       0.026607
 3692 Fit       0.022207
 3693 Fit       0.019371
 3694 Fit       0.017434
 3695 Fit       0.016265
 3696 Fit       0.024354
 3697 Fit       0.020912
 3698 Fit       0.018717
 3699 Fit       0.017445
 3700 Fit       0.017473
 3701 Fit       0.024352
 3702 Fit       0.020910
 3703 Fit       0.018716
 3704 Fit       0.017444
 3705 Fit       0.017472
 3706 Fit       0.026595
 3707 Fit       0.022200
 3708 Fit       0.019366
 3709 Fit       0.017430
 3710 Fit       0.016261
 3711 Fit       0.023681
 3712 Fit       0.020243
 3713 Fit       0.017537
 3714 Fit       0.015437
 3715 Fit       0.016412
 3716 Fit       0.014131
 3717 Fit       0.004093
 3718 Fit      -0.000363
 3719 Fit       0.010925
 3720 Fit       0.008306
 3721 Fit       0.005016
 3722 Fit       0.000518
 3723 Fit      -0.005700
 3724 Fit       0.013659
 3725 Fit       0.010690
 3726 Fit       0.007688
 3727 Fit       0.003996
 3728 Fit      -0.001048
 3729 Fit      -0.008307
 3730 Fit       0.016169
 3731 Fit       0.012557
 3732 Fit       0.009456
 3733 Fit       0.005969
 3734 Fit       0.001350
 3735 Fit      -0.005351
 3736 Fit       0.016168
 3737 Fit       0.012556
 3738 Fit       0.009455
 3739 Fit       0.005968
 3740 Fit       0.001348
 3741 Fit      -0.005353
 3742 Fit       0.013657
 3743 Fit       0.010688
 3744 Fit       0.007685
 3745 Fit       0.003992
 3746 Fit      -0.001053
 3747 Fit      -0.008314
 3748 Fit       0.010920
 3749 Fit       0.008302
 3750 Fit       0.005011
 3751 Fit       0.000511
 3752 Fit      -0.005709
 3753 Fit       0.004086
 3754 Fit      -0.000372
 3755 Fit       0.018812
 3756 Fit       0.019268
 3757 Fit       0.021624
 3758 Fit       0.022864
 3759 Fit       0.023728
 3760 Fit       0.024209
 3761 Fit       0.023677
 3762 Fit       0.024679
 3763 Fit       0.025685
 3764 Fit       0.026715
 3765 Fit       0.028095
 3766 Fit       0.024924
 3767 Fit       0.025769
 3768 Fit       0.026762
 3769 Fit       0.027889
 3770 Fit       0.029559
 3771 Fit       0.024920
 3772 Fit       0.025765
 3773 Fit       0.026759
 3774 Fit       0.027886
 3775 Fit       0.029557
 3776 Fit       0.023665
 3777 Fit       0.024668
 3778 Fit       0.025676
 3779 Fit       0.026707
 3780 Fit       0.028088
 3781 Fit       0.021604
 3782 Fit       0.022847
 3783 Fit       0.023714
 3784 Fit       0.024196
 3785 Fit       0.018786
 3786 Fit       0.019246
 -----------------------------------------------------------------
 Leave Link  602 at Fri Jan 17 11:55:01 2014, MaxMem=   235929600 cpu:         1.2

 Test job not archived.
 1\1\GINC-G29\SP\RHF\Gen\C9H6I1N1O2\KOLAR\17-Jan-2014\0\\# hf/gen pseud
 o=read pop=(mk, readradii) iop(6/33=2,6/41=5,6/42=2)\\na resp\\0,1\C,0
 ,-1.200565,-1.396515,0.000028\C,0,-2.49972,-1.771633,0.000008\C,0,-3.5
 88439,-0.801819,0.000612\O,0,-4.771525,-1.051269,-0.000474\O,0,-3.1955
 17,0.532447,0.000163\C,0,-1.885885,0.925384,0.000039\C,0,-0.824777,-0.
 001408,0.000101\C,0,0.496119,0.500719,0.000046\C,0,0.772433,1.876264,-
 0.00002\C,0,-0.33844,2.758967,-0.000065\C,0,-1.64041,2.299412,-0.00005
 9\N,0,2.038971,2.404243,-0.000133\I,0,2.161129,-0.869548,-0.000011\H,0
 ,-0.419357,-2.149127,-0.000148\H,0,-2.798362,-2.81354,-0.000375\H,0,-0
 .146901,3.82904,-0.000133\H,0,-2.480801,2.985042,-0.00009\H,0,2.856875
 ,1.817681,0.000322\H,0,2.170328,3.401582,0.000267\\Version=AM64L-G09Re
 vD.01\State=1-A\HF=-559.6250979\RMSD=5.867e-09\Dipole=2.2253422,0.9384
 206,0.0014298\Quadrupole=-15.447789,15.9088649,-0.4610759,0.3130088,-0
 .0039128,0.0019757\PG=C01 [X(C9H6I1N1O2)]\\@


 The most important thing in communication is to hear what isn't being said.
 -- Peter F. Drucker
 Job cpu time:       0 days  0 hours  0 minutes 28.8 seconds.
 File lengths (MBytes):  RWF=     15 Int=      0 D2E=      0 Chk=      2 Scr=      1
 Normal termination of Gaussian 09 at Fri Jan 17 11:55:01 2014.
27.83user 0.93system 0:28.94elapsed 99%CPU (0avgtext+0avgdata 5253856maxresident)k
8inputs+32472outputs (0major+482894minor)pagefaults 0swaps
