Linux g59 2.6.38.6-client #1 SMP Tue Jun 12 11:27:21 CEST 2012 x86_64 GNU/Linux
Thu Jan 16 22:36:46 CET 2014

 Entering Gaussian System, Link 0=/usr/local/programs/common/gaussian/gaussian09_d01/arch/amd64-pgi_10.4.0-acml/g09/g09
 Initial command:
 /usr/local/programs/common/gaussian/gaussian09_d01/arch/amd64-pgi_10.4.0-acml/g09/l1.exe "/scratch/kolar/g09_25973/Gau-1824.inp" -scrdir="/scratch/kolar/g09_25973/"
 Entering Link 1 = /usr/local/programs/common/gaussian/gaussian09_d01/arch/amd64-pgi_10.4.0-acml/g09/l1.exe PID=      1829.
  
 Copyright (c) 1988,1990,1992,1993,1995,1998,2003,2009,2013,
            Gaussian, Inc.  All Rights Reserved.
  
 This is part of the Gaussian(R) 09 program.  It is based on
 the Gaussian(R) 03 system (copyright 2003, Gaussian, Inc.),
 the Gaussian(R) 98 system (copyright 1998, Gaussian, Inc.),
 the Gaussian(R) 94 system (copyright 1995, Gaussian, Inc.),
 the Gaussian 92(TM) system (copyright 1992, Gaussian, Inc.),
 the Gaussian 90(TM) system (copyright 1990, Gaussian, Inc.),
 the Gaussian 88(TM) system (copyright 1988, Gaussian, Inc.),
 the Gaussian 86(TM) system (copyright 1986, Carnegie Mellon
 University), and the Gaussian 82(TM) system (copyright 1983,
 Carnegie Mellon University). Gaussian is a federally registered
 trademark of Gaussian, Inc.
  
 This software contains proprietary and confidential information,
 including trade secrets, belonging to Gaussian, Inc.
  
 This software is provided under written license and may be
 used, copied, transmitted, or stored only in accord with that
 written license.
  
 The following legend is applicable only to US Government
 contracts under FAR:
  
                    RESTRICTED RIGHTS LEGEND
  
 Use, reproduction and disclosure by the US Government is
 subject to restrictions as set forth in subparagraphs (a)
 and (c) of the Commercial Computer Software - Restricted
 Rights clause in FAR 52.227-19.
  
 Gaussian, Inc.
 340 Quinnipiac St., Bldg. 40, Wallingford CT 06492
  
  
 ---------------------------------------------------------------
 Warning -- This program may not be used in any manner that
 competes with the business of Gaussian, Inc. or will provide
 assistance to any competitor of Gaussian, Inc.  The licensee
 of this program is prohibited from giving any competitor of
 Gaussian, Inc. access to this program.  By using this program,
 the user acknowledges that Gaussian, Inc. is engaged in the
 business of creating and licensing software in the field of
 computational chemistry and represents and warrants to the
 licensee that it is not a competitor of Gaussian, Inc. and that
 it will not use this program in any manner prohibited above.
 ---------------------------------------------------------------
  

 Cite this work as:
 Gaussian 09, Revision D.01,
 M. J. Frisch, G. W. Trucks, H. B. Schlegel, G. E. Scuseria, 
 M. A. Robb, J. R. Cheeseman, G. Scalmani, V. Barone, B. Mennucci, 
 G. A. Petersson, H. Nakatsuji, M. Caricato, X. Li, H. P. Hratchian, 
 A. F. Izmaylov, J. Bloino, G. Zheng, J. L. Sonnenberg, M. Hada, 
 M. Ehara, K. Toyota, R. Fukuda, J. Hasegawa, M. Ishida, T. Nakajima, 
 Y. Honda, O. Kitao, H. Nakai, T. Vreven, J. A. Montgomery, Jr., 
 J. E. Peralta, F. Ogliaro, M. Bearpark, J. J. Heyd, E. Brothers, 
 K. N. Kudin, V. N. Staroverov, T. Keith, R. Kobayashi, J. Normand, 
 K. Raghavachari, A. Rendell, J. C. Burant, S. S. Iyengar, J. Tomasi, 
 M. Cossi, N. Rega, J. M. Millam, M. Klene, J. E. Knox, J. B. Cross, 
 V. Bakken, C. Adamo, J. Jaramillo, R. Gomperts, R. E. Stratmann, 
 O. Yazyev, A. J. Austin, R. Cammi, C. Pomelli, J. W. Ochterski, 
 R. L. Martin, K. Morokuma, V. G. Zakrzewski, G. A. Voth, 
 P. Salvador, J. J. Dannenberg, S. Dapprich, A. D. Daniels, 
 O. Farkas, J. B. Foresman, J. V. Ortiz, J. Cioslowski, 
 and D. J. Fox, Gaussian, Inc., Wallingford CT, 2013.
 
 ******************************************
 Gaussian 09:  AM64L-G09RevD.01 24-Apr-2013
                16-Jan-2014 
 ******************************************
 %mem=1800mb
 -----------------------------------------
 # hf/gen pop=mk iop(6/33=2,6/41=5,6/42=2)
 -----------------------------------------
 1/38=1/1;
 2/12=2,17=6,18=5,40=1/2;
 3/5=7,11=9,16=1,25=1,30=1/1,2,3;
 4//1;
 5/5=2,38=5/2;
 6/7=2,8=2,9=2,10=2,15=8,20=1,28=1,33=2,41=5,42=2/1,2;
 99/5=1,9=1/99;
 -------
 na resp
 -------
 Symbolic Z-matrix:
 Charge =  0 Multiplicity = 1
 16                   -0.8783   -0.83071   0.10056 
 6                     0.69654   0.05426  -0.04711 
 7                     0.66758   1.32876  -0.14373 
 6                    -0.68164   1.85019  -0.01852 
 6                    -1.73175   0.74539  -0.34415 
 7                     1.81406  -0.73564  -0.03561 
 6                     3.16819  -0.37225  -0.01554 
 7                     3.98183  -1.43779  -0.00833 
 6                     5.29896  -1.214     0.01832 
 6                     5.86674   0.05844   0.04079 
 6                     5.00192   1.15463   0.03049 
 6                     3.62547   0.95489  -0.00074 
 6                    -3.0269    0.94994   0.41596 
 35                   -4.38314  -0.41699  -0.03905 
 1                    -1.93662   0.71824  -1.41866 
 1                     5.39558   2.1676    0.04401 
 1                     6.94451   0.18322   0.06288 
 1                     5.92739  -2.10305   0.02214 
 1                     2.91712   1.77172  -0.01916 
 1                    -0.83287   2.22054   1.00815 
 1                    -0.82064   2.70321  -0.69237 
 1                    -2.88514   0.88052   1.49431 
 1                    -3.48305   1.90743   0.15753 
 1                     1.68704  -1.73957  -0.06459 
 
                          Input orientation:                          
 ---------------------------------------------------------------------
 Center     Atomic      Atomic             Coordinates (Angstroms)
 Number     Number       Type             X           Y           Z
 ---------------------------------------------------------------------
      1         16           0       -0.878298   -0.830709    0.100562
      2          6           0        0.696538    0.054258   -0.047105
      3          7           0        0.667581    1.328758   -0.143732
      4          6           0       -0.681642    1.850187   -0.018516
      5          6           0       -1.731751    0.745385   -0.344154
      6          7           0        1.814058   -0.735637   -0.035608
      7          6           0        3.168191   -0.372247   -0.015539
      8          7           0        3.981833   -1.437786   -0.008326
      9          6           0        5.298965   -1.214001    0.018322
     10          6           0        5.866739    0.058437    0.040790
     11          6           0        5.001917    1.154633    0.030494
     12          6           0        3.625467    0.954888   -0.000737
     13          6           0       -3.026899    0.949935    0.415962
     14         35           0       -4.383143   -0.416992   -0.039047
     15          1           0       -1.936623    0.718239   -1.418657
     16          1           0        5.395584    2.167599    0.044009
     17          1           0        6.944510    0.183224    0.062878
     18          1           0        5.927393   -2.103053    0.022135
     19          1           0        2.917118    1.771723   -0.019164
     20          1           0       -0.832869    2.220537    1.008148
     21          1           0       -0.820638    2.703211   -0.692370
     22          1           0       -2.885141    0.880522    1.494312
     23          1           0       -3.483052    1.907430    0.157532
     24          1           0        1.687039   -1.739565   -0.064594
 ---------------------------------------------------------------------
                    Distance matrix (angstroms):
                    1          2          3          4          5
     1  S    0.000000
     2  C    1.812479   0.000000
     3  N    2.666968   1.278486   0.000000
     4  C    2.690735   2.263970   1.451885   0.000000
     5  C    1.846680   2.542141   2.477355   1.558639   0.000000
     6  N    2.697473   1.368546   2.363859   3.593786   3.855047
     7  C    4.074032   2.508380   3.027029   4.445271   5.036519
     8  N    4.899109   3.608443   4.319302   5.706038   6.125688
     9  C    6.189689   4.774421   5.285982   6.719990   7.307636
    10  C    6.803652   5.170950   5.355278   6.789343   7.639184
    11  C    6.206724   4.444450   4.341330   5.726172   6.756488
    12  C    4.845876   3.064622   2.984848   4.399212   5.372300
    13  C    2.808319   3.857545   3.755788   2.549403   1.515594
    14  Br   3.531939   5.101500   5.344943   4.340695   2.911029
    15  H    2.413984   3.042296   2.963114   2.194693   1.094197
    16  H    6.953750   5.153207   4.805509   6.085831   7.278205
    17  H    7.888333   6.250271   6.383947   7.806637   8.703976
    18  H    6.924048   5.658677   6.282552   7.701240   8.179869
    19  H    4.603495   2.807391   2.296117   3.599615   4.771894
    20  H    3.183689   2.854016   2.091279   1.101847   2.193806
    21  H    3.622245   3.120119   2.098790   1.095924   2.187342
    22  H    2.982997   3.985863   3.937758   2.843292   2.174518
    23  H    3.779602   4.576581   4.201592   2.807520   2.160808
    24  H    2.726582   2.049195   3.234218   4.301057   4.235712
                    6          7          8          9         10
     6  N    0.000000
     7  C    1.402188   0.000000
     8  N    2.278817   1.340686   0.000000
     9  C    3.517999   2.291265   1.336273   0.000000
    10  C    4.130450   2.733281   2.407066   1.393546   0.000000
    11  C    3.706742   2.386636   2.786165   2.387219   1.396305
    12  C    2.477962   1.403783   2.419079   2.739532   2.414260
    13  C    5.145866   6.349291   7.416438   8.611663   8.946078
    14  Br   6.205389   7.551503   8.427087   9.715026  10.261213
    15  H    4.253726   5.405278   6.454890   7.625759   7.966039
    16  H    4.611122   3.378704   3.873013   3.383078   2.161148
    17  H    5.213017   3.817759   3.377899   2.159176   1.085196
    18  H    4.335053   3.257346   2.056383   1.088738   2.162421
    19  H    2.739319   2.158624   3.381521   3.819574   3.411628
    20  H    4.103001   4.876366   6.131713   7.097549   7.105998
    21  H    4.381625   5.082057   6.378048   7.300628   7.228649
    22  H    5.199528   6.363325   7.401878   8.575848   8.909767
    23  H    5.923047   7.033201   8.181839   9.321295   9.531579
    24  H    1.012347   2.016377   2.315236   3.650904   4.551243
                   11         12         13         14         15
    11  C    0.000000
    12  C    1.391218   0.000000
    13  C    8.040670   6.665406   0.000000
    14  Br   9.515997   8.125353   1.978616   0.000000
    15  H    7.101677   5.744854   2.146675   3.029444   0.000000
    16  H    1.086856   2.146156   8.518173  10.114866   7.615858
    17  H    2.172177   3.408161  10.007073  11.344002   9.019740
    18  H    3.386605   3.827583   9.468642  10.447665   8.478108
    19  H    2.174777   1.081350   6.016312   7.621331   5.160156
    20  H    6.011380   4.743045   2.603628   4.545066   3.060156
    21  H    6.068177   4.827301   3.028195   4.780579   2.390194
    22  H    8.026430   6.680473   1.089840   2.505742   3.067802
    23  H    8.519245   7.173801   1.091631   2.500349   2.507985
    24  H    4.401572   3.319888   5.448445   6.212645   4.583144
                   16         17         18         19         20
    16  H    0.000000
    17  H    2.517394   0.000000
    18  H    4.303692   2.502648   0.000000
    19  H    2.510678   4.330121   4.906868   0.000000
    20  H    6.302856   8.095172   8.084973   3.913976   0.000000
    21  H    6.282559   8.198674   8.315444   3.910460   1.767734
    22  H    8.504725   9.957774   9.419649   6.062265   2.498763
    23  H    8.883172  10.569574  10.230287   6.404047   2.800902
    24  H    5.388045   5.599497   4.256788   3.720793   4.814885
                   21         22         23         24
    21  H    0.000000
    22  H    3.516525   0.000000
    23  H    2.905865   1.788580   0.000000
    24  H    5.140117   5.495441   6.330857   0.000000
 Stoichiometry    C9H10BrN3S
 Framework group  C1[X(C9H10BrN3S)]
 Deg. of freedom    66
 Full point group                 C1      NOp   1
 Largest Abelian subgroup         C1      NOp   1
 Largest concise Abelian subgroup C1      NOp   1
                         Standard orientation:                         
 ---------------------------------------------------------------------
 Center     Atomic      Atomic             Coordinates (Angstroms)
 Number     Number       Type             X           Y           Z
 ---------------------------------------------------------------------
      1         16           0       -0.878298   -0.830709    0.100562
      2          6           0        0.696538    0.054258   -0.047105
      3          7           0        0.667581    1.328758   -0.143732
      4          6           0       -0.681642    1.850187   -0.018516
      5          6           0       -1.731751    0.745385   -0.344154
      6          7           0        1.814058   -0.735637   -0.035608
      7          6           0        3.168191   -0.372247   -0.015539
      8          7           0        3.981833   -1.437786   -0.008326
      9          6           0        5.298965   -1.214001    0.018322
     10          6           0        5.866739    0.058437    0.040790
     11          6           0        5.001917    1.154633    0.030494
     12          6           0        3.625467    0.954888   -0.000737
     13          6           0       -3.026899    0.949935    0.415962
     14         35           0       -4.383143   -0.416992   -0.039047
     15          1           0       -1.936623    0.718239   -1.418657
     16          1           0        5.395584    2.167599    0.044009
     17          1           0        6.944510    0.183224    0.062878
     18          1           0        5.927393   -2.103053    0.022135
     19          1           0        2.917118    1.771723   -0.019164
     20          1           0       -0.832869    2.220537    1.008148
     21          1           0       -0.820638    2.703211   -0.692370
     22          1           0       -2.885141    0.880522    1.494312
     23          1           0       -3.483052    1.907430    0.157532
     24          1           0        1.687039   -1.739565   -0.064594
 ---------------------------------------------------------------------
 Rotational constants (GHZ):      2.0705333      0.1464072      0.1374921
 General basis read from cards:  (5D, 7F)
 There are   249 symmetry adapted cartesian basis functions of A   symmetry.
 There are   234 symmetry adapted basis functions of A   symmetry.
   234 basis functions,   511 primitive gaussians,   249 cartesian basis functions
    68 alpha electrons       68 beta electrons
       nuclear repulsion energy      1214.8880175348 Hartrees.
 NAtoms=   24 NActive=   24 NUniq=   24 SFac= 1.00D+00 NAtFMM=   60 NAOKFM=F Big=F
 Integral buffers will be    131072 words long.
 Raffenetti 1 integral format.
 Two-electron integral symmetry is turned on.
 One-electron integrals computed using PRISM.
 NBasis=   234 RedAO= T EigKep=  8.87D-04  NBF=   234
 NBsUse=   234 1.00D-06 EigRej= -1.00D+00 NBFU=   234
 ExpMin= 1.17D-01 ExpMax= 5.74D+05 ExpMxC= 5.74D+03 IAcc=2 IRadAn=         4 AccDes= 0.00D+00
 Harris functional with IExCor=  205 and IRadAn=       4 diagonalized for initial guess.
 HarFok:  IExCor=  205 AccDes= 0.00D+00 IRadAn=         4 IDoV= 1 UseB2=F ITyADJ=14
 ICtDFT=  3500011 ScaDFX=  1.000000  1.000000  1.000000  1.000000
 FoFCou: FMM=F IPFlag=           0 FMFlag=      100000 FMFlg1=           0
         NFxFlg=           0 DoJE=T BraDBF=F KetDBF=T FulRan=T
         wScrn=  0.000000 ICntrl=     500 IOpCl=  0 I1Cent=   200000004 NGrid=           0
         NMat0=    1 NMatS0=      1 NMatT0=    0 NMatD0=    1 NMtDS0=    0 NMtDT0=    0
 Petite list used in FoFCou.
 Requested convergence on RMS density matrix=1.00D-08 within 128 cycles.
 Requested convergence on MAX density matrix=1.00D-06.
 Requested convergence on             energy=1.00D-06.
 No special actions if energy rises.
 Integral accuracy reduced to 1.0D-05 until final iterations.
 Initial convergence to 1.0D-05 achieved.  Increase integral accuracy.
 SCF Done:  E(RHF) =  -3477.08247426     A.U. after   16 cycles
            NFock= 16  Conv=0.50D-08     -V/T= 1.9991

 **********************************************************************

            Population analysis using the SCF density.

 **********************************************************************

 Orbital symmetries:
 BldTbl:  Degeneracy threshold= 1.00D-02
       Occupied  (A) (A) (A) (A) (A) (A) (A) (A) (A) (A) (A) (A)
                 (A) (A) (A) (A) (A) (A) (A) (A) (A) (A) (A) (A)
                 (A) (A) (A) (A) (A) (A) (A) (A) (A) (A) (A) (A)
                 (A) (A) (A) (A) (A) (A) (A) (A) (A) (A) (A) (A)
                 (A) (A) (A) (A) (A) (A) (A) (A) (A) (A) (A) (A)
                 (A) (A) (A) (A) (A) (A) (A) (A)
       Virtual   (A) (A) (A) (A) (A) (A) (A) (A) (A) (A) (A) (A)
                 (A) (A) (A) (A) (A) (A) (A) (A) (A) (A) (A) (A)
                 (A) (A) (A) (A) (A) (A) (A) (A) (A) (A) (A) (A)
                 (A) (A) (A) (A) (A) (A) (A) (A) (A) (A) (A) (A)
                 (A) (A) (A) (A) (A) (A) (A) (A) (A) (A) (A) (A)
                 (A) (A) (A) (A) (A) (A) (A) (A) (A) (A) (A) (A)
                 (A) (A) (A) (A) (A) (A) (A) (A) (A) (A) (A) (A)
                 (A) (A) (A) (A) (A) (A) (A) (A) (A) (A) (A) (A)
                 (A) (A) (A) (A) (A) (A) (A) (A) (A) (A) (A) (A)
                 (A) (A) (A) (A) (A) (A) (A) (A) (A) (A) (A) (A)
                 (A) (A) (A) (A) (A) (A) (A) (A) (A) (A) (A) (A)
                 (A) (A) (A) (A) (A) (A) (A) (A) (A) (A) (A) (A)
                 (A) (A) (A) (A) (A) (A) (A) (A) (A) (A) (A) (A)
                 (A) (A) (A) (A) (A) (A) (A) (A) (A) (A)
 The electronic state is 1-A.
 Alpha  occ. eigenvalues -- -489.83777 -91.95988 -64.38223 -58.54872 -58.54719
 Alpha  occ. eigenvalues --  -58.54714 -15.61038 -15.56611 -15.55406 -11.36175
 Alpha  occ. eigenvalues --  -11.32677 -11.31182 -11.29383 -11.27825 -11.27781
 Alpha  occ. eigenvalues --  -11.25841 -11.23281 -11.23064  -9.65980  -8.97553
 Alpha  occ. eigenvalues --   -7.47525  -7.46679  -7.46666  -6.65728  -6.65617
 Alpha  occ. eigenvalues --   -6.65399  -3.21815  -3.21427  -3.21414  -3.20441
 Alpha  occ. eigenvalues --   -3.20440  -1.32135  -1.26425  -1.20627  -1.11473
 Alpha  occ. eigenvalues --   -1.08408  -1.03529  -1.01473  -0.98114  -0.90598
 Alpha  occ. eigenvalues --   -0.86818  -0.86158  -0.80984  -0.77968  -0.72723
 Alpha  occ. eigenvalues --   -0.68067  -0.67815  -0.66464  -0.64399  -0.62651
 Alpha  occ. eigenvalues --   -0.61512  -0.60044  -0.58588  -0.56830  -0.55369
 Alpha  occ. eigenvalues --   -0.54775  -0.53518  -0.51952  -0.50331  -0.46197
 Alpha  occ. eigenvalues --   -0.42476  -0.42298  -0.41896  -0.40564  -0.39652
 Alpha  occ. eigenvalues --   -0.37795  -0.35266  -0.31106
 Alpha virt. eigenvalues --    0.11959   0.12787   0.13382   0.16527   0.20517
 Alpha virt. eigenvalues --    0.22641   0.23185   0.24704   0.25460   0.26695
 Alpha virt. eigenvalues --    0.27802   0.29620   0.30108   0.31927   0.32963
 Alpha virt. eigenvalues --    0.34984   0.35970   0.36403   0.37686   0.38626
 Alpha virt. eigenvalues --    0.41049   0.44197   0.45793   0.48996   0.49459
 Alpha virt. eigenvalues --    0.51234   0.53969   0.54084   0.55683   0.58913
 Alpha virt. eigenvalues --    0.61074   0.62569   0.62813   0.65015   0.65552
 Alpha virt. eigenvalues --    0.66204   0.66998   0.67969   0.68899   0.70353
 Alpha virt. eigenvalues --    0.72257   0.73598   0.74525   0.75719   0.77378
 Alpha virt. eigenvalues --    0.78396   0.80964   0.81268   0.81680   0.82642
 Alpha virt. eigenvalues --    0.83272   0.83420   0.85500   0.86127   0.87174
 Alpha virt. eigenvalues --    0.89664   0.89829   0.90615   0.92943   0.93871
 Alpha virt. eigenvalues --    0.96905   0.98393   1.01549   1.03223   1.04412
 Alpha virt. eigenvalues --    1.06339   1.07076   1.09061   1.09332   1.10100
 Alpha virt. eigenvalues --    1.10768   1.11678   1.12698   1.13741   1.14232
 Alpha virt. eigenvalues --    1.15759   1.15960   1.16506   1.17181   1.18197
 Alpha virt. eigenvalues --    1.20080   1.20546   1.21403   1.23331   1.25384
 Alpha virt. eigenvalues --    1.26482   1.28601   1.31438   1.33201   1.35092
 Alpha virt. eigenvalues --    1.36497   1.39405   1.40209   1.47643   1.48925
 Alpha virt. eigenvalues --    1.49708   1.52553   1.56939   1.58580   1.64211
 Alpha virt. eigenvalues --    1.65926   1.67924   1.69389   1.72345   1.73694
 Alpha virt. eigenvalues --    1.75588   1.76995   1.77291   1.79504   1.83598
 Alpha virt. eigenvalues --    1.86169   1.87964   1.93018   1.98019   1.99957
 Alpha virt. eigenvalues --    2.05140   2.07237   2.11775   2.13083   2.13720
 Alpha virt. eigenvalues --    2.16098   2.19727   2.23934   2.24798   2.25551
 Alpha virt. eigenvalues --    2.26110   2.26856   2.29672   2.33741   2.39951
 Alpha virt. eigenvalues --    2.41121   2.44139   2.45333   2.47129   2.48548
 Alpha virt. eigenvalues --    2.51155   2.52735   2.53217   2.56378   2.61355
 Alpha virt. eigenvalues --    2.62114   2.64788   2.65649   2.68628   2.71710
 Alpha virt. eigenvalues --    2.73193   2.77636   2.84342   2.86347   2.90047
 Alpha virt. eigenvalues --    2.90689   2.95406   2.95709   3.00525   3.02090
 Alpha virt. eigenvalues --    3.03716   3.05475   3.10312   3.16721   3.20228
 Alpha virt. eigenvalues --    3.22260   3.33044   3.41014   3.70468   3.80652
 Alpha virt. eigenvalues --    9.17122
          Condensed to atoms (all electrons):
               1          2          3          4          5          6
     1  S   15.560073   0.267084  -0.070542  -0.063478   0.269903  -0.064849
     2  C    0.267084   4.636790   0.551415  -0.084552  -0.026214   0.250420
     3  N   -0.070542   0.551415   6.995846   0.313864  -0.054533  -0.069774
     4  C   -0.063478  -0.084552   0.313864   4.924722   0.275276   0.004488
     5  C    0.269903  -0.026214  -0.054533   0.275276   5.460641   0.001335
     6  N   -0.064849   0.250420  -0.069774   0.004488   0.001335   7.409482
     7  C    0.002178  -0.021058   0.005690  -0.000203  -0.000033   0.223855
     8  N   -0.000171   0.001967   0.000062   0.000000   0.000000  -0.088588
     9  C    0.000003  -0.000082   0.000001   0.000000   0.000000   0.001842
    10  C   -0.000001   0.000007  -0.000006   0.000000   0.000000   0.000340
    11  C    0.000006  -0.000075   0.000257   0.000002   0.000000   0.002443
    12  C   -0.000344  -0.002395  -0.019817   0.000385  -0.000009  -0.064907
    13  C   -0.059371   0.001943   0.002919  -0.034390   0.286633  -0.000027
    14  Br  -0.002986   0.000160  -0.000121   0.004002  -0.061243  -0.000001
    15  H   -0.047519  -0.000022   0.002688  -0.031289   0.381646  -0.000053
    16  H    0.000000   0.000000  -0.000003   0.000000   0.000000  -0.000080
    17  H    0.000000   0.000000   0.000000   0.000000   0.000000   0.000008
    18  H    0.000000   0.000002   0.000000   0.000000   0.000000  -0.000048
    19  H    0.000163  -0.000441   0.014295   0.000002   0.000048  -0.002949
    20  H    0.005484  -0.005602  -0.044180   0.396050  -0.053228  -0.000126
    21  H    0.004039   0.004680  -0.042802   0.402720  -0.036141   0.000021
    22  H    0.000917   0.000006  -0.000054  -0.001364  -0.038933  -0.000002
    23  H    0.004660  -0.000025   0.000031  -0.003247  -0.037284   0.000001
    24  H   -0.000332  -0.028282   0.001420  -0.000098   0.000029   0.317061
               7          8          9         10         11         12
     1  S    0.002178  -0.000171   0.000003  -0.000001   0.000006  -0.000344
     2  C   -0.021058   0.001967  -0.000082   0.000007  -0.000075  -0.002395
     3  N    0.005690   0.000062   0.000001  -0.000006   0.000257  -0.019817
     4  C   -0.000203   0.000000   0.000000   0.000000   0.000002   0.000385
     5  C   -0.000033   0.000000   0.000000   0.000000   0.000000  -0.000009
     6  N    0.223855  -0.088588   0.001842   0.000340   0.002443  -0.064907
     7  C    4.246574   0.528194  -0.070327  -0.023674  -0.045921   0.560551
     8  N    0.528194   6.869227   0.479437  -0.054230  -0.025185  -0.070804
     9  C   -0.070327   0.479437   4.663587   0.538184  -0.049540  -0.023799
    10  C   -0.023674  -0.054230   0.538184   5.036557   0.531359  -0.048702
    11  C   -0.045921  -0.025185  -0.049540   0.531359   4.859998   0.530612
    12  C    0.560551  -0.070804  -0.023799  -0.048702   0.530612   5.089780
    13  C    0.000000   0.000000   0.000000   0.000000   0.000000   0.000000
    14  Br   0.000000   0.000000   0.000000   0.000000   0.000000   0.000000
    15  H   -0.000001   0.000000   0.000000   0.000000   0.000000  -0.000001
    16  H    0.001665  -0.000078   0.002568  -0.029921   0.383791  -0.029969
    17  H    0.000257   0.002995  -0.026453   0.379181  -0.028308   0.002234
    18  H    0.003233  -0.041228   0.401762  -0.048678   0.002732  -0.000363
    19  H   -0.013077   0.002800  -0.000085   0.001965  -0.025891   0.359131
    20  H    0.000007   0.000000   0.000000   0.000000   0.000000  -0.000028
    21  H    0.000000   0.000000   0.000000   0.000000   0.000000   0.000005
    22  H    0.000000   0.000000   0.000000   0.000000   0.000000   0.000000
    23  H    0.000000   0.000000   0.000000   0.000000   0.000000   0.000000
    24  H   -0.016422   0.009623   0.000398   0.000037  -0.000092   0.003592
              13         14         15         16         17         18
     1  S   -0.059371  -0.002986  -0.047519   0.000000   0.000000   0.000000
     2  C    0.001943   0.000160  -0.000022   0.000000   0.000000   0.000002
     3  N    0.002919  -0.000121   0.002688  -0.000003   0.000000   0.000000
     4  C   -0.034390   0.004002  -0.031289   0.000000   0.000000   0.000000
     5  C    0.286633  -0.061243   0.381646   0.000000   0.000000   0.000000
     6  N   -0.000027  -0.000001  -0.000053  -0.000080   0.000008  -0.000048
     7  C    0.000000   0.000000  -0.000001   0.001665   0.000257   0.003233
     8  N    0.000000   0.000000   0.000000  -0.000078   0.002995  -0.041228
     9  C    0.000000   0.000000   0.000000   0.002568  -0.026453   0.401762
    10  C    0.000000   0.000000   0.000000  -0.029921   0.379181  -0.048678
    11  C    0.000000   0.000000   0.000000   0.383791  -0.028308   0.002732
    12  C    0.000000   0.000000  -0.000001  -0.029969   0.002234  -0.000363
    13  C    5.124136   0.264007  -0.040364   0.000000   0.000000   0.000000
    14  Br   0.264007  35.062390  -0.000574   0.000000   0.000000   0.000000
    15  H   -0.040364  -0.000574   0.495448   0.000000   0.000000   0.000000
    16  H    0.000000   0.000000   0.000000   0.455665  -0.001485  -0.000084
    17  H    0.000000   0.000000   0.000000  -0.001485   0.460991   0.000122
    18  H    0.000000   0.000000   0.000000  -0.000084   0.000122   0.473002
    19  H    0.000000   0.000000  -0.000001  -0.001169  -0.000049   0.000010
    20  H    0.001135   0.000036   0.003724   0.000000   0.000000   0.000000
    21  H   -0.002004  -0.000131  -0.004367   0.000000   0.000000   0.000000
    22  H    0.384097  -0.042210   0.003705   0.000000   0.000000   0.000000
    23  H    0.383921  -0.044027  -0.001617   0.000000   0.000000   0.000000
    24  H   -0.000002   0.000000  -0.000008   0.000002  -0.000001  -0.000048
              19         20         21         22         23         24
     1  S    0.000163   0.005484   0.004039   0.000917   0.004660  -0.000332
     2  C   -0.000441  -0.005602   0.004680   0.000006  -0.000025  -0.028282
     3  N    0.014295  -0.044180  -0.042802  -0.000054   0.000031   0.001420
     4  C    0.000002   0.396050   0.402720  -0.001364  -0.003247  -0.000098
     5  C    0.000048  -0.053228  -0.036141  -0.038933  -0.037284   0.000029
     6  N   -0.002949  -0.000126   0.000021  -0.000002   0.000001   0.317061
     7  C   -0.013077   0.000007   0.000000   0.000000   0.000000  -0.016422
     8  N    0.002800   0.000000   0.000000   0.000000   0.000000   0.009623
     9  C   -0.000085   0.000000   0.000000   0.000000   0.000000   0.000398
    10  C    0.001965   0.000000   0.000000   0.000000   0.000000   0.000037
    11  C   -0.025891   0.000000   0.000000   0.000000   0.000000  -0.000092
    12  C    0.359131  -0.000028   0.000005   0.000000   0.000000   0.003592
    13  C    0.000000   0.001135  -0.002004   0.384097   0.383921  -0.000002
    14  Br   0.000000   0.000036  -0.000131  -0.042210  -0.044027   0.000000
    15  H   -0.000001   0.003724  -0.004367   0.003705  -0.001617  -0.000008
    16  H   -0.001169   0.000000   0.000000   0.000000   0.000000   0.000002
    17  H   -0.000049   0.000000   0.000000   0.000000   0.000000  -0.000001
    18  H    0.000010   0.000000   0.000000   0.000000   0.000000  -0.000048
    19  H    0.380930   0.000005  -0.000056   0.000000   0.000000  -0.000174
    20  H    0.000005   0.550354  -0.035700   0.002458   0.000014  -0.000003
    21  H   -0.000056  -0.035700   0.516443   0.000018   0.000974   0.000003
    22  H    0.000000   0.002458   0.000018   0.475338  -0.023825   0.000000
    23  H    0.000000   0.000014   0.000974  -0.023825   0.487388   0.000000
    24  H   -0.000174  -0.000003   0.000003   0.000000   0.000000   0.283748
 Mulliken charges:
               1
     1  S    0.195083
     2  C    0.454276
     3  N   -0.586654
     4  C   -0.102890
     5  C   -0.367895
     6  N   -0.919893
     7  C    0.618512
     8  N   -0.614021
     9  C    0.082503
    10  C   -0.282419
    11  C   -0.136187
    12  C   -0.285154
    13  C   -0.312634
    14  Br  -0.179303
    15  H    0.238606
    16  H    0.219098
    17  H    0.210508
    18  H    0.209586
    19  H    0.284542
    20  H    0.179601
    21  H    0.192300
    22  H    0.239851
    23  H    0.233035
    24  H    0.429548
 Sum of Mulliken charges =   0.00000
 Mulliken charges with hydrogens summed into heavy atoms:
               1
     1  S    0.195083
     2  C    0.454276
     3  N   -0.586654
     4  C    0.269012
     5  C   -0.129289
     6  N   -0.490345
     7  C    0.618512
     8  N   -0.614021
     9  C    0.292089
    10  C   -0.071911
    11  C    0.082911
    12  C   -0.000612
    13  C    0.160253
    14  Br  -0.179303
 DipInt: DoE/N= T F RetVal/Mat= T F Init=T NMatP=  1 IDeriv=0 Min/MaxMlt=  0  4
 Entering OneElI...
 OneElI was handed   235768411 working-precision words.
 Multipole integrals L=0 to 4 MinM= 0 MaxM= 0.
 Requested accuracy = 0.1000D-12
 ShPair: Thresh= 1.00D-13 NBox=     0 BxSize= 0.00D+00 RnKept= 2.14D+01
         NSMCal=                 3655 NSMKep=                2845
 PrsmSu:  NPrtUS=   1 ThrOK=F IAlg=1 NPAlg=1 LenDen=           0.
 Prism:   IPart=     0 DynPar=F LinDyn=F Incr=          28.
 PRISM was handed   235496466 working-precision words and  2845 shell-pairs
 IPart=  0 NShTot=        2845 NBatch=         134 AvBLen=        21.2
 PrSmSu:  NxtVal=             29.
 Electronic moments (au):
       -136.00000000          0.44221601          1.03057608          0.10631940
      -6192.74484917       -546.90337209       -106.32910648         -2.85579980
         -0.01623061          0.58073647      -8866.18030414       -479.21867336
        -10.93164646      -1079.50737709       2149.45504626       -120.16108604
         20.88687650        -60.53784872         -6.28827601         53.12584001
    -493322.37830555      -5954.41718265       -519.40817288      -4076.72860237
      -1662.71789002       1957.04907458         30.58877548         76.41522786
        -25.18612899     -20689.22272233      -4074.70717505       -566.82052130
       -519.53932294        104.35091822        213.84819363
 Electronic spatial extent (au):  <R**2>=           6845.9773
 DipInt: DoE/N= F T RetVal/Mat= T F Init=T NMatP=  1 IDeriv=0 Min/MaxMlt=  0  4
 Nuclear    moments (au):
        136.00000000          0.00000000          0.00000000          0.00000000
       6121.36661615        473.88712534         28.31628663          0.00000000
         -0.00014957          0.00000967       8889.52841072        472.71312297
          9.16799631       1010.40996313      -2116.36726469        124.02195309
       -108.93372719         57.77761650          6.18859717        -55.28356452
     475415.10151136       4090.66991749        134.77698895       4280.89626189
       1719.39198766      -1801.13133317        -35.95230302        -71.29536967
         31.39044873      17360.91587252        525.39917461        167.45086771
        553.16137054        -90.44083239       -192.85733095
 Total      moments (au):
          0.00000000          0.44221601          1.03057608          0.10631940
        -71.37823303        -73.01624675        -78.01281986         -2.85579980
         -0.01638018          0.58074614         23.34810658         -6.50555038
         -1.76365015        -69.09741396         33.08778157          3.86086704
        -88.04685068         -2.76023222         -0.09967884         -2.15772451
     -17907.27679420      -1863.74726517       -384.63118393        204.16765951
         56.67409764        155.91774141         -5.36352753          5.11985819
          6.20431974      -3328.30684981      -3549.30800045       -399.36965359
         33.62204760         13.91008583         20.99086268
 Traceless Quadrup. (au):
          2.75753352          1.11951979         -3.87705331         -2.85579980
         -0.01638018          0.58074614
 Charge=              0.0000 electrons
 Dipole moment (field-independent basis, Debye):
    X=              1.1240    Y=              2.6195    Z=              0.2702  Tot=              2.8632
 Quadrupole moment (field-independent basis, Debye-Ang):
   XX=            -96.0062   YY=            -98.2093   ZZ=           -104.9299
   XY=             -3.8411   XZ=             -0.0220   YZ=              0.7811
 Traceless Quadrupole moment (field-independent basis, Debye-Ang):
   XX=              3.7090   YY=              1.5058   ZZ=             -5.2148
   XY=             -3.8411   XZ=             -0.0220   YZ=              0.7811
 Octapole moment (field-independent basis, Debye-Ang**2):
  XXX=             16.6183  YYY=             -4.6304  ZZZ=             -1.2553  XYY=            -49.1809
  XXY=             23.5506  XXZ=              2.7480  XZZ=            -62.6684  YZZ=             -1.9646
  YYZ=             -0.0709  XYZ=             -1.5358
 Hexadecapole moment (field-independent basis, Debye-Ang**3):
 XXXX=          -6744.7387 YYYY=           -701.9765 ZZZZ=           -144.8705 XXXY=             76.8993
 XXXZ=             21.3462 YYYX=             58.7261 YYYZ=             -2.0202 ZZZX=              1.9284
 ZZZY=              2.3368 XXYY=          -1253.5999 XXZZ=          -1336.8395 YYZZ=           -150.4218
 XXYZ=             12.6637 YYXZ=              5.2392 ZZXY=              7.9062
 N-N= 1.214888017535D+03 E-N=-1.071791259232D+04  KE= 3.480096339578D+03
 Entering OneElI...
 OneElI was handed   235805947 working-precision words.
 Calculate electrostatic properties
    NBasis =   234  MinDer = 0  MaxDer = 0
    NGrid  =    24  NMatD  =   1
 Requested accuracy = 0.1000D-12
 PrtBox:  NBox=     1 Levels=  1 BoxLen=   35.73 SMaxX=       21.41
          Shift=            8.282940            3.974194            2.680873
 Box      1 Number                   0 centers from      1 to     85:
 ShPair: Thresh= 1.00D-13 NBox=     1 BxSize= 3.57D+01 RnKept= 1.94D+01
         NSMCal=                 3655 NSMKep=                2493
 PrsmSu:  NPrtUS=   1 ThrOK=F IAlg=1 NPAlg=1 LenDen=           0.
 Prism:   IPart=     0 DynPar=F LinDyn=F Incr=         512.
 PRISM was handed   235563088 working-precision words and  2493 shell-pairs
 IPart=  0 NShTot=       59832 NBatch=        2502 AvBLen=        23.9
 PrSmSu:  NxtVal=            513.
 --------------------------------------------------------
       Center         ----      EFG at Nuclei      ----
                      3XX-RR        3YY-RR        3ZZ-RR
 --------------------------------------------------------
     1   Atom       -2.255273     -0.222942      2.478215
     2   Atom        0.028634      0.294861     -0.323496
     3   Atom        0.219421     -0.087304     -0.132118
     4   Atom       -0.178640      0.041062      0.137578
     5   Atom        0.047614     -0.194346      0.146732
     6   Atom       -0.587462     -0.439445      1.026907
     7   Atom       -0.019578      0.336778     -0.317200
     8   Atom       -0.204256      0.744683     -0.540427
     9   Atom        0.126020      0.279349     -0.405369
    10   Atom        0.091403      0.135541     -0.226943
    11   Atom        0.256511      0.200937     -0.457448
    12   Atom        0.151506      0.085403     -0.236909
    13   Atom       -0.097850     -0.107483      0.205333
    14   Atom       -1.393005     -1.360313      2.753317
    15   Atom        0.126980      0.143369     -0.270349
    16   Atom        0.086491     -0.246641      0.160150
    17   Atom       -0.306863      0.135986      0.170877
    18   Atom       -0.008971     -0.149500      0.158471
    19   Atom       -0.035715     -0.128072      0.163788
    20   Atom        0.123802      0.097856     -0.221659
    21   Atom        0.130550     -0.115054     -0.015495
    22   Atom        0.134959      0.147355     -0.282314
    23   Atom        0.064407     -0.191493      0.127086
    24   Atom        0.137047     -0.371965      0.234919
 --------------------------------------------------------
                        XY            XZ            YZ
 --------------------------------------------------------
     1   Atom        0.288919     -0.311547      0.825315
     2   Atom       -0.050829      0.002899     -0.023179
     3   Atom        0.609958     -0.040353     -0.037484
     4   Atom       -0.009792      0.001486     -0.037651
     5   Atom        0.145492      0.013907      0.091378
     6   Atom        0.033878     -0.024903     -0.030091
     7   Atom       -0.022603      0.003840      0.001979
     8   Atom        0.520082      0.009031      0.019075
     9   Atom        0.000267      0.010430      0.006152
    10   Atom       -0.002029      0.006326      0.003188
    11   Atom       -0.025555      0.015030      0.003454
    12   Atom       -0.056017      0.010621     -0.002934
    13   Atom       -0.324430     -0.080355     -0.141831
    14   Atom       -4.500499     -1.477507     -1.544905
    15   Atom        0.000764     -0.076098     -0.009493
    16   Atom       -0.153044     -0.002362     -0.005358
    17   Atom       -0.051834     -0.009793     -0.001285
    18   Atom        0.209075     -0.001292      0.001158
    19   Atom        0.215681     -0.004079      0.005292
    20   Atom        0.017264      0.056343     -0.132342
    21   Atom        0.044380     -0.037251      0.208663
    22   Atom       -0.002635     -0.056018      0.027235
    23   Atom        0.156456     -0.043093      0.092676
    24   Atom       -0.077010     -0.002078     -0.016687
 --------------------------------------------------------


 ---------------------------------------------------------------------------------
              Nuclear Quadrupole Coupling Constant in Principal Axis System
 ---------------------------------------------------------------------------------

       Atom             a.u.   MegaHertz   Gauss  10(-4) cm-1        Axes

              Baa    -0.5629     2.704     0.965     0.902 -0.6145  0.7889  0.0111
     3 N(14)  Bbb    -0.1357     0.652     0.233     0.217  0.0588  0.0318  0.9978
              Bcc     0.6986    -3.355    -1.197    -1.119  0.7868  0.6137 -0.0659
 
              Baa    -0.5950     2.858     1.020     0.953  0.9775 -0.2107  0.0111
     6 N(14)  Bbb    -0.4329     2.079     0.742     0.693  0.2104  0.9773  0.0237
              Bcc     1.0279    -4.937    -1.762    -1.647 -0.0158 -0.0209  0.9997
 
              Baa    -0.5407     2.597     0.927     0.866 -0.0104 -0.0106  0.9999
     8 N(14)  Bbb    -0.4338     2.083     0.743     0.695  0.9148 -0.4038  0.0052
              Bcc     0.9745    -4.680    -1.670    -1.561  0.4037  0.9148  0.0139
 
              Baa    -6.3774   469.019   167.358   156.448  0.6889  0.6881  0.2279
    14 Br(79) Bbb     3.1067  -228.481   -81.528   -76.213  0.7209 -0.6175 -0.3147
              Bcc     3.2707  -240.538   -85.830   -80.235  0.0758 -0.3811  0.9214
 

 ---------------------------------------------------------------------------------

 No NMR shielding tensors so no spin-rotation constants.
 Leave Link  601 at Thu Jan 16 22:39:44 2014, MaxMem=   235929600 cpu:         0.3
 FitSet:  NAtFit=    24 NAtPot=    24 NAtFrz=     0 MDM=    28 TotChg=   0.00000
 Merz-Kollman atomic radii used.
 Atom Element Radius
    1    16    1.75
    2     6    1.50
    3     7    1.50
    4     6    1.50
    5     6    1.50
    6     7    1.50
    7     6    1.50
    8     7    1.50
    9     6    1.50
   10     6    1.50
   11     6    1.50
   12     6    1.50
   13     6    1.50
   14    35    2.30
   15     1    1.20
   16     1    1.20
   17     1    1.20
   18     1    1.20
   19     1    1.20
   20     1    1.20
   21     1    1.20
   22     1    1.20
   23     1    1.20
   24     1    1.20
 Generate VDW surfaces: Layer= 5 Dens= 2 Start= 1.400 Inc= 0.179

 **********************************************************************

            Electrostatic Properties Using The SCF Density

 **********************************************************************

       Atomic Center    1 is at  -0.878298 -0.830709  0.100562
       Atomic Center    2 is at   0.696538  0.054258 -0.047105
       Atomic Center    3 is at   0.667581  1.328758 -0.143732
       Atomic Center    4 is at  -0.681642  1.850187 -0.018516
       Atomic Center    5 is at  -1.731751  0.745385 -0.344154
       Atomic Center    6 is at   1.814058 -0.735637 -0.035608
       Atomic Center    7 is at   3.168191 -0.372247 -0.015539
       Atomic Center    8 is at   3.981833 -1.437786 -0.008326
       Atomic Center    9 is at   5.298965 -1.214001  0.018322
       Atomic Center   10 is at   5.866739  0.058437  0.040790
       Atomic Center   11 is at   5.001917  1.154633  0.030494
       Atomic Center   12 is at   3.625467  0.954888 -0.000737
       Atomic Center   13 is at  -3.026899  0.949935  0.415962
       Atomic Center   14 is at  -4.383143 -0.416992 -0.039047
       Atomic Center   15 is at  -1.936623  0.718239 -1.418657
       Atomic Center   16 is at   5.395584  2.167599  0.044009
       Atomic Center   17 is at   6.944510  0.183224  0.062878
       Atomic Center   18 is at   5.927393 -2.103053  0.022135
       Atomic Center   19 is at   2.917118  1.771723 -0.019164
       Atomic Center   20 is at  -0.832869  2.220537  1.008148
       Atomic Center   21 is at  -0.820638  2.703211 -0.692370
       Atomic Center   22 is at  -2.885141  0.880522  1.494312
       Atomic Center   23 is at  -3.483052  1.907430  0.157532
       Atomic Center   24 is at   1.687039 -1.739565 -0.064594
      ESP Fit Center   25 is at  -0.878298 -0.830709  2.550562
      ESP Fit Center   26 is at  -0.121206 -0.830709  2.430650
      ESP Fit Center   27 is at  -0.499752 -0.175048  2.430650
      ESP Fit Center   28 is at  -1.256844 -0.175048  2.430650
      ESP Fit Center   29 is at  -1.635390 -0.830709  2.430650
      ESP Fit Center   30 is at  -1.256844 -1.486370  2.430650
      ESP Fit Center   31 is at  -0.499752 -1.486370  2.430650
      ESP Fit Center   32 is at   0.561776 -0.830709  2.082654
      ESP Fit Center   33 is at   0.368843 -0.110672  2.082654
      ESP Fit Center   34 is at  -0.158261  0.416432  2.082654
      ESP Fit Center   35 is at  -0.878298  0.609365  2.082654
      ESP Fit Center   36 is at  -2.125439 -1.550746  2.082654
      ESP Fit Center   37 is at  -1.598335 -2.077850  2.082654
      ESP Fit Center   38 is at  -0.878298 -2.270783  2.082654
      ESP Fit Center   39 is at  -0.158261 -2.077850  2.082654
      ESP Fit Center   40 is at   0.368843 -1.550746  2.082654
      ESP Fit Center   41 is at  -1.636812 -2.661923  1.540636
      ESP Fit Center   42 is at  -0.878298 -2.812801  1.540636
      ESP Fit Center   43 is at  -0.119784 -2.661923  1.540636
      ESP Fit Center   44 is at   0.523252 -2.232259  1.540636
      ESP Fit Center   45 is at  -1.814284 -2.964542  0.857654
      ESP Fit Center   46 is at  -1.070715 -3.152839  0.857654
      ESP Fit Center   47 is at  -0.306295 -3.089497  0.857654
      ESP Fit Center   48 is at   0.396140 -2.781381  0.857654
      ESP Fit Center   49 is at  -2.103298 -2.952471  0.100562
      ESP Fit Center   50 is at  -1.423474 -3.219282  0.100562
      ESP Fit Center   51 is at  -0.695209 -3.273858  0.100562
      ESP Fit Center   52 is at   0.016788 -3.111350  0.100562
      ESP Fit Center   53 is at  -1.814284 -2.964542 -0.656530
      ESP Fit Center   54 is at  -1.070715 -3.152839 -0.656530
      ESP Fit Center   55 is at  -0.306295 -3.089497 -0.656530
      ESP Fit Center   56 is at   0.396140 -2.781381 -0.656530
      ESP Fit Center   57 is at  -1.636812 -2.661923 -1.339512
      ESP Fit Center   58 is at  -0.878298 -2.812801 -1.339512
      ESP Fit Center   59 is at  -0.119784 -2.661923 -1.339512
      ESP Fit Center   60 is at   0.523252 -2.232259 -1.339512
      ESP Fit Center   61 is at  -1.598335 -2.077850 -1.881530
      ESP Fit Center   62 is at  -0.878298 -2.270783 -1.881530
      ESP Fit Center   63 is at  -0.158261 -2.077850 -1.881530
      ESP Fit Center   64 is at   0.368843 -1.550746 -1.881530
      ESP Fit Center   65 is at  -0.121206 -0.830709 -2.229527
      ESP Fit Center   66 is at  -0.499752 -0.175048 -2.229527
      ESP Fit Center   67 is at  -1.635390 -0.830709 -2.229527
      ESP Fit Center   68 is at  -1.256844 -1.486370 -2.229527
      ESP Fit Center   69 is at  -0.499752 -1.486370 -2.229527
      ESP Fit Center   70 is at  -0.878298 -0.830709 -2.349438
      ESP Fit Center   71 is at   0.696538  0.054258  2.052895
      ESP Fit Center   72 is at   1.414780  0.054258  1.926249
      ESP Fit Center   73 is at   1.055659  0.676274  1.926249
      ESP Fit Center   74 is at   0.337417  0.676274  1.926249
      ESP Fit Center   75 is at   1.055659 -0.567758  1.926249
      ESP Fit Center   76 is at   1.832107  0.784044  1.561588
      ESP Fit Center   77 is at   1.414780  0.054258 -2.020460
      ESP Fit Center   78 is at  -0.021704  0.054258 -2.020460
      ESP Fit Center   79 is at   0.337417 -0.567758 -2.020460
      ESP Fit Center   80 is at   1.055659 -0.567758 -2.020460
      ESP Fit Center   81 is at   0.696538  0.054258 -2.147105
      ESP Fit Center   82 is at   0.667581  1.328758  1.956268
      ESP Fit Center   83 is at   1.385823  1.328758  1.829622
      ESP Fit Center   84 is at   1.026702  1.950774  1.829622
      ESP Fit Center   85 is at   2.017435  1.328758  1.464961
      ESP Fit Center   86 is at   1.803150  2.058544  1.464961
      ESP Fit Center   87 is at   1.228331  2.556628  1.464961
      ESP Fit Center   88 is at   1.229576  3.058400  0.906268
      ESP Fit Center   89 is at   1.589411  3.180042  0.220929
      ESP Fit Center   90 is at   0.858401  3.388032  0.220929
      ESP Fit Center   91 is at   1.589411  3.180042 -0.508393
      ESP Fit Center   92 is at   0.858401  3.388032 -0.508393
      ESP Fit Center   93 is at   1.884498  2.680281 -1.193732
      ESP Fit Center   94 is at   1.229576  3.058400 -1.193732
      ESP Fit Center   95 is at   2.017435  1.328758 -1.752425
      ESP Fit Center   96 is at   1.803150  2.058544 -1.752425
      ESP Fit Center   97 is at   1.228331  2.556628 -1.752425
      ESP Fit Center   98 is at   1.803150  0.598972 -1.752425
      ESP Fit Center   99 is at   1.385823  1.328758 -2.117087
      ESP Fit Center  100 is at   1.026702  1.950774 -2.117087
      ESP Fit Center  101 is at   0.308460  1.950774 -2.117087
      ESP Fit Center  102 is at  -0.050661  1.328758 -2.117087
      ESP Fit Center  103 is at   0.308460  0.706742 -2.117087
      ESP Fit Center  104 is at   1.026702  0.706742 -2.117087
      ESP Fit Center  105 is at   0.667581  1.328758 -2.243732
      ESP Fit Center  106 is at   0.535275  3.201710  1.031484
      ESP Fit Center  107 is at   0.240188  3.701471  0.346145
      ESP Fit Center  108 is at  -1.927948  3.500563  0.346145
      ESP Fit Center  109 is at  -2.641078  2.320385 -1.394154
      ESP Fit Center  110 is at   1.814058 -0.735637  2.064392
      ESP Fit Center  111 is at   2.173179 -0.113621  1.937746
      ESP Fit Center  112 is at   1.454937 -0.113621  1.937746
      ESP Fit Center  113 is at   1.095816 -0.735637  1.937746
      ESP Fit Center  114 is at   1.454937 -1.357653  1.937746
      ESP Fit Center  115 is at   2.173179 -1.357653  1.937746
      ESP Fit Center  116 is at   0.930092 -1.755789  1.573085
      ESP Fit Center  117 is at   2.374808 -1.963507  1.573085
      ESP Fit Center  118 is at   0.930092 -1.755789 -1.644301
      ESP Fit Center  119 is at   2.374808 -1.963507 -1.644301
      ESP Fit Center  120 is at   2.532300 -0.735637 -2.008963
      ESP Fit Center  121 is at   2.173179 -0.113621 -2.008963
      ESP Fit Center  122 is at   1.454937 -0.113621 -2.008963
      ESP Fit Center  123 is at   1.095816 -0.735637 -2.008963
      ESP Fit Center  124 is at   1.454937 -1.357653 -2.008963
      ESP Fit Center  125 is at   2.173179 -1.357653 -2.008963
      ESP Fit Center  126 is at   1.814058 -0.735637 -2.135608
      ESP Fit Center  127 is at   3.168191 -0.372247  2.084461
      ESP Fit Center  128 is at   3.886433 -0.372247  1.957815
      ESP Fit Center  129 is at   2.809070  0.249769  1.957815
      ESP Fit Center  130 is at   2.449949 -0.372247  1.957815
      ESP Fit Center  131 is at   2.809070 -0.994263  1.957815
      ESP Fit Center  132 is at   2.284225  0.647905  1.593154
      ESP Fit Center  133 is at   2.284225  0.647905 -1.624232
      ESP Fit Center  134 is at   3.886433 -0.372247 -1.988894
      ESP Fit Center  135 is at   3.527312  0.249769 -1.988894
      ESP Fit Center  136 is at   2.809070  0.249769 -1.988894
      ESP Fit Center  137 is at   2.809070 -0.994263 -1.988894
      ESP Fit Center  138 is at   3.168191 -0.372247 -2.115539
      ESP Fit Center  139 is at   3.981833 -1.437786  2.091674
      ESP Fit Center  140 is at   4.340954 -0.815770  1.965028
      ESP Fit Center  141 is at   3.263591 -1.437786  1.965028
      ESP Fit Center  142 is at   3.622712 -2.059802  1.965028
      ESP Fit Center  143 is at   4.340954 -2.059802  1.965028
      ESP Fit Center  144 is at   2.686658 -1.818084  1.600367
      ESP Fit Center  145 is at   3.097867 -2.457938  1.600367
      ESP Fit Center  146 is at   3.789729 -2.773900  1.600367
      ESP Fit Center  147 is at   4.542583 -2.665656  1.600367
      ESP Fit Center  148 is at   3.072506 -3.012786  1.041674
      ESP Fit Center  149 is at   3.791732 -3.246477  1.041674
      ESP Fit Center  150 is at   4.543828 -3.167428  1.041674
      ESP Fit Center  151 is at   2.735527 -3.088162  0.356335
      ESP Fit Center  152 is at   3.415872 -3.426934  0.356335
      ESP Fit Center  153 is at   4.172653 -3.497060  0.356335
      ESP Fit Center  154 is at   2.735527 -3.088162 -0.372987
      ESP Fit Center  155 is at   3.415872 -3.426934 -0.372987
      ESP Fit Center  156 is at   4.172653 -3.497060 -0.372987
      ESP Fit Center  157 is at   3.072506 -3.012786 -1.058326
      ESP Fit Center  158 is at   3.791732 -3.246477 -1.058326
      ESP Fit Center  159 is at   4.543828 -3.167428 -1.058326
      ESP Fit Center  160 is at   2.686658 -1.818084 -1.617019
      ESP Fit Center  161 is at   3.097867 -2.457938 -1.617019
      ESP Fit Center  162 is at   3.789729 -2.773900 -1.617019
      ESP Fit Center  163 is at   4.542583 -2.665656 -1.617019
      ESP Fit Center  164 is at   4.340954 -0.815770 -1.981681
      ESP Fit Center  165 is at   3.263591 -1.437786 -1.981681
      ESP Fit Center  166 is at   3.622712 -2.059802 -1.981681
      ESP Fit Center  167 is at   4.340954 -2.059802 -1.981681
      ESP Fit Center  168 is at   3.981833 -1.437786 -2.108326
      ESP Fit Center  169 is at   5.298965 -1.214001  2.118322
      ESP Fit Center  170 is at   6.017207 -1.214001  1.991676
      ESP Fit Center  171 is at   4.939844 -0.591985  1.991676
      ESP Fit Center  172 is at   4.939844 -1.836017  1.991676
      ESP Fit Center  173 is at   5.658086 -1.836017  1.991676
      ESP Fit Center  174 is at   6.648819 -1.214001  1.627015
      ESP Fit Center  175 is at   5.106861 -2.550115  1.627015
      ESP Fit Center  176 is at   6.434534 -1.943787  1.627015
      ESP Fit Center  177 is at   6.648819 -1.214001 -1.590371
      ESP Fit Center  178 is at   5.106861 -2.550115 -1.590371
      ESP Fit Center  179 is at   6.434534 -1.943787 -1.590371
      ESP Fit Center  180 is at   6.017207 -1.214001 -1.955033
      ESP Fit Center  181 is at   5.658086 -0.591985 -1.955033
      ESP Fit Center  182 is at   4.939844 -0.591985 -1.955033
      ESP Fit Center  183 is at   4.939844 -1.836017 -1.955033
      ESP Fit Center  184 is at   5.658086 -1.836017 -1.955033
      ESP Fit Center  185 is at   5.298965 -1.214001 -2.081678
      ESP Fit Center  186 is at   5.866739  0.058437  2.140790
      ESP Fit Center  187 is at   6.584981  0.058437  2.014144
      ESP Fit Center  188 is at   6.225860  0.680453  2.014144
      ESP Fit Center  189 is at   5.507618  0.680453  2.014144
      ESP Fit Center  190 is at   5.148497  0.058437  2.014144
      ESP Fit Center  191 is at   5.507618 -0.563579  2.014144
      ESP Fit Center  192 is at   6.225860 -0.563579  2.014144
      ESP Fit Center  193 is at   7.002308  0.788223  1.649483
      ESP Fit Center  194 is at   6.427489  1.286307  1.649483
      ESP Fit Center  195 is at   7.002308 -0.671349  1.649483
      ESP Fit Center  196 is at   7.002308  0.788223 -1.567903
      ESP Fit Center  197 is at   6.427489  1.286307 -1.567903
      ESP Fit Center  198 is at   7.002308 -0.671349 -1.567903
      ESP Fit Center  199 is at   6.584981  0.058437 -1.932565
      ESP Fit Center  200 is at   6.225860  0.680453 -1.932565
      ESP Fit Center  201 is at   5.148497  0.058437 -1.932565
      ESP Fit Center  202 is at   6.225860 -0.563579 -1.932565
      ESP Fit Center  203 is at   5.866739  0.058437 -2.059210
      ESP Fit Center  204 is at   5.001917  1.154633  2.130494
      ESP Fit Center  205 is at   5.720159  1.154633  2.003848
      ESP Fit Center  206 is at   5.361038  1.776649  2.003848
      ESP Fit Center  207 is at   4.642796  1.776649  2.003848
      ESP Fit Center  208 is at   4.283675  1.154633  2.003848
      ESP Fit Center  209 is at   4.642796  0.532617  2.003848
      ESP Fit Center  210 is at   6.137486  1.884419  1.639187
      ESP Fit Center  211 is at   4.809813  2.490747  1.639187
      ESP Fit Center  212 is at   4.117951  2.174785  1.639187
      ESP Fit Center  213 is at   4.092590  2.729633  1.080494
      ESP Fit Center  214 is at   6.137486  1.884419 -1.578199
      ESP Fit Center  215 is at   4.809813  2.490747 -1.578199
      ESP Fit Center  216 is at   5.720159  1.154633 -1.942861
      ESP Fit Center  217 is at   5.361038  1.776649 -1.942861
      ESP Fit Center  218 is at   4.642796  1.776649 -1.942861
      ESP Fit Center  219 is at   4.642796  0.532617 -1.942861
      ESP Fit Center  220 is at   5.361038  0.532617 -1.942861
      ESP Fit Center  221 is at   5.001917  1.154633 -2.069506
      ESP Fit Center  222 is at   3.625467  0.954888  2.099263
      ESP Fit Center  223 is at   3.984588  1.576904  1.972617
      ESP Fit Center  224 is at   3.266346  1.576904  1.972617
      ESP Fit Center  225 is at   2.907225  0.954888  1.972617
      ESP Fit Center  226 is at   3.266346  0.332872  1.972617
      ESP Fit Center  227 is at   3.984588  0.332872  1.972617
      ESP Fit Center  228 is at   3.433363  2.291002  1.607956
      ESP Fit Center  229 is at   2.330292  1.335186  1.607956
      ESP Fit Center  230 is at   4.186217  2.182758 -1.609430
      ESP Fit Center  231 is at   3.433363  2.291002 -1.609430
      ESP Fit Center  232 is at   2.330292  1.335186 -1.609430
      ESP Fit Center  233 is at   4.343709  0.954888 -1.974092
      ESP Fit Center  234 is at   3.984588  1.576904 -1.974092
      ESP Fit Center  235 is at   3.266346  1.576904 -1.974092
      ESP Fit Center  236 is at   2.907225  0.954888 -1.974092
      ESP Fit Center  237 is at   3.984588  0.332872 -1.974092
      ESP Fit Center  238 is at   3.625467  0.954888 -2.100737
      ESP Fit Center  239 is at  -2.464904  2.679577  1.465962
      ESP Fit Center  240 is at  -4.383143 -0.416992  3.180953
      ESP Fit Center  241 is at  -3.666626 -0.416992  3.100221
      ESP Fit Center  242 is at  -4.024884  0.203530  3.100221
      ESP Fit Center  243 is at  -4.741402  0.203530  3.100221
      ESP Fit Center  244 is at  -5.099660 -0.416992  3.100221
      ESP Fit Center  245 is at  -4.741402 -1.037514  3.100221
      ESP Fit Center  246 is at  -4.024884 -1.037514  3.100221
      ESP Fit Center  247 is at  -2.986037 -0.416992  2.862073
      ESP Fit Center  248 is at  -4.383143  0.980114  2.862073
      ESP Fit Center  249 is at  -5.081696  0.792937  2.862073
      ESP Fit Center  250 is at  -5.593072  0.281561  2.862073
      ESP Fit Center  251 is at  -5.780249 -0.416992  2.862073
      ESP Fit Center  252 is at  -5.593072 -1.115545  2.862073
      ESP Fit Center  253 is at  -5.081696 -1.626921  2.862073
      ESP Fit Center  254 is at  -4.383143 -1.814098  2.862073
      ESP Fit Center  255 is at  -3.684590 -1.626921  2.862073
      ESP Fit Center  256 is at  -3.173214 -1.115545  2.862073
      ESP Fit Center  257 is at  -2.375506 -0.416992  2.478450
      ESP Fit Center  258 is at  -4.197902  1.582081  2.478450
      ESP Fit Center  259 is at  -4.932559  1.514005  2.478450
      ESP Fit Center  260 is at  -5.593015  1.185137  2.478450
      ESP Fit Center  261 is at  -6.090071  0.639893  2.478450
      ESP Fit Center  262 is at  -6.356596 -0.048090  2.478450
      ESP Fit Center  263 is at  -6.356596 -0.785894  2.478450
      ESP Fit Center  264 is at  -6.090071 -1.473877  2.478450
      ESP Fit Center  265 is at  -5.593015 -2.019121  2.478450
      ESP Fit Center  266 is at  -4.932559 -2.347989  2.478450
      ESP Fit Center  267 is at  -4.197902 -2.416065  2.478450
      ESP Fit Center  268 is at  -3.488262 -2.214155  2.478450
      ESP Fit Center  269 is at  -2.899481 -1.769528  2.478450
      ESP Fit Center  270 is at  -2.511077 -1.142234  2.478450
      ESP Fit Center  271 is at  -4.195010  2.093466  1.968590
      ESP Fit Center  272 is at  -4.943339  2.037386  1.968590
      ESP Fit Center  273 is at  -5.641892  1.763225  1.968590
      ESP Fit Center  274 is at  -6.228599  1.295341  1.968590
      ESP Fit Center  275 is at  -6.651330  0.675309  1.968590
      ESP Fit Center  276 is at  -6.872522 -0.041779  1.968590
      ESP Fit Center  277 is at  -6.872522 -0.792206  1.968590
      ESP Fit Center  278 is at  -6.651330 -1.509293  1.968590
      ESP Fit Center  279 is at  -6.228599 -2.129325  1.968590
      ESP Fit Center  280 is at  -5.641892 -2.597209  1.968590
      ESP Fit Center  281 is at  -4.943339 -2.871370  1.968590
      ESP Fit Center  282 is at  -4.195010 -2.927450  1.968590
      ESP Fit Center  283 is at  -3.463398 -2.760464  1.968590
      ESP Fit Center  284 is at  -2.813509 -2.385251  1.968590
      ESP Fit Center  285 is at  -2.303089 -1.835149  1.968590
      ESP Fit Center  286 is at  -4.926759  2.432741  1.358059
      ESP Fit Center  287 is at  -5.618380  2.208020  1.358059
      ESP Fit Center  288 is at  -6.232386  1.818359  1.358059
      ESP Fit Center  289 is at  -6.730198  1.288243  1.358059
      ESP Fit Center  290 is at  -7.080536  0.650981  1.358059
      ESP Fit Center  291 is at  -7.261387 -0.053385  1.358059
      ESP Fit Center  292 is at  -7.261387 -0.780599  1.358059
      ESP Fit Center  293 is at  -7.080536 -1.484965  1.358059
      ESP Fit Center  294 is at  -6.730198 -2.122227  1.358059
      ESP Fit Center  295 is at  -6.232386 -2.652343  1.358059
      ESP Fit Center  296 is at  -5.618380 -3.042004  1.358059
      ESP Fit Center  297 is at  -4.926759 -3.266725  1.358059
      ESP Fit Center  298 is at  -4.200980 -3.312387  1.358059
      ESP Fit Center  299 is at  -3.486648 -3.176121  1.358059
      ESP Fit Center  300 is at  -2.828645 -2.866488  1.358059
      ESP Fit Center  301 is at  -5.283495  2.590394  0.677470
      ESP Fit Center  302 is at  -5.952777  2.301694  0.677470
      ESP Fit Center  303 is at  -6.537439  1.866429  0.677470
      ESP Fit Center  304 is at  -7.005963  1.308064  0.677470
      ESP Fit Center  305 is at  -7.333090  0.656701  0.677470
      ESP Fit Center  306 is at  -7.501184 -0.052545  0.677470
      ESP Fit Center  307 is at  -7.501184 -0.781439  0.677470
      ESP Fit Center  308 is at  -7.333090 -1.490685  0.677470
      ESP Fit Center  309 is at  -7.005963 -2.142048  0.677470
      ESP Fit Center  310 is at  -6.537439 -2.700413  0.677470
      ESP Fit Center  311 is at  -5.952777 -3.135678  0.677470
      ESP Fit Center  312 is at  -5.283495 -3.424378  0.677470
      ESP Fit Center  313 is at  -4.565675 -3.550949  0.677470
      ESP Fit Center  314 is at  -3.838015 -3.508567  0.677470
      ESP Fit Center  315 is at  -3.139743 -3.299518  0.677470
      ESP Fit Center  316 is at  -2.508502 -2.935072  0.677470
      ESP Fit Center  317 is at  -5.099660  2.722276 -0.039047
      ESP Fit Center  318 is at  -5.780249  2.484128 -0.039047
      ESP Fit Center  319 is at  -6.390780  2.100505 -0.039047
      ESP Fit Center  320 is at  -6.900640  1.590645 -0.039047
      ESP Fit Center  321 is at  -7.284263  0.980114 -0.039047
      ESP Fit Center  322 is at  -7.522411  0.299525 -0.039047
      ESP Fit Center  323 is at  -7.603143 -0.416992 -0.039047
      ESP Fit Center  324 is at  -7.522411 -1.133509 -0.039047
      ESP Fit Center  325 is at  -7.284263 -1.814098 -0.039047
      ESP Fit Center  326 is at  -6.900640 -2.424629 -0.039047
      ESP Fit Center  327 is at  -6.390780 -2.934489 -0.039047
      ESP Fit Center  328 is at  -5.780249 -3.318112 -0.039047
      ESP Fit Center  329 is at  -5.099660 -3.556260 -0.039047
      ESP Fit Center  330 is at  -4.383143 -3.636992 -0.039047
      ESP Fit Center  331 is at  -3.666626 -3.556260 -0.039047
      ESP Fit Center  332 is at  -2.986037 -3.318112 -0.039047
      ESP Fit Center  333 is at  -2.375506 -2.934489 -0.039047
      ESP Fit Center  334 is at  -5.283495  2.590394 -0.755565
      ESP Fit Center  335 is at  -5.952777  2.301694 -0.755565
      ESP Fit Center  336 is at  -6.537439  1.866429 -0.755565
      ESP Fit Center  337 is at  -7.005963  1.308064 -0.755565
      ESP Fit Center  338 is at  -7.333090  0.656701 -0.755565
      ESP Fit Center  339 is at  -7.501184 -0.052545 -0.755565
      ESP Fit Center  340 is at  -7.501184 -0.781439 -0.755565
      ESP Fit Center  341 is at  -7.333090 -1.490685 -0.755565
      ESP Fit Center  342 is at  -7.005963 -2.142048 -0.755565
      ESP Fit Center  343 is at  -6.537439 -2.700413 -0.755565
      ESP Fit Center  344 is at  -5.952777 -3.135678 -0.755565
      ESP Fit Center  345 is at  -5.283495 -3.424378 -0.755565
      ESP Fit Center  346 is at  -4.565675 -3.550949 -0.755565
      ESP Fit Center  347 is at  -3.838015 -3.508567 -0.755565
      ESP Fit Center  348 is at  -3.139743 -3.299518 -0.755565
      ESP Fit Center  349 is at  -2.508502 -2.935072 -0.755565
      ESP Fit Center  350 is at  -4.200980  2.478403 -1.436153
      ESP Fit Center  351 is at  -4.926759  2.432741 -1.436153
      ESP Fit Center  352 is at  -5.618380  2.208020 -1.436153
      ESP Fit Center  353 is at  -6.232386  1.818359 -1.436153
      ESP Fit Center  354 is at  -6.730198  1.288243 -1.436153
      ESP Fit Center  355 is at  -7.080536  0.650981 -1.436153
      ESP Fit Center  356 is at  -7.261387 -0.053385 -1.436153
      ESP Fit Center  357 is at  -7.261387 -0.780599 -1.436153
      ESP Fit Center  358 is at  -7.080536 -1.484965 -1.436153
      ESP Fit Center  359 is at  -6.730198 -2.122227 -1.436153
      ESP Fit Center  360 is at  -6.232386 -2.652343 -1.436153
      ESP Fit Center  361 is at  -5.618380 -3.042004 -1.436153
      ESP Fit Center  362 is at  -4.926759 -3.266725 -1.436153
      ESP Fit Center  363 is at  -4.200980 -3.312387 -1.436153
      ESP Fit Center  364 is at  -3.486648 -3.176121 -1.436153
      ESP Fit Center  365 is at  -2.828645 -2.866488 -1.436153
      ESP Fit Center  366 is at  -2.268318 -2.402945 -1.436153
      ESP Fit Center  367 is at  -3.463398  1.926480 -2.046684
      ESP Fit Center  368 is at  -4.195010  2.093466 -2.046684
      ESP Fit Center  369 is at  -4.943339  2.037386 -2.046684
      ESP Fit Center  370 is at  -5.641892  1.763225 -2.046684
      ESP Fit Center  371 is at  -6.228599  1.295341 -2.046684
      ESP Fit Center  372 is at  -6.651330  0.675309 -2.046684
      ESP Fit Center  373 is at  -6.872522 -0.041779 -2.046684
      ESP Fit Center  374 is at  -6.872522 -0.792206 -2.046684
      ESP Fit Center  375 is at  -6.651330 -1.509293 -2.046684
      ESP Fit Center  376 is at  -6.228599 -2.129325 -2.046684
      ESP Fit Center  377 is at  -5.641892 -2.597209 -2.046684
      ESP Fit Center  378 is at  -4.943339 -2.871370 -2.046684
      ESP Fit Center  379 is at  -4.195010 -2.927450 -2.046684
      ESP Fit Center  380 is at  -3.463398 -2.760464 -2.046684
      ESP Fit Center  381 is at  -2.813509 -2.385251 -2.046684
      ESP Fit Center  382 is at  -2.303089 -1.835149 -2.046684
      ESP Fit Center  383 is at  -3.488262  1.380171 -2.556544
      ESP Fit Center  384 is at  -4.197902  1.582081 -2.556544
      ESP Fit Center  385 is at  -4.932559  1.514005 -2.556544
      ESP Fit Center  386 is at  -5.593015  1.185137 -2.556544
      ESP Fit Center  387 is at  -6.090071  0.639893 -2.556544
      ESP Fit Center  388 is at  -6.356596 -0.048090 -2.556544
      ESP Fit Center  389 is at  -6.356596 -0.785894 -2.556544
      ESP Fit Center  390 is at  -6.090071 -1.473877 -2.556544
      ESP Fit Center  391 is at  -5.593015 -2.019121 -2.556544
      ESP Fit Center  392 is at  -4.932559 -2.347989 -2.556544
      ESP Fit Center  393 is at  -4.197902 -2.416065 -2.556544
      ESP Fit Center  394 is at  -3.488262 -2.214155 -2.556544
      ESP Fit Center  395 is at  -2.899481 -1.769528 -2.556544
      ESP Fit Center  396 is at  -2.511077 -1.142234 -2.556544
      ESP Fit Center  397 is at  -2.986037 -0.416992 -2.940167
      ESP Fit Center  398 is at  -3.173214  0.281561 -2.940167
      ESP Fit Center  399 is at  -3.684590  0.792937 -2.940167
      ESP Fit Center  400 is at  -4.383143  0.980114 -2.940167
      ESP Fit Center  401 is at  -5.081696  0.792937 -2.940167
      ESP Fit Center  402 is at  -5.593072  0.281561 -2.940167
      ESP Fit Center  403 is at  -5.780249 -0.416992 -2.940167
      ESP Fit Center  404 is at  -5.593072 -1.115545 -2.940167
      ESP Fit Center  405 is at  -5.081696 -1.626921 -2.940167
      ESP Fit Center  406 is at  -4.383143 -1.814098 -2.940167
      ESP Fit Center  407 is at  -3.684590 -1.626921 -2.940167
      ESP Fit Center  408 is at  -3.173214 -1.115545 -2.940167
      ESP Fit Center  409 is at  -3.666626 -0.416992 -3.178315
      ESP Fit Center  410 is at  -4.024884  0.203530 -3.178315
      ESP Fit Center  411 is at  -4.741402  0.203530 -3.178315
      ESP Fit Center  412 is at  -5.099660 -0.416992 -3.178315
      ESP Fit Center  413 is at  -4.741402 -1.037514 -3.178315
      ESP Fit Center  414 is at  -4.024884 -1.037514 -3.178315
      ESP Fit Center  415 is at  -4.383143 -0.416992 -3.259047
      ESP Fit Center  416 is at  -2.517423  2.249682 -1.792492
      ESP Fit Center  417 is at  -0.623146  0.718239 -2.466120
      ESP Fit Center  418 is at  -0.873998  1.490281 -2.466120
      ESP Fit Center  419 is at  -1.530736  1.967430 -2.466120
      ESP Fit Center  420 is at  -2.342510  1.967430 -2.466120
      ESP Fit Center  421 is at  -2.999248  1.490281 -2.466120
      ESP Fit Center  422 is at  -1.530736 -0.530952 -2.466120
      ESP Fit Center  423 is at  -0.873998 -0.053803 -2.466120
      ESP Fit Center  424 is at  -1.207698  0.718239 -2.932285
      ESP Fit Center  425 is at  -1.572161  1.349506 -2.932285
      ESP Fit Center  426 is at  -2.301085  1.349506 -2.932285
      ESP Fit Center  427 is at  -2.665548  0.718239 -2.932285
      ESP Fit Center  428 is at  -2.301085  0.086972 -2.932285
      ESP Fit Center  429 is at  -1.572161  0.086972 -2.932285
      ESP Fit Center  430 is at  -1.936623  0.718239 -3.098657
      ESP Fit Center  431 is at   6.124509  2.167599  1.557637
      ESP Fit Center  432 is at   5.760046  2.798866  1.557637
      ESP Fit Center  433 is at   5.031122  2.798866  1.557637
      ESP Fit Center  434 is at   6.709061  2.167599  1.091472
      ESP Fit Center  435 is at   6.458209  2.939641  1.091472
      ESP Fit Center  436 is at   5.801471  3.416790  1.091472
      ESP Fit Center  437 is at   4.989697  3.416790  1.091472
      ESP Fit Center  438 is at   4.332959  2.939641  1.091472
      ESP Fit Center  439 is at   7.033463  2.167599  0.417844
      ESP Fit Center  440 is at   6.845854  2.928759  0.417844
      ESP Fit Center  441 is at   6.326005  3.515547  0.417844
      ESP Fit Center  442 is at   5.593008  3.793536  0.417844
      ESP Fit Center  443 is at   4.814784  3.699042  0.417844
      ESP Fit Center  444 is at   4.169614  3.253714  0.417844
      ESP Fit Center  445 is at   7.033463  2.167599 -0.329826
      ESP Fit Center  446 is at   6.845854  2.928759 -0.329826
      ESP Fit Center  447 is at   6.326005  3.515547 -0.329826
      ESP Fit Center  448 is at   5.593008  3.793536 -0.329826
      ESP Fit Center  449 is at   4.814784  3.699042 -0.329826
      ESP Fit Center  450 is at   4.169614  3.253714 -0.329826
      ESP Fit Center  451 is at   6.709061  2.167599 -1.003454
      ESP Fit Center  452 is at   6.458209  2.939641 -1.003454
      ESP Fit Center  453 is at   5.801471  3.416790 -1.003454
      ESP Fit Center  454 is at   4.989697  3.416790 -1.003454
      ESP Fit Center  455 is at   4.332959  2.939641 -1.003454
      ESP Fit Center  456 is at   6.124509  2.167599 -1.469619
      ESP Fit Center  457 is at   5.760046  2.798866 -1.469619
      ESP Fit Center  458 is at   5.031122  2.798866 -1.469619
      ESP Fit Center  459 is at   7.673435  0.183224  1.576506
      ESP Fit Center  460 is at   7.308972  0.814491  1.576506
      ESP Fit Center  461 is at   7.308972 -0.448043  1.576506
      ESP Fit Center  462 is at   8.257987  0.183224  1.110341
      ESP Fit Center  463 is at   8.007135  0.955266  1.110341
      ESP Fit Center  464 is at   7.350397  1.432415  1.110341
      ESP Fit Center  465 is at   7.350397 -1.065967  1.110341
      ESP Fit Center  466 is at   8.007135 -0.588818  1.110341
      ESP Fit Center  467 is at   8.582389  0.183224  0.436713
      ESP Fit Center  468 is at   8.394780  0.944384  0.436713
      ESP Fit Center  469 is at   7.874931  1.531172  0.436713
      ESP Fit Center  470 is at   7.141934  1.809161  0.436713
      ESP Fit Center  471 is at   7.874931 -1.164724  0.436713
      ESP Fit Center  472 is at   8.394780 -0.577936  0.436713
      ESP Fit Center  473 is at   8.582389  0.183224 -0.310957
      ESP Fit Center  474 is at   8.394780  0.944384 -0.310957
      ESP Fit Center  475 is at   7.874931  1.531172 -0.310957
      ESP Fit Center  476 is at   7.141934  1.809161 -0.310957
      ESP Fit Center  477 is at   7.874931 -1.164724 -0.310957
      ESP Fit Center  478 is at   8.394780 -0.577936 -0.310957
      ESP Fit Center  479 is at   8.257987  0.183224 -0.984585
      ESP Fit Center  480 is at   8.007135  0.955266 -0.984585
      ESP Fit Center  481 is at   7.350397  1.432415 -0.984585
      ESP Fit Center  482 is at   7.350397 -1.065967 -0.984585
      ESP Fit Center  483 is at   8.007135 -0.588818 -0.984585
      ESP Fit Center  484 is at   7.673435  0.183224 -1.450750
      ESP Fit Center  485 is at   7.308972  0.814491 -1.450750
      ESP Fit Center  486 is at   7.308972 -0.448043 -1.450750
      ESP Fit Center  487 is at   6.656318 -2.103053  1.535763
      ESP Fit Center  488 is at   5.562931 -2.734320  1.535763
      ESP Fit Center  489 is at   6.291855 -2.734320  1.535763
      ESP Fit Center  490 is at   7.240870 -2.103053  1.069598
      ESP Fit Center  491 is at   5.521506 -3.352244  1.069598
      ESP Fit Center  492 is at   6.333280 -3.352244  1.069598
      ESP Fit Center  493 is at   6.990018 -2.875095  1.069598
      ESP Fit Center  494 is at   7.565272 -2.103053  0.395970
      ESP Fit Center  495 is at   5.346593 -3.634496  0.395970
      ESP Fit Center  496 is at   6.124817 -3.728990  0.395970
      ESP Fit Center  497 is at   6.857814 -3.451001  0.395970
      ESP Fit Center  498 is at   7.377663 -2.864213  0.395970
      ESP Fit Center  499 is at   7.565272 -2.103053 -0.351700
      ESP Fit Center  500 is at   5.346593 -3.634496 -0.351700
      ESP Fit Center  501 is at   6.124817 -3.728990 -0.351700
      ESP Fit Center  502 is at   6.857814 -3.451001 -0.351700
      ESP Fit Center  503 is at   7.377663 -2.864213 -0.351700
      ESP Fit Center  504 is at   7.240870 -2.103053 -1.025328
      ESP Fit Center  505 is at   5.521506 -3.352244 -1.025328
      ESP Fit Center  506 is at   6.333280 -3.352244 -1.025328
      ESP Fit Center  507 is at   6.990018 -2.875095 -1.025328
      ESP Fit Center  508 is at   6.656318 -2.103053 -1.491493
      ESP Fit Center  509 is at   5.562931 -2.734320 -1.491493
      ESP Fit Center  510 is at   6.291855 -2.734320 -1.491493
      ESP Fit Center  511 is at   3.281580  2.402990  1.494464
      ESP Fit Center  512 is at   2.552656  2.402990  1.494464
      ESP Fit Center  513 is at   2.188193  1.771723  1.494464
      ESP Fit Center  514 is at   3.323005  3.020914  1.028299
      ESP Fit Center  515 is at   2.511231  3.020914  1.028299
      ESP Fit Center  516 is at   3.847539  3.119671  0.354671
      ESP Fit Center  517 is at   3.114542  3.397660  0.354671
      ESP Fit Center  518 is at   2.336318  3.303166  0.354671
      ESP Fit Center  519 is at   3.847539  3.119671 -0.392999
      ESP Fit Center  520 is at   3.114542  3.397660 -0.392999
      ESP Fit Center  521 is at   2.336318  3.303166 -0.392999
      ESP Fit Center  522 is at   3.323005  3.020914 -1.066627
      ESP Fit Center  523 is at   2.511231  3.020914 -1.066627
      ESP Fit Center  524 is at   3.281580  2.402990 -1.532792
      ESP Fit Center  525 is at   2.552656  2.402990 -1.532792
      ESP Fit Center  526 is at   2.188193  1.771723 -1.532792
      ESP Fit Center  527 is at  -0.832869  2.220537  2.688148
      ESP Fit Center  528 is at  -0.103944  2.220537  2.521776
      ESP Fit Center  529 is at  -0.468407  2.851804  2.521776
      ESP Fit Center  530 is at  -1.197331  2.851804  2.521776
      ESP Fit Center  531 is at  -1.561794  2.220537  2.521776
      ESP Fit Center  532 is at  -1.197331  1.589270  2.521776
      ESP Fit Center  533 is at  -0.468407  1.589270  2.521776
      ESP Fit Center  534 is at   0.480608  2.220537  2.055611
      ESP Fit Center  535 is at   0.229756  2.992579  2.055611
      ESP Fit Center  536 is at  -0.426982  3.469728  2.055611
      ESP Fit Center  537 is at  -1.238756  3.469728  2.055611
      ESP Fit Center  538 is at  -1.895494  2.992579  2.055611
      ESP Fit Center  539 is at  -1.238756  0.971346  2.055611
      ESP Fit Center  540 is at  -0.426982  0.971346  2.055611
      ESP Fit Center  541 is at   0.229756  1.448495  2.055611
      ESP Fit Center  542 is at   0.617401  2.981697  1.381983
      ESP Fit Center  543 is at   0.097552  3.568485  1.381983
      ESP Fit Center  544 is at  -0.635445  3.846474  1.381983
      ESP Fit Center  545 is at  -1.413669  3.751980  1.381983
      ESP Fit Center  546 is at  -2.058839  3.306652  1.381983
      ESP Fit Center  547 is at  -0.635445  3.846474  0.634313
      ESP Fit Center  548 is at  -1.413669  3.751980  0.634313
      ESP Fit Center  549 is at  -2.058839  3.306652  0.634313
      ESP Fit Center  550 is at  -0.414751  3.952402  0.355093
      ESP Fit Center  551 is at  -1.226525  3.952402  0.355093
      ESP Fit Center  552 is at   0.629632  3.464371 -0.318535
      ESP Fit Center  553 is at   0.109783  4.051159 -0.318535
      ESP Fit Center  554 is at  -0.623214  4.329148 -0.318535
      ESP Fit Center  555 is at  -1.401438  4.234654 -0.318535
      ESP Fit Center  556 is at  -2.046608  3.789326 -0.318535
      ESP Fit Center  557 is at   0.629632  3.464371 -1.066205
      ESP Fit Center  558 is at   0.109783  4.051159 -1.066205
      ESP Fit Center  559 is at  -0.623214  4.329148 -1.066205
      ESP Fit Center  560 is at  -1.401438  4.234654 -1.066205
      ESP Fit Center  561 is at  -2.046608  3.789326 -1.066205
      ESP Fit Center  562 is at  -2.410923  3.095181 -1.066205
      ESP Fit Center  563 is at   0.492839  2.703211 -1.739833
      ESP Fit Center  564 is at   0.241987  3.475253 -1.739833
      ESP Fit Center  565 is at  -0.414751  3.952402 -1.739833
      ESP Fit Center  566 is at  -1.226525  3.952402 -1.739833
      ESP Fit Center  567 is at  -1.883263  3.475253 -1.739833
      ESP Fit Center  568 is at  -2.134115  2.703211 -1.739833
      ESP Fit Center  569 is at  -0.091713  2.703211 -2.205998
      ESP Fit Center  570 is at  -0.456176  3.334478 -2.205998
      ESP Fit Center  571 is at  -1.185100  3.334478 -2.205998
      ESP Fit Center  572 is at  -1.549563  2.703211 -2.205998
      ESP Fit Center  573 is at  -1.185100  2.071944 -2.205998
      ESP Fit Center  574 is at  -0.456176  2.071944 -2.205998
      ESP Fit Center  575 is at  -0.820638  2.703211 -2.372370
      ESP Fit Center  576 is at  -2.885141  0.880522  3.174312
      ESP Fit Center  577 is at  -2.156216  0.880522  3.007940
      ESP Fit Center  578 is at  -2.520679  1.511789  3.007940
      ESP Fit Center  579 is at  -3.249603  1.511789  3.007940
      ESP Fit Center  580 is at  -3.614066  0.880522  3.007940
      ESP Fit Center  581 is at  -3.249603  0.249255  3.007940
      ESP Fit Center  582 is at  -2.520679  0.249255  3.007940
      ESP Fit Center  583 is at  -1.571664  0.880522  2.541775
      ESP Fit Center  584 is at  -1.822516  1.652564  2.541775
      ESP Fit Center  585 is at  -2.479254  2.129713  2.541775
      ESP Fit Center  586 is at  -3.291028  2.129713  2.541775
      ESP Fit Center  587 is at  -3.947766  1.652564  2.541775
      ESP Fit Center  588 is at  -1.822516  0.108480  2.541775
      ESP Fit Center  589 is at  -2.687717  2.506459  1.868147
      ESP Fit Center  590 is at  -3.465941  2.411965  1.868147
      ESP Fit Center  591 is at  -3.847514  2.538697  1.671160
      ESP Fit Center  592 is at  -3.077165  3.156621  1.204995
      ESP Fit Center  593 is at  -3.888939  3.156621  1.204995
      ESP Fit Center  594 is at  -4.545677  2.679472  1.204995
      ESP Fit Center  595 is at  -2.552631  3.255378  0.531367
      ESP Fit Center  596 is at  -3.285628  3.533367  0.531367
      ESP Fit Center  597 is at  -4.063852  3.438873  0.531367
      ESP Fit Center  598 is at  -4.709022  2.993545  0.531367
      ESP Fit Center  599 is at  -2.552631  3.255378 -0.216303
      ESP Fit Center  600 is at  -3.285628  3.533367 -0.216303
      ESP Fit Center  601 is at  -4.063852  3.438873 -0.216303
      ESP Fit Center  602 is at  -4.709022  2.993545 -0.216303
      ESP Fit Center  603 is at  -3.077165  3.156621 -0.889931
      ESP Fit Center  604 is at  -3.888939  3.156621 -0.889931
      ESP Fit Center  605 is at  -3.118590  2.538697 -1.356096
      ESP Fit Center  606 is at  -3.847514  2.538697 -1.356096
      ESP Fit Center  607 is at   1.322577 -2.370832  1.449034
[...]
 3181 Fit       0.000720
 3182 Fit      -0.001983
 3183 Fit      -0.001943
 3184 Fit      -0.002788
 3185 Fit      -0.002851
 3186 Fit      -0.005017
 3187 Fit      -0.005643
 3188 Fit      -0.010302
 3189 Fit      -0.006637
 3190 Fit      -0.007773
 3191 Fit      -0.006582
 3192 Fit      -0.004953
 3193 Fit      -0.003438
 3194 Fit      -0.005152
 3195 Fit      -0.008160
 3196 Fit      -0.009307
 3197 Fit      -0.000717
 3198 Fit      -0.000042
 3199 Fit      -0.001025
 3200 Fit      -0.003566
 3201 Fit       0.002078
 3202 Fit       0.003248
 3203 Fit       0.003467
 3204 Fit       0.002516
 3205 Fit       0.000366
 3206 Fit       0.006389
 3207 Fit       0.003566
 3208 Fit       0.009327
 3209 Fit       0.008626
 3210 Fit       0.005525
 3211 Fit       0.002270
 3212 Fit       0.001090
 3213 Fit       0.002261
 3214 Fit       0.002407
 3215 Fit       0.001287
 3216 Fit      -0.001216
 3217 Fit      -0.001779
 3218 Fit      -0.001214
 3219 Fit      -0.002442
 3220 Fit      -0.005447
 3221 Fit      -0.006057
 3222 Fit      -0.004718
 3223 Fit      -0.006786
 3224 Fit      -0.010636
 3225 Fit      -0.009070
 3226 Fit      -0.007924
 3227 Fit      -0.008634
 3228 Fit      -0.007168
 3229 Fit      -0.007342
 3230 Fit      -0.008295
 3231 Fit      -0.009352
 3232 Fit      -0.010050
 3233 Fit      -0.004892
 3234 Fit      -0.006193
 3235 Fit      -0.007603
 3236 Fit      -0.008090
 3237 Fit      -0.001892
 3238 Fit      -0.003689
 3239 Fit      -0.006197
 3240 Fit       0.001202
 3241 Fit      -0.001311
 3242 Fit       0.004090
 3243 Fit       0.002611
 3244 Fit      -0.000750
 3245 Fit      -0.004093
 3246 Fit      -0.006903
 3247 Fit      -0.007307
 3248 Fit      -0.009739
 3249 Fit      -0.012338
 3250 Fit      -0.010206
 3251 Fit      -0.009003
 3252 Fit      -0.009975
 3253 Fit      -0.011040
 3254 Fit      -0.011291
 3255 Fit      -0.010486
 3256 Fit      -0.000194
 3257 Fit       0.000621
 3258 Fit       0.002067
 3259 Fit       0.000871
 3260 Fit      -0.001061
 3261 Fit      -0.001993
 3262 Fit      -0.001433
 3263 Fit       0.001181
 3264 Fit       0.003797
 3265 Fit       0.004789
 3266 Fit       0.003758
 3267 Fit       0.001731
 3268 Fit      -0.000303
 3269 Fit      -0.001864
 3270 Fit      -0.002861
 3271 Fit      -0.003359
 3272 Fit      -0.003371
 3273 Fit      -0.002776
 3274 Fit      -0.001310
 3275 Fit       0.001160
 3276 Fit       0.004662
 3277 Fit       0.007293
 3278 Fit       0.007895
 3279 Fit       0.006721
 3280 Fit       0.004656
 3281 Fit       0.002394
 3282 Fit       0.000337
 3283 Fit      -0.001323
 3284 Fit      -0.002546
 3285 Fit      -0.003397
 3286 Fit      -0.003969
 3287 Fit      -0.004336
 3288 Fit      -0.004515
 3289 Fit      -0.004471
 3290 Fit      -0.004126
 3291 Fit      -0.003315
 3292 Fit      -0.001669
 3293 Fit       0.000086
 3294 Fit       0.004467
 3295 Fit       0.008654
 3296 Fit       0.011056
 3297 Fit       0.011200
 3298 Fit       0.009765
 3299 Fit       0.007592
 3300 Fit       0.005203
 3301 Fit       0.002896
 3302 Fit       0.000855
 3303 Fit      -0.000826
 3304 Fit      -0.002126
 3305 Fit      -0.003083
 3306 Fit      -0.003772
 3307 Fit      -0.004275
 3308 Fit      -0.004662
 3309 Fit      -0.004974
 3310 Fit      -0.005219
 3311 Fit      -0.005380
 3312 Fit      -0.005435
 3313 Fit      -0.005368
 3314 Fit      -0.005142
 3315 Fit      -0.004547
 3316 Fit      -0.003014
 3317 Fit       0.014222
 3318 Fit       0.012296
 3319 Fit       0.009881
 3320 Fit       0.007324
 3321 Fit       0.004832
 3322 Fit       0.002559
 3323 Fit       0.000607
 3324 Fit      -0.000981
 3325 Fit      -0.002209
 3326 Fit      -0.003119
 3327 Fit      -0.003773
 3328 Fit      -0.004248
 3329 Fit      -0.004614
 3330 Fit      -0.004930
 3331 Fit      -0.005229
 3332 Fit      -0.005519
 3333 Fit      -0.005788
 3334 Fit      -0.006017
 3335 Fit      -0.006198
 3336 Fit      -0.006354
 3337 Fit      -0.006555
 3338 Fit      -0.006849
 3339 Fit       0.016508
 3340 Fit       0.014092
 3341 Fit       0.011442
 3342 Fit       0.008704
 3343 Fit       0.006038
 3344 Fit       0.003597
 3345 Fit       0.001479
 3346 Fit      -0.000272
 3347 Fit      -0.001652
 3348 Fit      -0.002691
 3349 Fit      -0.003440
 3350 Fit      -0.003966
 3351 Fit      -0.004338
 3352 Fit      -0.004626
 3353 Fit      -0.004886
 3354 Fit      -0.005155
 3355 Fit      -0.005451
 3356 Fit      -0.005769
 3357 Fit      -0.006090
 3358 Fit      -0.006391
 3359 Fit      -0.006659
 3360 Fit      -0.006918
 3361 Fit      -0.007259
 3362 Fit      -0.007890
 3363 Fit       0.018348
 3364 Fit       0.015715
 3365 Fit       0.012931
 3366 Fit       0.010040
 3367 Fit       0.007221
 3368 Fit       0.004635
 3369 Fit       0.002378
 3370 Fit       0.000492
 3371 Fit      -0.001022
 3372 Fit      -0.002187
 3373 Fit      -0.003042
 3374 Fit      -0.003642
 3375 Fit      -0.004047
 3376 Fit      -0.004323
 3377 Fit      -0.004532
 3378 Fit      -0.004725
 3379 Fit      -0.004941
 3380 Fit      -0.005204
 3381 Fit      -0.005515
 3382 Fit      -0.005865
 3383 Fit      -0.006228
 3384 Fit      -0.006578
 3385 Fit      -0.006892
 3386 Fit      -0.007168
 3387 Fit      -0.007447
 3388 Fit       0.019393
 3389 Fit       0.016627
 3390 Fit       0.013590
 3391 Fit       0.010464
 3392 Fit       0.007487
 3393 Fit       0.004816
 3394 Fit       0.002521
 3395 Fit       0.000619
 3396 Fit      -0.000903
 3397 Fit      -0.002071
 3398 Fit      -0.002928
 3399 Fit      -0.003523
 3400 Fit      -0.003913
 3401 Fit      -0.004158
 3402 Fit      -0.004319
 3403 Fit      -0.004450
 3404 Fit      -0.004596
 3405 Fit      -0.004789
 3406 Fit      -0.005046
 3407 Fit      -0.005368
 3408 Fit      -0.005742
 3409 Fit      -0.006143
 3410 Fit      -0.006541
 3411 Fit      -0.006902
 3412 Fit      -0.007198
 3413 Fit      -0.007405
 3414 Fit      -0.007499
 3415 Fit       0.015560
 3416 Fit       0.012073
 3417 Fit       0.008751
 3418 Fit       0.005791
 3419 Fit       0.003265
 3420 Fit       0.001179
 3421 Fit      -0.000486
 3422 Fit      -0.001765
 3423 Fit      -0.002703
 3424 Fit      -0.003348
 3425 Fit      -0.003761
 3426 Fit      -0.004002
 3427 Fit      -0.004135
 3428 Fit      -0.004219
 3429 Fit      -0.004308
 3430 Fit      -0.004443
 3431 Fit      -0.004649
 3432 Fit      -0.004937
 3433 Fit      -0.005303
 3434 Fit      -0.005726
 3435 Fit      -0.006176
 3436 Fit      -0.006617
 3437 Fit      -0.007009
 3438 Fit      -0.007303
 3439 Fit      -0.007426
 3440 Fit       0.016993
 3441 Fit       0.013313
 3442 Fit       0.009787
 3443 Fit       0.006642
 3444 Fit       0.003958
 3445 Fit       0.001740
 3446 Fit      -0.000039
 3447 Fit      -0.001415
 3448 Fit      -0.002432
 3449 Fit      -0.003139
 3450 Fit      -0.003591
 3451 Fit      -0.003849
 3452 Fit      -0.003976
 3453 Fit      -0.004033
 3454 Fit      -0.004075
 3455 Fit      -0.004151
 3456 Fit      -0.004294
 3457 Fit      -0.004525
 3458 Fit      -0.004847
 3459 Fit      -0.005251
 3460 Fit      -0.005712
 3461 Fit      -0.006198
 3462 Fit      -0.006672
 3463 Fit      -0.007090
 3464 Fit      -0.007400
 3465 Fit      -0.007505
 3466 Fit       0.016570
 3467 Fit       0.012897
 3468 Fit       0.009416
 3469 Fit       0.006324
 3470 Fit       0.003694
 3471 Fit       0.001528
 3472 Fit      -0.000200
 3473 Fit      -0.001527
 3474 Fit      -0.002496
 3475 Fit      -0.003157
 3476 Fit      -0.003568
 3477 Fit      -0.003788
 3478 Fit      -0.003881
 3479 Fit      -0.003909
 3480 Fit      -0.003929
 3481 Fit      -0.003990
 3482 Fit      -0.004124
 3483 Fit      -0.004353
 3484 Fit      -0.004682
 3485 Fit      -0.005098
 3486 Fit      -0.005580
 3487 Fit      -0.006095
 3488 Fit      -0.006608
 3489 Fit      -0.007083
 3490 Fit      -0.007484
 3491 Fit      -0.007754
 3492 Fit       0.017802
 3493 Fit       0.014326
 3494 Fit       0.010899
 3495 Fit       0.007711
 3496 Fit       0.004905
 3497 Fit       0.002534
 3498 Fit       0.000603
 3499 Fit      -0.000911
 3500 Fit      -0.002044
 3501 Fit      -0.002842
 3502 Fit      -0.003356
 3503 Fit      -0.003648
 3504 Fit      -0.003781
 3505 Fit      -0.003822
 3506 Fit      -0.003833
 3507 Fit      -0.003866
 3508 Fit      -0.003966
 3509 Fit      -0.004159
 3510 Fit      -0.004456
 3511 Fit      -0.004852
 3512 Fit      -0.005328
 3513 Fit      -0.005855
 3514 Fit      -0.006401
 3515 Fit      -0.006938
 3516 Fit      -0.007450
 3517 Fit      -0.007945
 3518 Fit       0.017844
 3519 Fit       0.014707
 3520 Fit       0.011634
 3521 Fit       0.008650
 3522 Fit       0.005890
 3523 Fit       0.003462
 3524 Fit       0.001416
 3525 Fit      -0.000239
 3526 Fit      -0.001519
 3527 Fit      -0.002455
 3528 Fit      -0.003091
 3529 Fit      -0.003481
 3530 Fit      -0.003686
 3531 Fit      -0.003770
 3532 Fit      -0.003797
 3533 Fit      -0.003825
 3534 Fit      -0.003901
 3535 Fit      -0.004059
 3536 Fit      -0.004316
 3537 Fit      -0.004673
 3538 Fit      -0.005118
 3539 Fit      -0.005625
 3540 Fit      -0.006167
 3541 Fit      -0.006721
 3542 Fit      -0.007282
 3543 Fit      -0.007884
 3544 Fit      -0.008625
 3545 Fit       0.015565
 3546 Fit       0.012937
 3547 Fit       0.010246
 3548 Fit       0.007574
 3549 Fit       0.005053
 3550 Fit       0.002801
 3551 Fit       0.000890
 3552 Fit      -0.000653
 3553 Fit      -0.001832
 3554 Fit      -0.002676
 3555 Fit      -0.003231
 3556 Fit      -0.003557
 3557 Fit      -0.003722
 3558 Fit      -0.003796
 3559 Fit      -0.003846
 3560 Fit      -0.003929
 3561 Fit      -0.004086
 3562 Fit      -0.004340
 3563 Fit      -0.004696
 3564 Fit      -0.005138
 3565 Fit      -0.005643
 3566 Fit      -0.006183
 3567 Fit      -0.006738
 3568 Fit      -0.007317
 3569 Fit      -0.007979
 3570 Fit      -0.008844
 3571 Fit       0.013978
 3572 Fit       0.012473
 3573 Fit       0.010395
 3574 Fit       0.008080
 3575 Fit       0.005720
 3576 Fit       0.003477
 3577 Fit       0.001480
 3578 Fit      -0.000190
 3579 Fit      -0.001502
 3580 Fit      -0.002462
 3581 Fit      -0.003108
 3582 Fit      -0.003503
 3583 Fit      -0.003720
 3584 Fit      -0.003841
 3585 Fit      -0.003940
 3586 Fit      -0.004079
 3587 Fit      -0.004300
 3588 Fit      -0.004618
 3589 Fit      -0.005026
 3590 Fit      -0.005500
 3591 Fit      -0.006005
 3592 Fit      -0.006515
 3593 Fit      -0.007024
 3594 Fit      -0.007550
 3595 Fit      -0.008090
 3596 Fit       0.000857
 3597 Fit       0.010426
 3598 Fit       0.009507
 3599 Fit       0.007924
 3600 Fit       0.006000
 3601 Fit       0.003970
 3602 Fit       0.002020
 3603 Fit       0.000294
 3604 Fit      -0.001121
 3605 Fit      -0.002196
 3606 Fit      -0.002946
 3607 Fit      -0.003426
 3608 Fit      -0.003715
 3609 Fit      -0.003899
 3610 Fit      -0.004061
 3611 Fit      -0.004264
 3612 Fit      -0.004541
 3613 Fit      -0.004898
 3614 Fit      -0.005310
 3615 Fit      -0.005736
 3616 Fit      -0.006129
 3617 Fit      -0.006441
 3618 Fit      -0.006596
 3619 Fit      -0.006396
 3620 Fit      -0.005384
 3621 Fit      -0.002971
 3622 Fit       0.000712
 3623 Fit       0.003868
 3624 Fit       0.006117
 3625 Fit       0.006918
 3626 Fit       0.006488
 3627 Fit       0.005271
 3628 Fit       0.003636
 3629 Fit       0.001875
 3630 Fit       0.000214
 3631 Fit      -0.001193
 3632 Fit      -0.002273
 3633 Fit      -0.003025
 3634 Fit      -0.003511
 3635 Fit      -0.003825
 3636 Fit      -0.004067
 3637 Fit      -0.004315
 3638 Fit      -0.004610
 3639 Fit      -0.004947
 3640 Fit      -0.005276
 3641 Fit      -0.005520
 3642 Fit      -0.005568
 3643 Fit      -0.005247
 3644 Fit      -0.004256
 3645 Fit      -0.002256
 3646 Fit       0.000034
 3647 Fit       0.002354
 3648 Fit       0.003651
 3649 Fit       0.003625
 3650 Fit       0.002630
 3651 Fit       0.001154
 3652 Fit      -0.000391
 3653 Fit      -0.001723
 3654 Fit      -0.002711
 3655 Fit      -0.003368
 3656 Fit      -0.003798
 3657 Fit      -0.004124
 3658 Fit      -0.004424
 3659 Fit      -0.004690
 3660 Fit      -0.004823
 3661 Fit      -0.004644
 3662 Fit      -0.003896
 3663 Fit      -0.002310
 3664 Fit      -0.000801
 3665 Fit       0.000818
 3666 Fit       0.001195
 3667 Fit       0.000363
 3668 Fit      -0.000989
 3669 Fit      -0.002243
 3670 Fit      -0.003128
 3671 Fit      -0.003680
 3672 Fit      -0.004018
 3673 Fit      -0.004124
 3674 Fit      -0.003769
 3675 Fit      -0.002642
 3676 Fit      -0.001591
 3677 Fit      -0.000763
 3678 Fit      -0.001601
 3679 Fit      -0.002764
 3680 Fit      -0.003318
 3681 Fit      -0.002972
 3682 Fit      -0.002253
 3683 Fit       0.013884
 3684 Fit       0.003754
 3685 Fit       0.006265
 3686 Fit       0.009425
 3687 Fit       0.002231
 3688 Fit       0.005440
 3689 Fit       0.007713
 3690 Fit       0.005869
 3691 Fit       0.005976
 3692 Fit       0.004815
 3693 Fit       0.008199
 3694 Fit       0.008339
 3695 Fit       0.008077
 3696 Fit       0.007281
 3697 Fit       0.005798
 3698 Fit       0.010178
 3699 Fit       0.009897
 3700 Fit       0.009688
 3701 Fit       0.009300
 3702 Fit       0.008595
 3703 Fit       0.007500
 3704 Fit       0.005978
 3705 Fit       0.011283
 3706 Fit       0.010670
 3707 Fit       0.010372
 3708 Fit       0.010004
 3709 Fit       0.009389
 3710 Fit       0.008455
 3711 Fit       0.007222
 3712 Fit       0.011151
 3713 Fit       0.010562
 3714 Fit       0.010270
 3715 Fit       0.009897
 3716 Fit       0.009266
 3717 Fit       0.008300
 3718 Fit       0.007007
 3719 Fit       0.009799
 3720 Fit       0.009577
 3721 Fit       0.009380
 3722 Fit       0.008971
 3723 Fit       0.008208
 3724 Fit       0.007001
 3725 Fit       0.005275
 3726 Fit       0.007623
 3727 Fit       0.007816
 3728 Fit       0.007534
 3729 Fit       0.006640
 3730 Fit       0.004947
 3731 Fit       0.005201
 3732 Fit       0.003867
 3733 Fit       0.004788
 3734 Fit       0.004842
 3735 Fit       0.007092
 3736 Fit       0.007293
 3737 Fit       0.007340
 3738 Fit       0.006133
 3739 Fit       0.006683
 3740 Fit       0.008554
 3741 Fit       0.008758
 3742 Fit       0.008978
 3743 Fit       0.009447
 3744 Fit       0.008555
 3745 Fit       0.008203
 3746 Fit       0.008323
 3747 Fit       0.009238
 3748 Fit       0.009441
 3749 Fit       0.009719
 3750 Fit       0.010354
 3751 Fit       0.009909
 3752 Fit       0.009110
 3753 Fit       0.009067
 3754 Fit       0.009168
 3755 Fit       0.009366
 3756 Fit       0.009638
 3757 Fit       0.010268
 3758 Fit       0.009895
 3759 Fit       0.009061
 3760 Fit       0.009004
 3761 Fit       0.008341
 3762 Fit       0.008529
 3763 Fit       0.008731
 3764 Fit       0.009181
 3765 Fit       0.008047
 3766 Fit       0.008131
 3767 Fit       0.006725
 3768 Fit       0.006893
 3769 Fit       0.006898
 3770 Fit       0.005858
 3771 Fit       0.006350
 3772 Fit       0.004243
 3773 Fit       0.004235
 3774 Fit       0.000262
 3775 Fit       0.002243
 3776 Fit      -0.001566
 3777 Fit       0.001727
 3778 Fit       0.003791
 3779 Fit       0.005033
 3780 Fit       0.008144
 3781 Fit      -0.005785
 3782 Fit      -0.000970
 3783 Fit       0.002201
 3784 Fit       0.004342
 3785 Fit       0.005822
 3786 Fit       0.006959
 3787 Fit       0.009432
 3788 Fit      -0.004208
 3789 Fit       0.000245
 3790 Fit       0.003189
 3791 Fit       0.005198
 3792 Fit       0.006638
 3793 Fit       0.007868
 3794 Fit       0.009298
 3795 Fit      -0.004307
 3796 Fit       0.000175
 3797 Fit       0.003130
 3798 Fit       0.005141
 3799 Fit       0.006574
 3800 Fit       0.007783
 3801 Fit       0.007785
 3802 Fit      -0.006112
 3803 Fit      -0.001194
 3804 Fit       0.002018
 3805 Fit       0.004169
 3806 Fit       0.005632
 3807 Fit       0.006719
 3808 Fit      -0.001934
 3809 Fit       0.001424
 3810 Fit       0.003492
 3811 Fit       0.004680
 3812 Fit      -0.000167
 3813 Fit       0.001806
 3814 Fit      -0.000312
 3815 Fit      -0.003619
 3816 Fit       0.004479
 3817 Fit       0.001323
 3818 Fit      -0.002141
 3819 Fit       0.002790
 3820 Fit      -0.000917
 3821 Fit       0.002283
 3822 Fit      -0.001617
 3823 Fit       0.003136
 3824 Fit      -0.000276
 3825 Fit      -0.004478
 3826 Fit      -0.002888
 3827 Fit      -0.007232
 3828 Fit       0.009388
 3829 Fit       0.005705
 3830 Fit       0.008202
 3831 Fit       0.011481
 3832 Fit       0.013498
 3833 Fit       0.010948
 3834 Fit       0.006498
 3835 Fit       0.001699
 3836 Fit       0.004354
 3837 Fit       0.007706
 3838 Fit       0.010925
 3839 Fit       0.014023
 3840 Fit       0.001368
 3841 Fit      -0.000142
 3842 Fit       0.003775
 3843 Fit       0.007233
 3844 Fit       0.010282
 3845 Fit       0.013198
 3846 Fit       0.016281
 3847 Fit       0.003915
 3848 Fit       0.007403
 3849 Fit       0.010413
 3850 Fit       0.013316
 3851 Fit       0.016456
 3852 Fit       0.009893
 3853 Fit       0.013183
 3854 Fit       0.016763
 3855 Fit       0.010719
 3856 Fit       0.013954
 3857 Fit       0.002191
 3858 Fit       0.006418
 3859 Fit       0.009642
 3860 Fit       0.012551
 3861 Fit       0.015735
 3862 Fit       0.020083
 3863 Fit       0.002314
 3864 Fit       0.006380
 3865 Fit       0.009469
 3866 Fit       0.012171
 3867 Fit       0.014964
 3868 Fit       0.018463
 3869 Fit      -0.001954
 3870 Fit       0.003333
 3871 Fit       0.007022
 3872 Fit       0.009886
 3873 Fit       0.012389
 3874 Fit       0.014911
 3875 Fit       0.017845
 3876 Fit       0.001990
 3877 Fit       0.006273
 3878 Fit       0.009474
 3879 Fit       0.012121
 3880 Fit       0.014613
 3881 Fit       0.001644
 3882 Fit       0.006222
 3883 Fit       0.009746
 3884 Fit       0.012547
 3885 Fit       0.014991
 3886 Fit       0.003312
 3887 Fit       0.006509
 3888 Fit       0.010151
 3889 Fit       0.012465
 3890 Fit       0.008303
 3891 Fit       0.012314
 3892 Fit       0.014029
 3893 Fit       0.016885
 3894 Fit       0.020393
 3895 Fit       0.018399
 3896 Fit       0.019125
 3897 Fit       0.019434
 3898 Fit      -0.000020
 3899 Fit       0.000486
 3900 Fit       0.004623
 3901 Fit       0.001480
 3902 Fit       0.004572
 3903 Fit       0.000558
 3904 Fit       0.004263
 3905 Fit       0.000504
 3906 Fit       0.003534
 3907 Fit       0.001178
 3908 Fit       0.001853
 3909 Fit       0.000066
 3910 Fit      -0.000735
 -----------------------------------------------------------------
 Leave Link  602 at Thu Jan 16 22:39:45 2014, MaxMem=   235929600 cpu:         1.5

 Test job not archived.
 1\1\GINC-G59\SP\RHF\Gen\C9H10Br1N3S1\KOLAR\16-Jan-2014\0\\# hf/gen pop
 =mk iop(6/33=2,6/41=5,6/42=2)\\na resp\\0,1\S,0,-0.878298,-0.830709,0.
 100562\C,0,0.696538,0.054258,-0.047105\N,0,0.667581,1.328758,-0.143732
 \C,0,-0.681642,1.850187,-0.018516\C,0,-1.731751,0.745385,-0.344154\N,0
 ,1.814058,-0.735637,-0.035608\C,0,3.168191,-0.372247,-0.015539\N,0,3.9
 81833,-1.437786,-0.008326\C,0,5.298965,-1.214001,0.018322\C,0,5.866739
 ,0.058437,0.04079\C,0,5.001917,1.154633,0.030494\C,0,3.625467,0.954888
 ,-0.000737\C,0,-3.026899,0.949935,0.415962\Br,0,-4.383143,-0.416992,-0
 .039047\H,0,-1.936623,0.718239,-1.418657\H,0,5.395584,2.167599,0.04400
 9\H,0,6.94451,0.183224,0.062878\H,0,5.927393,-2.103053,0.022135\H,0,2.
 917118,1.771723,-0.019164\H,0,-0.832869,2.220537,1.008148\H,0,-0.82063
 8,2.703211,-0.69237\H,0,-2.885141,0.880522,1.494312\H,0,-3.483052,1.90
 743,0.157532\H,0,1.687039,-1.739565,-0.064594\\Version=AM64L-G09RevD.0
 1\State=1-A\HF=-3477.0824743\RMSD=5.040e-09\Dipole=0.442216,1.0305761,
 0.1063194\Quadrupole=2.7575335,1.1195199,-3.8770533,-2.8557998,-0.0163
 802,0.5807461\PG=C01 [X(C9H10Br1N3S1)]\\@


 IF GOD HAD MEANT MAN TO SEE THE SUN RISE, HE
 WOULD HAVE SCHEDULED IT FOR A LATER HOUR.
 Job cpu time:       0 days  0 hours  2 minutes 58.5 seconds.
 File lengths (MBytes):  RWF=     31 Int=      0 D2E=      0 Chk=      3 Scr=      1
 Normal termination of Gaussian 09 at Thu Jan 16 22:39:45 2014.
178.08user 0.41system 2:58.79elapsed 99%CPU (0avgtext+0avgdata 603440maxresident)k
8inputs+144496outputs (0major+171815minor)pagefaults 0swaps
