Linux g54 2.6.38.6-client #1 SMP Tue Jun 12 11:27:21 CEST 2012 x86_64 GNU/Linux
Thu Jan 16 22:36:46 CET 2014

 Entering Gaussian System, Link 0=/usr/local/programs/common/gaussian/gaussian09_d01/arch/amd64-pgi_10.4.0-acml/g09/g09
 Initial command:
 /usr/local/programs/common/gaussian/gaussian09_d01/arch/amd64-pgi_10.4.0-acml/g09/l1.exe "/scratch/kolar/g09_25532/Gau-1695.inp" -scrdir="/scratch/kolar/g09_25532/"
 Entering Link 1 = /usr/local/programs/common/gaussian/gaussian09_d01/arch/amd64-pgi_10.4.0-acml/g09/l1.exe PID=      1700.
  
 Copyright (c) 1988,1990,1992,1993,1995,1998,2003,2009,2013,
            Gaussian, Inc.  All Rights Reserved.
  
 This is part of the Gaussian(R) 09 program.  It is based on
 the Gaussian(R) 03 system (copyright 2003, Gaussian, Inc.),
 the Gaussian(R) 98 system (copyright 1998, Gaussian, Inc.),
 the Gaussian(R) 94 system (copyright 1995, Gaussian, Inc.),
 the Gaussian 92(TM) system (copyright 1992, Gaussian, Inc.),
 the Gaussian 90(TM) system (copyright 1990, Gaussian, Inc.),
 the Gaussian 88(TM) system (copyright 1988, Gaussian, Inc.),
 the Gaussian 86(TM) system (copyright 1986, Carnegie Mellon
 University), and the Gaussian 82(TM) system (copyright 1983,
 Carnegie Mellon University). Gaussian is a federally registered
 trademark of Gaussian, Inc.
  
 This software contains proprietary and confidential information,
 including trade secrets, belonging to Gaussian, Inc.
  
 This software is provided under written license and may be
 used, copied, transmitted, or stored only in accord with that
 written license.
  
 The following legend is applicable only to US Government
 contracts under FAR:
  
                    RESTRICTED RIGHTS LEGEND
  
 Use, reproduction and disclosure by the US Government is
 subject to restrictions as set forth in subparagraphs (a)
 and (c) of the Commercial Computer Software - Restricted
 Rights clause in FAR 52.227-19.
  
 Gaussian, Inc.
 340 Quinnipiac St., Bldg. 40, Wallingford CT 06492
  
  
 ---------------------------------------------------------------
 Warning -- This program may not be used in any manner that
 competes with the business of Gaussian, Inc. or will provide
 assistance to any competitor of Gaussian, Inc.  The licensee
 of this program is prohibited from giving any competitor of
 Gaussian, Inc. access to this program.  By using this program,
 the user acknowledges that Gaussian, Inc. is engaged in the
 business of creating and licensing software in the field of
 computational chemistry and represents and warrants to the
 licensee that it is not a competitor of Gaussian, Inc. and that
 it will not use this program in any manner prohibited above.
 ---------------------------------------------------------------
  

 Cite this work as:
 Gaussian 09, Revision D.01,
 M. J. Frisch, G. W. Trucks, H. B. Schlegel, G. E. Scuseria, 
 M. A. Robb, J. R. Cheeseman, G. Scalmani, V. Barone, B. Mennucci, 
 G. A. Petersson, H. Nakatsuji, M. Caricato, X. Li, H. P. Hratchian, 
 A. F. Izmaylov, J. Bloino, G. Zheng, J. L. Sonnenberg, M. Hada, 
 M. Ehara, K. Toyota, R. Fukuda, J. Hasegawa, M. Ishida, T. Nakajima, 
 Y. Honda, O. Kitao, H. Nakai, T. Vreven, J. A. Montgomery, Jr., 
 J. E. Peralta, F. Ogliaro, M. Bearpark, J. J. Heyd, E. Brothers, 
 K. N. Kudin, V. N. Staroverov, T. Keith, R. Kobayashi, J. Normand, 
 K. Raghavachari, A. Rendell, J. C. Burant, S. S. Iyengar, J. Tomasi, 
 M. Cossi, N. Rega, J. M. Millam, M. Klene, J. E. Knox, J. B. Cross, 
 V. Bakken, C. Adamo, J. Jaramillo, R. Gomperts, R. E. Stratmann, 
 O. Yazyev, A. J. Austin, R. Cammi, C. Pomelli, J. W. Ochterski, 
 R. L. Martin, K. Morokuma, V. G. Zakrzewski, G. A. Voth, 
 P. Salvador, J. J. Dannenberg, S. Dapprich, A. D. Daniels, 
 O. Farkas, J. B. Foresman, J. V. Ortiz, J. Cioslowski, 
 and D. J. Fox, Gaussian, Inc., Wallingford CT, 2013.
 
 ******************************************
 Gaussian 09:  AM64L-G09RevD.01 24-Apr-2013
                16-Jan-2014 
 ******************************************
 %mem=1800mb
 -----------------------------------------
 # hf/gen pop=mk iop(6/33=2,6/41=5,6/42=2)
 -----------------------------------------
 1/38=1/1;
 2/12=2,17=6,18=5,40=1/2;
 3/5=7,11=9,16=1,25=1,30=1/1,2,3;
 4//1;
 5/5=2,38=5/2;
 6/7=2,8=2,9=2,10=2,15=8,20=1,28=1,33=2,41=5,42=2/1,2;
 99/5=1,9=1/99;
 -------
 na resp
 -------
 Symbolic Z-matrix:
 Charge =  0 Multiplicity = 1
 6                     6.6926   -1.01921   0.09175 
 7                     5.61334  -0.0464   -0.00728 
 6                     6.03433   1.33729  -0.1373 
 6                     4.31258  -0.48717   0.04047 
 8                     4.03205  -1.67805   0.14827 
 6                     3.2023    0.56467  -0.0486 
 6                     1.82232  -0.08386   0.05397 
 7                     0.78915   0.9305   -0.11019 
 6                    -0.5645    0.60747  -0.04995 
 6                    -1.03288  -0.71335  -0.17469 
 6                    -2.40046  -0.98834  -0.16006 
 6                    -3.31739   0.04671  -0.01127 
 6                    -2.87727   1.3635    0.12295 
 6                    -1.51526   1.63713   0.1024 
 35                   -5.1942   -0.33532   0.01635 
 1                     7.32503  -0.98365  -0.80513 
 1                     7.3218   -0.80637   0.96619 
 1                     6.25456  -2.0112    0.18991 
 1                     6.60187   1.65704   0.74808 
 1                     6.68512   1.45683  -1.01415 
 1                     5.18224   2.00437  -0.25655 
 1                     3.2718    1.11415  -0.99639 
 1                     3.32798   1.30728   0.75258 
 1                     1.7335   -0.62809   1.00639 
 1                     1.72527  -0.82993  -0.73978 
 1                     1.0073    1.81468   0.33354 
 1                    -0.33503  -1.53614  -0.2822 
 1                    -2.74633  -2.01193  -0.25777 
 1                    -3.5938    2.16918   0.24242 
 1                    -1.17637   2.66664   0.19864 
 
                          Input orientation:                          
 ---------------------------------------------------------------------
 Center     Atomic      Atomic             Coordinates (Angstroms)
 Number     Number       Type             X           Y           Z
 ---------------------------------------------------------------------
      1          6           0        6.692601   -1.019212    0.091749
      2          7           0        5.613342   -0.046404   -0.007279
      3          6           0        6.034334    1.337293   -0.137303
      4          6           0        4.312579   -0.487171    0.040466
      5          8           0        4.032045   -1.678050    0.148273
      6          6           0        3.202303    0.564674   -0.048601
      7          6           0        1.822319   -0.083857    0.053973
      8          7           0        0.789150    0.930497   -0.110190
      9          6           0       -0.564496    0.607465   -0.049951
     10          6           0       -1.032879   -0.713351   -0.174686
     11          6           0       -2.400455   -0.988339   -0.160056
     12          6           0       -3.317391    0.046711   -0.011266
     13          6           0       -2.877274    1.363496    0.122945
     14          6           0       -1.515255    1.637125    0.102398
     15         35           0       -5.194201   -0.335318    0.016352
     16          1           0        7.325032   -0.983648   -0.805130
     17          1           0        7.321798   -0.806368    0.966194
     18          1           0        6.254557   -2.011203    0.189906
     19          1           0        6.601872    1.657038    0.748083
     20          1           0        6.685124    1.456832   -1.014152
     21          1           0        5.182239    2.004374   -0.256552
     22          1           0        3.271795    1.114147   -0.996389
     23          1           0        3.327982    1.307277    0.752583
     24          1           0        1.733497   -0.628087    1.006392
     25          1           0        1.725269   -0.829929   -0.739777
     26          1           0        1.007298    1.814676    0.333537
     27          1           0       -0.335033   -1.536135   -0.282195
     28          1           0       -2.746328   -2.011933   -0.257774
     29          1           0       -3.593799    2.169176    0.242417
     30          1           0       -1.176372    2.666644    0.198644
 ---------------------------------------------------------------------
                    Distance matrix (angstroms):
                    1          2          3          4          5
     1  C    0.000000
     2  N    1.456352   0.000000
     3  C    2.457417   1.452156   0.000000
     4  C    2.439304   1.374241   2.514898   0.000000
     5  O    2.741500   2.277491   3.630841   1.228216   0.000000
     6  C    3.835436   2.487616   2.936870   1.532000   2.399384
     7  C    4.959432   3.791703   4.449418   2.522744   2.726396
     8  N    6.220360   4.923185   5.261005   3.800925   4.169855
     9  C    7.438522   6.212491   6.639641   4.999226   5.137223
    10  C    7.736122   6.681699   7.358807   5.354565   5.166082
    11  C    9.096594   8.070410   8.749557   6.734701   6.476714
    12  C   10.067112   8.931219   9.441199   7.648800   7.550792
    13  C    9.862088   8.607865   8.915446   7.424672   7.549194
    14  C    8.627001   7.325517   7.559342   6.203234   6.462587
    15  Br  11.906698  10.811430  11.353468   9.508023   9.324374
    16  H    1.098010   2.108287   2.738368   3.168027   3.497847
    17  H    1.098110   2.108084   2.733231   3.164531   3.500186
    18  H    1.088836   2.076168   3.371645   2.473112   2.247729
    19  H    2.757049   2.109379   1.099202   3.215465   4.252834
    20  H    2.711801   2.102910   1.098490   3.243507   4.268202
    21  H    3.397731   2.110374   1.088707   2.655621   3.879056
    22  H    4.175785   2.794291   2.901628   2.173136   3.112008
    23  H    4.143659   2.762736   2.849059   2.167161   3.126191
    24  H    5.057891   4.052047   4.864972   2.757632   2.668729
    25  H    5.040005   4.033308   4.860850   2.724048   2.613266
    26  H    6.357047   4.979500   5.071556   4.038474   4.624127
    27  H    7.056535   6.138244   6.989021   4.775430   4.390537
    28  H    9.497423   8.591282   9.398503   7.227864   6.798727
    29  H   10.770262   9.473256   9.671461   8.343128   8.541868
    30  H    8.690092   7.314592   7.339912   6.332468   6.782810
                    6          7          8          9         10
     6  C    0.000000
     7  C    1.528224   0.000000
     8  N    2.441501   1.457155   0.000000
     9  C    3.767042   2.487089   1.392959   0.000000
    10  C    4.425609   2.932696   2.454829   1.406946   0.000000
    11  C    5.815081   4.323854   3.722633   2.435048   1.395026
    12  C    6.540343   5.141782   4.201731   2.809693   2.413171
    13  C    6.134232   4.917902   3.699257   2.439348   2.793505
    14  C    4.840279   3.755466   2.419669   1.409735   2.415409
    15  Br   8.444850   7.021125   6.117090   4.725188   4.182823
    16  H    4.468393   5.641590   6.845776   8.083724   8.386012
    17  H    4.458677   5.621249   6.844764   8.076206   8.432727
    18  H    4.001035   4.835067   6.214043   7.308518   7.411078
    19  H    3.658556   5.133871   5.920492   7.286652   8.047339
    20  H    3.722671   5.211668   5.988045   7.362615   8.061139
    21  H    2.456853   3.968148   4.524805   5.917686   6.783835
    22  H    1.097749   2.153939   2.642461   3.983667   4.748175
    23  H    1.099614   2.165717   2.707768   4.035490   4.894882
    24  H    2.166352   1.100535   2.137225   2.814822   3.009161
    25  H    2.145757   1.093655   2.090885   2.790159   2.817854
    26  H    2.554717   2.084908   1.013042   2.018652   3.288090
    27  H    4.120766   2.622268   2.716182   2.168320   1.084214
    28  H    6.486052   4.968621   4.602095   3.415381   2.151540
    29  H    6.989000   5.869072   4.568249   3.420687   3.878305
    30  H    4.863353   4.071650   2.640618   2.162501   3.403576
                   11         12         13         14         15
    11  C    0.000000
    12  C    1.390769   0.000000
    13  C    2.416314   1.394861   0.000000
    14  C    2.783078   2.406248   1.389385   0.000000
    15  Br   2.874469   1.915496   2.874975   4.175234   0.000000
    16  H    9.746858  10.721615  10.509874   9.265135  12.562896
    17  H    9.788961  10.718000  10.461379   9.209251  12.560825
    18  H    8.722268   9.792736   9.735677   8.584168  11.572069
    19  H    9.426804  10.077775   9.504271   8.142792  11.985502
    20  H    9.447544  10.151085   9.630221   8.278007  12.057865
    21  H    8.152478   8.725613   8.093855   6.717153  10.640448
    22  H    6.106908   6.747389   6.255089   4.939300   8.648681
    23  H    6.238410   6.806870   6.237372   4.897804   8.710210
    24  H    4.310446   5.196388   5.099617   4.062361   7.004205
    25  H    4.169265   5.169879   5.170958   4.158919   6.978212
    26  H    4.439967   4.684818   3.916352   2.539335   6.571276
    27  H    2.140319   3.387221   3.877498   3.407406   5.014240
    28  H    1.084860   2.150557   3.399355   3.867931   2.979642
    29  H    3.399405   2.155369   1.084805   2.150123   2.980752
    30  H    3.871169   3.389996   2.144060   1.088124   5.018760
                   16         17         18         19         20
    16  H    0.000000
    17  H    1.780176   0.000000
    18  H    1.786584   1.786968   0.000000
    19  H    3.147801   2.575701   3.726685   0.000000
    20  H    2.531623   3.073955   3.696270   1.775524   0.000000
    21  H    3.717630   3.738060   4.180197   1.773497   1.769865
    22  H    4.567938   4.893121   4.480176   3.798332   3.430534
    23  H    4.863252   4.523681   4.460242   3.292523   3.796593
    24  H    5.888404   5.591289   4.797879   5.384199   5.740043
    25  H    5.602254   5.850814   4.772229   5.672741   5.468521
    26  H    7.002924   6.866079   6.495514   5.612126   5.846540
    27  H    7.697746   7.792182   6.623539   7.705743   7.666565
    28  H   10.138504  10.213650   9.012011  10.092668  10.077536
    29  H   11.413086  11.337018  10.698993  10.221042  10.379916
    30  H    9.306238   9.212483   8.780719   7.862714   8.045970
                   21         22         23         24         25
    21  H    0.000000
    22  H    2.233755   0.000000
    23  H    2.223188   1.760500   0.000000
    24  H    4.518706   3.068040   2.520404   0.000000
    25  H    4.496379   2.497403   3.059980   1.757815   0.000000
    26  H    4.220702   2.717975   2.412183   2.635752   2.943029
    27  H    6.555620   4.532469   4.751151   2.600735   2.225523
    28  H    8.887795   6.821710   6.995371   4.856128   4.650230
    29  H    8.791756   7.055785   6.993868   6.065346   6.184806
    30  H    6.409192   4.860508   4.737503   4.469345   4.639631
                   26         27         28         29         30
    26  H    0.000000
    27  H    3.661818   0.000000
    28  H    5.392800   2.457910   0.000000
    29  H    4.615633   4.962268   4.295355   0.000000
    30  H    2.347863   4.313051   4.956023   2.468470   0.000000
 Stoichiometry    C11H15BrN2O
 Framework group  C1[X(C11H15BrN2O)]
 Deg. of freedom    84
 Full point group                 C1      NOp   1
 Largest Abelian subgroup         C1      NOp   1
 Largest concise Abelian subgroup C1      NOp   1
                         Standard orientation:                         
 ---------------------------------------------------------------------
 Center     Atomic      Atomic             Coordinates (Angstroms)
 Number     Number       Type             X           Y           Z
 ---------------------------------------------------------------------
      1          6           0       -6.692601   -1.019212   -0.091749
      2          7           0       -5.613342   -0.046404    0.007279
      3          6           0       -6.034334    1.337293    0.137303
      4          6           0       -4.312579   -0.487171   -0.040466
      5          8           0       -4.032045   -1.678050   -0.148273
      6          6           0       -3.202303    0.564674    0.048601
      7          6           0       -1.822319   -0.083857   -0.053973
      8          7           0       -0.789150    0.930497    0.110190
      9          6           0        0.564496    0.607465    0.049951
     10          6           0        1.032879   -0.713351    0.174686
     11          6           0        2.400455   -0.988339    0.160056
     12          6           0        3.317391    0.046711    0.011266
     13          6           0        2.877274    1.363496   -0.122945
     14          6           0        1.515255    1.637125   -0.102398
     15         35           0        5.194201   -0.335318   -0.016352
     16          1           0       -7.325032   -0.983648    0.805130
     17          1           0       -7.321798   -0.806368   -0.966194
     18          1           0       -6.254557   -2.011203   -0.189906
     19          1           0       -6.601872    1.657038   -0.748083
     20          1           0       -6.685124    1.456832    1.014152
     21          1           0       -5.182239    2.004374    0.256552
     22          1           0       -3.271795    1.114147    0.996389
     23          1           0       -3.327982    1.307277   -0.752583
     24          1           0       -1.733497   -0.628087   -1.006392
     25          1           0       -1.725269   -0.829929    0.739777
     26          1           0       -1.007298    1.814676   -0.333537
     27          1           0        0.335033   -1.536135    0.282195
     28          1           0        2.746328   -2.011933    0.257774
     29          1           0        3.593799    2.169176   -0.242417
     30          1           0        1.176372    2.666644   -0.198644
 ---------------------------------------------------------------------
 Rotational constants (GHZ):      2.1744056      0.1044421      0.1000007
 General basis read from cards:  (5D, 7F)
 There are   270 symmetry adapted cartesian basis functions of A   symmetry.
 There are   254 symmetry adapted basis functions of A   symmetry.
   254 basis functions,   535 primitive gaussians,   270 cartesian basis functions
    69 alpha electrons       69 beta electrons
       nuclear repulsion energy      1182.7793952258 Hartrees.
 NAtoms=   30 NActive=   30 NUniq=   30 SFac= 1.00D+00 NAtFMM=   60 NAOKFM=F Big=F
 Integral buffers will be    131072 words long.
 Raffenetti 1 integral format.
 Two-electron integral symmetry is turned on.
 One-electron integrals computed using PRISM.
 NBasis=   254 RedAO= T EigKep=  4.45D-04  NBF=   254
 NBsUse=   254 1.00D-06 EigRej= -1.00D+00 NBFU=   254
 ExpMin= 1.43D-01 ExpMax= 5.74D+05 ExpMxC= 5.74D+03 IAcc=2 IRadAn=         4 AccDes= 0.00D+00
 Harris functional with IExCor=  205 and IRadAn=       4 diagonalized for initial guess.
 HarFok:  IExCor=  205 AccDes= 0.00D+00 IRadAn=         4 IDoV= 1 UseB2=F ITyADJ=14
 ICtDFT=  3500011 ScaDFX=  1.000000  1.000000  1.000000  1.000000
 FoFCou: FMM=F IPFlag=           0 FMFlag=      100000 FMFlg1=           0
         NFxFlg=           0 DoJE=T BraDBF=F KetDBF=T FulRan=T
         wScrn=  0.000000 ICntrl=     500 IOpCl=  0 I1Cent=   200000004 NGrid=           0
         NMat0=    1 NMatS0=      1 NMatT0=    0 NMatD0=    1 NMtDS0=    0 NMtDT0=    0
 Petite list used in FoFCou.
 Requested convergence on RMS density matrix=1.00D-08 within 128 cycles.
 Requested convergence on MAX density matrix=1.00D-06.
 Requested convergence on             energy=1.00D-06.
 No special actions if energy rises.
 Integral accuracy reduced to 1.0D-05 until final iterations.
 Initial convergence to 1.0D-05 achieved.  Increase integral accuracy.
 SCF Done:  E(RHF) =  -3178.63260185     A.U. after   16 cycles
            NFock= 16  Conv=0.62D-08     -V/T= 1.9991

 **********************************************************************

            Population analysis using the SCF density.

 **********************************************************************

 Orbital symmetries:
 BldTbl:  Degeneracy threshold= 1.00D-02
       Occupied  (A) (A) (A) (A) (A) (A) (A) (A) (A) (A) (A) (A)
                 (A) (A) (A) (A) (A) (A) (A) (A) (A) (A) (A) (A)
                 (A) (A) (A) (A) (A) (A) (A) (A) (A) (A) (A) (A)
                 (A) (A) (A) (A) (A) (A) (A) (A) (A) (A) (A) (A)
                 (A) (A) (A) (A) (A) (A) (A) (A) (A) (A) (A) (A)
                 (A) (A) (A) (A) (A) (A) (A) (A) (A)
       Virtual   (A) (A) (A) (A) (A) (A) (A) (A) (A) (A) (A) (A)
                 (A) (A) (A) (A) (A) (A) (A) (A) (A) (A) (A) (A)
                 (A) (A) (A) (A) (A) (A) (A) (A) (A) (A) (A) (A)
                 (A) (A) (A) (A) (A) (A) (A) (A) (A) (A) (A) (A)
                 (A) (A) (A) (A) (A) (A) (A) (A) (A) (A) (A) (A)
                 (A) (A) (A) (A) (A) (A) (A) (A) (A) (A) (A) (A)
                 (A) (A) (A) (A) (A) (A) (A) (A) (A) (A) (A) (A)
                 (A) (A) (A) (A) (A) (A) (A) (A) (A) (A) (A) (A)
                 (A) (A) (A) (A) (A) (A) (A) (A) (A) (A) (A) (A)
                 (A) (A) (A) (A) (A) (A) (A) (A) (A) (A) (A) (A)
                 (A) (A) (A) (A) (A) (A) (A) (A) (A) (A) (A) (A)
                 (A) (A) (A) (A) (A) (A) (A) (A) (A) (A) (A) (A)
                 (A) (A) (A) (A) (A) (A) (A) (A) (A) (A) (A) (A)
                 (A) (A) (A) (A) (A) (A) (A) (A) (A) (A) (A) (A)
                 (A) (A) (A) (A) (A) (A) (A) (A) (A) (A) (A) (A)
                 (A) (A) (A) (A) (A)
 The electronic state is 1-A.
 Alpha  occ. eigenvalues -- -489.83071 -64.37447 -58.54129 -58.53958 -58.53948
 Alpha  occ. eigenvalues --  -20.52717 -15.59722 -15.57330 -11.36208 -11.28739
 Alpha  occ. eigenvalues --  -11.28063 -11.27768 -11.26480 -11.25711 -11.25358
 Alpha  occ. eigenvalues --  -11.24834 -11.24716 -11.23474 -11.23162  -9.65197
 Alpha  occ. eigenvalues --   -7.46754  -7.45897  -7.45879  -3.21068  -3.20658
 Alpha  occ. eigenvalues --   -3.20644  -3.19649  -3.19648  -1.38185  -1.24935
 Alpha  occ. eigenvalues --   -1.24836  -1.15115  -1.06603  -1.02505  -1.02195
 Alpha  occ. eigenvalues --   -0.98099  -0.95590  -0.92950  -0.87317  -0.83234
 Alpha  occ. eigenvalues --   -0.79677  -0.74508  -0.71834  -0.69313  -0.67315
 Alpha  occ. eigenvalues --   -0.66003  -0.65441  -0.64286  -0.63399  -0.60141
 Alpha  occ. eigenvalues --   -0.59573  -0.59020  -0.57694  -0.56703  -0.56506
 Alpha  occ. eigenvalues --   -0.55203  -0.54168  -0.52399  -0.51673  -0.50537
 Alpha  occ. eigenvalues --   -0.49711  -0.48540  -0.45352  -0.42316  -0.40166
 Alpha  occ. eigenvalues --   -0.39549  -0.37505  -0.34385  -0.28605
 Alpha virt. eigenvalues --    0.13416   0.14914   0.17589   0.18488   0.21075
 Alpha virt. eigenvalues --    0.22733   0.25171   0.26052   0.27221   0.28752
 Alpha virt. eigenvalues --    0.29065   0.29873   0.30424   0.30727   0.31767
 Alpha virt. eigenvalues --    0.32535   0.33053   0.34349   0.35292   0.36198
 Alpha virt. eigenvalues --    0.36665   0.38769   0.40472   0.41254   0.42762
 Alpha virt. eigenvalues --    0.45283   0.45986   0.50419   0.51772   0.52105
 Alpha virt. eigenvalues --    0.55286   0.59162   0.64862   0.65013   0.65704
 Alpha virt. eigenvalues --    0.66579   0.67357   0.67730   0.69614   0.70373
 Alpha virt. eigenvalues --    0.70429   0.71119   0.73246   0.73948   0.75690
 Alpha virt. eigenvalues --    0.76084   0.76350   0.78594   0.78838   0.80075
 Alpha virt. eigenvalues --    0.81800   0.82299   0.82716   0.84102   0.86064
 Alpha virt. eigenvalues --    0.86452   0.87684   0.89724   0.90260   0.91951
 Alpha virt. eigenvalues --    0.92814   0.93360   0.95737   0.96998   0.97364
 Alpha virt. eigenvalues --    1.00070   1.02696   1.03501   1.05178   1.06142
 Alpha virt. eigenvalues --    1.06824   1.07282   1.10464   1.11063   1.11868
 Alpha virt. eigenvalues --    1.12127   1.12269   1.13077   1.13317   1.13494
 Alpha virt. eigenvalues --    1.14338   1.14519   1.17154   1.18127   1.19270
 Alpha virt. eigenvalues --    1.20366   1.20867   1.21777   1.22206   1.24305
 Alpha virt. eigenvalues --    1.25601   1.26197   1.28203   1.29177   1.30471
 Alpha virt. eigenvalues --    1.33233   1.36716   1.38987   1.42295   1.44860
 Alpha virt. eigenvalues --    1.47440   1.47997   1.49126   1.52334   1.54681
 Alpha virt. eigenvalues --    1.57261   1.58640   1.62129   1.63855   1.67602
 Alpha virt. eigenvalues --    1.68203   1.70503   1.70946   1.71479   1.74695
 Alpha virt. eigenvalues --    1.75990   1.78507   1.83815   1.85626   1.90432
 Alpha virt. eigenvalues --    1.95499   2.00110   2.02178   2.07293   2.08479
 Alpha virt. eigenvalues --    2.09419   2.10943   2.11248   2.12520   2.13376
 Alpha virt. eigenvalues --    2.18085   2.19201   2.21006   2.21445   2.24766
 Alpha virt. eigenvalues --    2.27329   2.27854   2.29500   2.30209   2.32019
 Alpha virt. eigenvalues --    2.34377   2.36518   2.38152   2.39656   2.40505
 Alpha virt. eigenvalues --    2.42849   2.43630   2.44618   2.47409   2.48144
 Alpha virt. eigenvalues --    2.51719   2.52140   2.54360   2.58300   2.59116
 Alpha virt. eigenvalues --    2.60076   2.63181   2.63818   2.65103   2.69601
 Alpha virt. eigenvalues --    2.74499   2.75870   2.82572   2.83612   2.85200
 Alpha virt. eigenvalues --    2.86115   2.93159   2.95609   2.96439   2.98793
 Alpha virt. eigenvalues --    2.99324   3.01838   3.03778   3.09025   3.09409
 Alpha virt. eigenvalues --    3.12008   3.13753   3.25458   3.28202   3.31410
 Alpha virt. eigenvalues --    3.41590   3.51611   3.57518   3.76554   9.18382
          Condensed to atoms (all electrons):
               1          2          3          4          5          6
     1  C    4.977214   0.221304  -0.052540  -0.031731  -0.008464   0.003568
     2  N    0.221304   7.361698   0.237821   0.319429  -0.087722  -0.106698
     3  C   -0.052540   0.237821   4.943933  -0.031282   0.001726  -0.001584
     4  C   -0.031731   0.319429  -0.031282   4.068542   0.584597   0.361921
     5  O   -0.008464  -0.087722   0.001726   0.584597   8.213903  -0.086074
     6  C    0.003568  -0.106698  -0.001584   0.361921  -0.086074   5.344949
     7  C   -0.000049   0.002763   0.000409  -0.042113   0.003970   0.343973
     8  N    0.000000  -0.000019  -0.000004   0.002441   0.000334  -0.049682
     9  C    0.000000   0.000000   0.000000  -0.000010  -0.000004   0.002430
    10  C    0.000000   0.000000   0.000000  -0.000002   0.000005   0.000359
    11  C    0.000000   0.000000   0.000000   0.000000   0.000000   0.000002
    12  C    0.000000   0.000000   0.000000   0.000000   0.000000   0.000000
    13  C    0.000000   0.000000   0.000000   0.000000   0.000000   0.000002
    14  C    0.000000   0.000000   0.000000   0.000001   0.000000  -0.000076
    15  Br   0.000000   0.000000   0.000000   0.000000   0.000000   0.000000
    16  H    0.397858  -0.048432  -0.002191   0.001120   0.000409  -0.000055
    17  H    0.397740  -0.048977  -0.001832   0.000981   0.000439  -0.000052
    18  H    0.394201  -0.030062   0.003040  -0.004918   0.011782   0.000661
    19  H   -0.001345  -0.050518   0.397309   0.000789  -0.000014  -0.000142
    20  H   -0.001969  -0.049125   0.398404   0.000955  -0.000019  -0.000143
    21  H    0.003318  -0.032655   0.398144  -0.004581   0.000067  -0.000707
    22  H   -0.000136   0.000553  -0.002573  -0.023659   0.001028   0.376987
    23  H   -0.000161   0.001057  -0.002640  -0.026059   0.001374   0.377255
    24  H    0.000001   0.000036  -0.000013   0.000606   0.002088  -0.042808
    25  H   -0.000002   0.000129  -0.000018  -0.002052   0.003834  -0.035607
    26  H    0.000000  -0.000002  -0.000004  -0.000032   0.000000  -0.006327
    27  H    0.000000   0.000000   0.000000   0.000003  -0.000010   0.000065
    28  H    0.000000   0.000000   0.000000   0.000000   0.000000   0.000000
    29  H    0.000000   0.000000   0.000000   0.000000   0.000000   0.000000
    30  H    0.000000   0.000000   0.000000   0.000000   0.000000  -0.000015
               7          8          9         10         11         12
     1  C   -0.000049   0.000000   0.000000   0.000000   0.000000   0.000000
     2  N    0.002763  -0.000019   0.000000   0.000000   0.000000   0.000000
     3  C    0.000409  -0.000004   0.000000   0.000000   0.000000   0.000000
     4  C   -0.042113   0.002441  -0.000010  -0.000002   0.000000   0.000000
     5  O    0.003970   0.000334  -0.000004   0.000005   0.000000   0.000000
     6  C    0.343973  -0.049682   0.002430   0.000359   0.000002   0.000000
     7  C    4.860043   0.219691  -0.040300  -0.006820  -0.000094   0.000004
     8  N    0.219691   7.298402   0.282123  -0.055548   0.003403   0.000233
     9  C   -0.040300   0.282123   4.429905   0.561808  -0.032991  -0.024064
    10  C   -0.006820  -0.055548   0.561808   5.008031   0.523816  -0.050302
    11  C   -0.000094   0.003403  -0.032991   0.523816   4.903210   0.551266
    12  C    0.000004   0.000233  -0.024064  -0.050302   0.551266   4.831260
    13  C   -0.000060   0.002827  -0.033801  -0.034202  -0.041972   0.542548
    14  C    0.002174  -0.062275   0.556956  -0.038225  -0.034879  -0.051181
    15  Br   0.000000   0.000001   0.000309   0.002846  -0.063275   0.280016
    16  H    0.000001   0.000000   0.000000   0.000000   0.000000   0.000000
    17  H    0.000001   0.000000   0.000000   0.000000   0.000000   0.000000
    18  H   -0.000014   0.000000   0.000000   0.000000   0.000000   0.000000
    19  H   -0.000005   0.000000   0.000000   0.000000   0.000000   0.000000
    20  H   -0.000006   0.000000   0.000000   0.000000   0.000000   0.000000
    21  H    0.000368  -0.000006   0.000000   0.000000   0.000000   0.000000
    22  H   -0.034304   0.002400  -0.000034  -0.000007   0.000000   0.000000
    23  H   -0.034735  -0.002045  -0.000203  -0.000010   0.000000   0.000000
    24  H    0.407629  -0.057714   0.003054   0.001184  -0.000158  -0.000007
    25  H    0.409390  -0.044916  -0.003565   0.000398   0.000122  -0.000004
    26  H   -0.027163   0.330725  -0.035130   0.003380  -0.000082   0.000004
    27  H    0.001336  -0.003597  -0.028836   0.379601  -0.026154   0.001744
    28  H   -0.000001  -0.000067   0.001289  -0.026615   0.380430  -0.029302
    29  H    0.000001  -0.000070   0.001438   0.000168   0.002608  -0.029108
    30  H    0.000010  -0.002737  -0.035651   0.002670   0.000187   0.001951
              13         14         15         16         17         18
     1  C    0.000000   0.000000   0.000000   0.397858   0.397740   0.394201
     2  N    0.000000   0.000000   0.000000  -0.048432  -0.048977  -0.030062
     3  C    0.000000   0.000000   0.000000  -0.002191  -0.001832   0.003040
     4  C    0.000000   0.000001   0.000000   0.001120   0.000981  -0.004918
     5  O    0.000000   0.000000   0.000000   0.000409   0.000439   0.011782
     6  C    0.000002  -0.000076   0.000000  -0.000055  -0.000052   0.000661
     7  C   -0.000060   0.002174   0.000000   0.000001   0.000001  -0.000014
     8  N    0.002827  -0.062275   0.000001   0.000000   0.000000   0.000000
     9  C   -0.033801   0.556956   0.000309   0.000000   0.000000   0.000000
    10  C   -0.034202  -0.038225   0.002846   0.000000   0.000000   0.000000
    11  C   -0.041972  -0.034879  -0.063275   0.000000   0.000000   0.000000
    12  C    0.542548  -0.051181   0.280016   0.000000   0.000000   0.000000
    13  C    4.894998   0.540105  -0.063231   0.000000   0.000000   0.000000
    14  C    0.540105   4.999700   0.002935   0.000000   0.000000   0.000000
    15  Br  -0.063231   0.002935  35.004299   0.000000   0.000000   0.000000
    16  H    0.000000   0.000000   0.000000   0.543025  -0.041082  -0.021846
    17  H    0.000000   0.000000   0.000000  -0.041082   0.544833  -0.021954
    18  H    0.000000   0.000000   0.000000  -0.021846  -0.021954   0.426982
    19  H    0.000000   0.000000   0.000000  -0.000993   0.004069  -0.000057
    20  H    0.000000   0.000000   0.000000   0.004205  -0.001163  -0.000032
    21  H    0.000000   0.000000   0.000000  -0.000028  -0.000043  -0.000092
    22  H    0.000000  -0.000005   0.000000   0.000011  -0.000004  -0.000015
    23  H    0.000000  -0.000007   0.000000  -0.000004   0.000011  -0.000017
    24  H   -0.000005   0.000334   0.000000   0.000000   0.000000  -0.000001
    25  H   -0.000001  -0.000065   0.000000   0.000000   0.000000  -0.000002
    26  H    0.000051  -0.003930   0.000000   0.000000   0.000000   0.000000
    27  H    0.000221   0.002345  -0.000098   0.000000   0.000000   0.000000
    28  H    0.002543   0.000252  -0.001515   0.000000   0.000000   0.000000
    29  H    0.380118  -0.026937  -0.001455   0.000000   0.000000   0.000000
    30  H   -0.024920   0.378385  -0.000104   0.000000   0.000000   0.000000
              19         20         21         22         23         24
     1  C   -0.001345  -0.001969   0.003318  -0.000136  -0.000161   0.000001
     2  N   -0.050518  -0.049125  -0.032655   0.000553   0.001057   0.000036
     3  C    0.397309   0.398404   0.398144  -0.002573  -0.002640  -0.000013
     4  C    0.000789   0.000955  -0.004581  -0.023659  -0.026059   0.000606
     5  O   -0.000014  -0.000019   0.000067   0.001028   0.001374   0.002088
     6  C   -0.000142  -0.000143  -0.000707   0.376987   0.377255  -0.042808
     7  C   -0.000005  -0.000006   0.000368  -0.034304  -0.034735   0.407629
     8  N    0.000000   0.000000  -0.000006   0.002400  -0.002045  -0.057714
     9  C    0.000000   0.000000   0.000000  -0.000034  -0.000203   0.003054
    10  C    0.000000   0.000000   0.000000  -0.000007  -0.000010   0.001184
    11  C    0.000000   0.000000   0.000000   0.000000   0.000000  -0.000158
    12  C    0.000000   0.000000   0.000000   0.000000   0.000000  -0.000007
    13  C    0.000000   0.000000   0.000000   0.000000   0.000000  -0.000005
    14  C    0.000000   0.000000   0.000000  -0.000005  -0.000007   0.000334
    15  Br   0.000000   0.000000   0.000000   0.000000   0.000000   0.000000
    16  H   -0.000993   0.004205  -0.000028   0.000011  -0.000004   0.000000
    17  H    0.004069  -0.001163  -0.000043  -0.000004   0.000011   0.000000
    18  H   -0.000057  -0.000032  -0.000092  -0.000015  -0.000017  -0.000001
    19  H    0.540876  -0.041765  -0.026776   0.000058   0.000181   0.000001
    20  H   -0.041765   0.534864  -0.025640   0.000135   0.000088   0.000000
    21  H   -0.026776  -0.025640   0.502782  -0.001420  -0.002313  -0.000006
    22  H    0.000058   0.000135  -0.001420   0.497619  -0.029643   0.004203
    23  H    0.000181   0.000088  -0.002313  -0.029643   0.527687  -0.003945
    24  H    0.000001   0.000000  -0.000006   0.004203  -0.003945   0.540718
    25  H    0.000000   0.000001  -0.000005  -0.004078   0.003930  -0.038779
    26  H    0.000000   0.000000  -0.000005   0.000302   0.003208  -0.000168
    27  H    0.000000   0.000000   0.000000   0.000001  -0.000005   0.000195
    28  H    0.000000   0.000000   0.000000   0.000000   0.000000   0.000000
    29  H    0.000000   0.000000   0.000000   0.000000   0.000000   0.000000
    30  H    0.000000   0.000000   0.000000   0.000001  -0.000002   0.000014
              25         26         27         28         29         30
     1  C   -0.000002   0.000000   0.000000   0.000000   0.000000   0.000000
     2  N    0.000129  -0.000002   0.000000   0.000000   0.000000   0.000000
     3  C   -0.000018  -0.000004   0.000000   0.000000   0.000000   0.000000
     4  C   -0.002052  -0.000032   0.000003   0.000000   0.000000   0.000000
     5  O    0.003834   0.000000  -0.000010   0.000000   0.000000   0.000000
     6  C   -0.035607  -0.006327   0.000065   0.000000   0.000000  -0.000015
     7  C    0.409390  -0.027163   0.001336  -0.000001   0.000001   0.000010
     8  N   -0.044916   0.330725  -0.003597  -0.000067  -0.000070  -0.002737
     9  C   -0.003565  -0.035130  -0.028836   0.001289   0.001438  -0.035651
    10  C    0.000398   0.003380   0.379601  -0.026615   0.000168   0.002670
    11  C    0.000122  -0.000082  -0.026154   0.380430   0.002608   0.000187
    12  C   -0.000004   0.000004   0.001744  -0.029302  -0.029108   0.001951
    13  C   -0.000001   0.000051   0.000221   0.002543   0.380118  -0.024920
    14  C   -0.000065  -0.003930   0.002345   0.000252  -0.026937   0.378385
    15  Br   0.000000   0.000000  -0.000098  -0.001515  -0.001455  -0.000104
    16  H    0.000000   0.000000   0.000000   0.000000   0.000000   0.000000
    17  H    0.000000   0.000000   0.000000   0.000000   0.000000   0.000000
    18  H   -0.000002   0.000000   0.000000   0.000000   0.000000   0.000000
    19  H    0.000000   0.000000   0.000000   0.000000   0.000000   0.000000
    20  H    0.000001   0.000000   0.000000   0.000000   0.000000   0.000000
    21  H   -0.000005  -0.000005   0.000000   0.000000   0.000000   0.000000
    22  H   -0.004078   0.000302   0.000001   0.000000   0.000000   0.000001
    23  H    0.003930   0.003208  -0.000005   0.000000   0.000000  -0.000002
    24  H   -0.038779  -0.000168   0.000195   0.000000   0.000000   0.000014
    25  H    0.506710   0.003699  -0.000797  -0.000001   0.000000  -0.000005
    26  H    0.003699   0.364781  -0.000077   0.000002  -0.000007   0.003642
    27  H   -0.000797  -0.000077   0.448462  -0.001339   0.000009  -0.000105
    28  H   -0.000001   0.000002  -0.001339   0.442408  -0.000094   0.000010
    29  H    0.000000  -0.000007   0.000009  -0.000094   0.444841  -0.001653
    30  H   -0.000005   0.003642  -0.000105   0.000010  -0.001653   0.476753
 Mulliken charges:
               1
     1  C   -0.298807
     2  N   -0.690583
     3  C   -0.286107
     4  C    0.825055
     5  O   -0.643248
     6  C   -0.482200
     7  C   -0.066101
     8  N   -0.863904
     9  C    0.395278
    10  C   -0.272533
    11  C   -0.165438
    12  C   -0.025057
    13  C   -0.165221
    14  C   -0.265609
    15  Br  -0.160729
    16  H    0.168000
    17  H    0.167033
    18  H    0.242344
    19  H    0.178332
    20  H    0.181210
    21  H    0.189599
    22  H    0.212577
    23  H    0.187000
    24  H    0.183542
    25  H    0.201684
    26  H    0.363134
    27  H    0.227037
    28  H    0.232001
    29  H    0.230140
    30  H    0.201570
 Sum of Mulliken charges =   0.00000
 Mulliken charges with hydrogens summed into heavy atoms:
               1
     1  C    0.278571
     2  N   -0.690583
     3  C    0.263034
     4  C    0.825055
     5  O   -0.643248
     6  C   -0.082623
     7  C    0.319125
     8  N   -0.500770
     9  C    0.395278
    10  C   -0.045496
    11  C    0.066563
    12  C   -0.025057
    13  C    0.064919
    14  C   -0.064039
    15  Br  -0.160729
 DipInt: DoE/N= T F RetVal/Mat= T F Init=T NMatP=  1 IDeriv=0 Min/MaxMlt=  0  4
 Entering OneElI...
 OneElI was handed   235740558 working-precision words.
 Multipole integrals L=0 to 4 MinM= 0 MaxM= 0.
 Requested accuracy = 0.1000D-12
 PrtBox:  NBox=     1 Levels=  1 BoxLen=   38.93 SMaxX=       23.66
          Shift=           13.842304            3.802002            1.901805
 Box      1 Number                   0 centers from      1 to     98:
 ShPair: Thresh= 1.00D-13 NBox=     1 BxSize= 3.89D+01 RnKept= 2.28D+01
         NSMCal=                 4851 NSMKep=                3587
 PrsmSu:  NPrtUS=   1 ThrOK=F IAlg=1 NPAlg=1 LenDen=           0.
 Prism:   IPart=     0 DynPar=F LinDyn=F Incr=          35.
 PRISM was handed   235420655 working-precision words and  3587 shell-pairs
 IPart=  0 NShTot=        3587 NBatch=         134 AvBLen=        26.8
 PrSmSu:  NxtVal=             36.
 Electronic moments (au):
       -138.00000000         -2.17674721          1.56587205         -0.15747568
      -8868.50570434       -542.85915079       -106.63483679         -9.24975657
         -0.59326276         -2.17217555      13269.07794372       -275.41889091
         -3.89378563       1347.19212213       2986.76696701        184.92698702
        253.44623955        -21.22302471         28.08669773        249.37243003
    -931072.17976858      -5926.58773997       -449.97301196       4275.99142635
        487.87842077      -2150.81918408         41.49645746         22.34883880
        -20.03698275     -31210.98228987      -7175.05264561       -533.67453521
      -1543.18977638         -7.74270349         80.44875332
 Electronic spatial extent (au):  <R**2>=           9517.9997
 DipInt: DoE/N= F T RetVal/Mat= T F Init=T NMatP=  1 IDeriv=0 Min/MaxMlt=  0  4
 Nuclear    moments (au):
        138.00000000          0.00000000          0.00000000          0.00000000
       8799.65575929        469.08147368         27.59874165          0.00000000
         -0.00021625          0.00005983     -13425.94679832        283.87584776
          1.46068170      -1262.76993665      -2912.44212514       -179.52169067
       -210.16510801         12.58578183        -31.07799257       -249.31546750
     906301.47756485       4133.95768317         68.19223931      -4781.48748645
       -567.53793732       1950.34954278        -72.36508732        -26.83824102
         22.37613028      26366.50638731       2465.11115931        142.04776602
       1521.50714036         -0.92859322       -125.66881178
 Total      moments (au):
          0.00000000         -2.17674721          1.56587205         -0.15747568
        -68.84994506        -73.77767711        -79.03609513         -9.24975657
         -0.59347901         -2.17211572       -156.86885459          8.45695684
         -2.43310393         84.42218548         74.32484187          5.40529635
         43.28113154         -8.63724288         -2.99129483          0.05696252
     -24770.70220373      -1792.63005679       -381.78077265       -505.49606010
        -79.65951655       -200.46964130        -30.86862986         -4.48940222
          2.33914754      -4844.47590257      -4709.94148630       -391.62676919
        -21.68263602         -8.67129671        -45.22005847
 Traceless Quadrup. (au):
          5.03796071          0.11022866         -5.14818937         -9.24975657
         -0.59347901         -2.17211572
 Charge=              0.0000 electrons
 Dipole moment (field-independent basis, Debye):
    X=             -5.5327    Y=              3.9800    Z=             -0.4003  Tot=              6.8273
 Quadrupole moment (field-independent basis, Debye-Ang):
   XX=            -92.6055   YY=            -99.2335   ZZ=           -106.3062
   XY=            -12.4412   XZ=             -0.7982   YZ=             -2.9216
 Traceless Quadrupole moment (field-independent basis, Debye-Ang):
   XX=              6.7762   YY=              0.1483   ZZ=             -6.9245
   XY=            -12.4412   XZ=             -0.7982   YZ=             -2.9216
 Octapole moment (field-independent basis, Debye-Ang**2):
  XXX=           -111.6532  YYY=              6.0193  ZZZ=             -1.7318  XYY=             60.0885
  XXY=             52.9016  XXZ=              3.8473  XZZ=             30.8058  YZZ=             -6.1477
  YYZ=             -2.1291  XYZ=              0.0405
 Hexadecapole moment (field-independent basis, Debye-Ang**3):
 XXXX=          -9329.8336 YYYY=           -675.1904 ZZZZ=           -143.7969 XXXY=           -190.3940
 XXXZ=            -30.0036 YYYX=            -75.5065 YYYZ=            -11.6266 ZZZX=             -1.6909
 ZZZY=              0.8810 XXYY=          -1824.6618 XXZZ=          -1773.9897 YYZZ=           -147.5054
 XXYZ=             -8.1667 YYXZ=             -3.2660 ZZXY=            -17.0320
 N-N= 1.182779395226D+03 E-N=-9.939814427471D+03  KE= 3.181496737882D+03
 Entering OneElI...
 OneElI was handed   235784523 working-precision words.
 Calculate electrostatic properties
    NBasis =   254  MinDer = 0  MaxDer = 0
    NGrid  =    30  NMatD  =   1
 Requested accuracy = 0.1000D-12
 PrtBox:  NBox=     1 Levels=  1 BoxLen=   32.44 SMaxX=       23.66
          Shift=           13.842304            3.802002            1.901805
 Box      1 Number                   0 centers from      1 to     98:
 ShPair: Thresh= 1.00D-13 NBox=     1 BxSize= 3.24D+01 RnKept= 1.80D+01
         NSMCal=                 4851 NSMKep=                3073
 PrsmSu:  NPrtUS=   1 ThrOK=F IAlg=1 NPAlg=1 LenDen=           0.
 Prism:   IPart=     0 DynPar=F LinDyn=F Incr=         512.
 PRISM was handed   235501994 working-precision words and  3073 shell-pairs
 IPart=  0 NShTot=       92190 NBatch=        3159 AvBLen=        29.2
 PrSmSu:  NxtVal=            513.
 --------------------------------------------------------
       Center         ----      EFG at Nuclei      ----
                      3XX-RR        3YY-RR        3ZZ-RR
 --------------------------------------------------------
     1   Atom       -0.099848      0.006791      0.093057
     2   Atom       -0.531673     -0.534679      1.066353
     3   Atom        0.098814     -0.216158      0.117344
     4   Atom        0.180669      0.359225     -0.539894
     5   Atom        1.507398     -0.822662     -0.684736
     6   Atom       -0.016775     -0.004718      0.021493
     7   Atom       -0.125371     -0.036734      0.162105
     8   Atom       -0.597114     -0.470348      1.067462
     9   Atom        0.047019      0.307273     -0.354292
    10   Atom        0.118715      0.080429     -0.199144
    11   Atom        0.198196      0.150696     -0.348892
    12   Atom       -0.306420      0.298557      0.007862
    13   Atom        0.201752      0.140981     -0.342733
    14   Atom        0.130889      0.056099     -0.186988
    15   Atom       -6.353186      2.914529      3.438657
    16   Atom        0.000155      0.142358     -0.142513
    17   Atom        0.001611      0.124329     -0.125940
    18   Atom        0.080177     -0.229057      0.148881
    19   Atom        0.034998      0.098118     -0.133116
    20   Atom       -0.001758      0.127794     -0.126036
    21   Atom       -0.131033     -0.026285      0.157317
    22   Atom        0.136875      0.038044     -0.174919
    23   Atom        0.128535     -0.049759     -0.078775
    24   Atom        0.129469      0.045183     -0.174652
    25   Atom        0.130901     -0.051459     -0.079442
    26   Atom        0.127872     -0.250747      0.122876
    27   Atom       -0.049183     -0.119553      0.168736
    28   Atom        0.098516     -0.259587      0.161072
    29   Atom       -0.051433     -0.108029      0.159462
    30   Atom        0.092118     -0.260301      0.168182
 --------------------------------------------------------
                        XY            XZ            YZ
 --------------------------------------------------------
     1   Atom       -0.241040     -0.024720     -0.008835
     2   Atom        0.021027      0.002133     -0.156917
     3   Atom        0.111702      0.010210     -0.033101
     4   Atom        0.054667      0.002113      0.081013
     5   Atom        0.639254      0.039676     -0.014297
     6   Atom       -0.034159      0.000300      0.013195
     7   Atom       -0.149229     -0.018935     -0.039416
     8   Atom       -0.034956     -0.187831      0.384773
     9   Atom        0.058276     -0.000769     -0.082078
    10   Atom       -0.003484     -0.008221     -0.030920
    11   Atom       -0.017690     -0.018725     -0.054419
    12   Atom        0.131995     -0.002725     -0.037203
    13   Atom       -0.007522     -0.021376     -0.055247
    14   Atom       -0.001149     -0.018292     -0.031453
    15   Atom        1.962310      0.148682     -0.014563
    16   Atom       -0.000448      0.204619     -0.017718
    17   Atom        0.039750     -0.200066      0.071860
    18   Atom        0.145282      0.014513     -0.037886
    19   Atom        0.066380     -0.181028      0.096415
    20   Atom        0.028814      0.206918     -0.035947
    21   Atom       -0.208766     -0.037959     -0.032132
    22   Atom        0.014795      0.026585     -0.188310
    23   Atom        0.031438     -0.035104      0.214815
    24   Atom        0.017453      0.030993     -0.179118
    25   Atom        0.028698     -0.028916      0.217176
    26   Atom        0.099492     -0.063443      0.240407
    27   Atom       -0.219332      0.030123      0.037738
    28   Atom        0.134120     -0.012125      0.040900
    29   Atom       -0.221258      0.033511      0.039789
    30   Atom        0.132575     -0.012848      0.041255
 --------------------------------------------------------


 ---------------------------------------------------------------------------------
              Nuclear Quadrupole Coupling Constant in Principal Axis System
 ---------------------------------------------------------------------------------

       Atom             a.u.   MegaHertz   Gauss  10(-4) cm-1        Axes

              Baa    -0.5638     2.708     0.966     0.903 -0.5494  0.8316  0.0808
     2 N(14)  Bbb    -0.5178     2.487     0.887     0.829  0.8355  0.5469  0.0530
              Bcc     1.0816    -5.195    -1.854    -1.733  0.0001 -0.0966  0.9953
 
              Baa    -0.6191     2.973     1.061     0.992  0.9822 -0.1273  0.1384
     8 N(14)  Bbb    -0.5598     2.689     0.959     0.897  0.1548  0.9653 -0.2104
              Bcc     1.1789    -5.662    -2.020    -1.889 -0.1068  0.2281  0.9678
 
              Baa    -6.7537   496.695   177.233   165.680  0.9799 -0.1989 -0.0146
    15 Br(79) Bbb     3.3111  -243.511   -86.891   -81.226  0.1959  0.9736 -0.1172
              Bcc     3.4426  -253.185   -90.343   -84.453  0.0375  0.1120  0.9930
 

 ---------------------------------------------------------------------------------

 No NMR shielding tensors so no spin-rotation constants.
 Leave Link  601 at Thu Jan 16 22:40:07 2014, MaxMem=   235929600 cpu:         0.4
 FitSet:  NAtFit=    30 NAtPot=    30 NAtFrz=     0 MDM=    34 TotChg=   0.00000
 Merz-Kollman atomic radii used.
 Atom Element Radius
    1     6    1.50
    2     7    1.50
    3     6    1.50
    4     6    1.50
    5     8    1.40
    6     6    1.50
    7     6    1.50
    8     7    1.50
    9     6    1.50
   10     6    1.50
   11     6    1.50
   12     6    1.50
   13     6    1.50
   14     6    1.50
   15    35    2.30
   16     1    1.20
   17     1    1.20
   18     1    1.20
   19     1    1.20
   20     1    1.20
   21     1    1.20
   22     1    1.20
   23     1    1.20
   24     1    1.20
   25     1    1.20
   26     1    1.20
   27     1    1.20
   28     1    1.20
   29     1    1.20
   30     1    1.20
 Generate VDW surfaces: Layer= 5 Dens= 2 Start= 1.400 Inc= 0.179

 **********************************************************************

            Electrostatic Properties Using The SCF Density

 **********************************************************************

       Atomic Center    1 is at  -6.692601 -1.019212 -0.091749
       Atomic Center    2 is at  -5.613342 -0.046404  0.007279
       Atomic Center    3 is at  -6.034334  1.337293  0.137303
       Atomic Center    4 is at  -4.312579 -0.487171 -0.040466
       Atomic Center    5 is at  -4.032045 -1.678050 -0.148273
       Atomic Center    6 is at  -3.202303  0.564674  0.048601
       Atomic Center    7 is at  -1.822319 -0.083857 -0.053973
       Atomic Center    8 is at  -0.789150  0.930497  0.110190
       Atomic Center    9 is at   0.564496  0.607465  0.049951
       Atomic Center   10 is at   1.032879 -0.713351  0.174686
       Atomic Center   11 is at   2.400455 -0.988339  0.160056
       Atomic Center   12 is at   3.317391  0.046711  0.011266
       Atomic Center   13 is at   2.877274  1.363496 -0.122945
       Atomic Center   14 is at   1.515255  1.637125 -0.102398
       Atomic Center   15 is at   5.194201 -0.335318 -0.016352
       Atomic Center   16 is at  -7.325032 -0.983648  0.805130
       Atomic Center   17 is at  -7.321798 -0.806368 -0.966194
       Atomic Center   18 is at  -6.254557 -2.011203 -0.189906
       Atomic Center   19 is at  -6.601872  1.657038 -0.748083
       Atomic Center   20 is at  -6.685124  1.456832  1.014152
       Atomic Center   21 is at  -5.182239  2.004374  0.256552
       Atomic Center   22 is at  -3.271795  1.114147  0.996389
       Atomic Center   23 is at  -3.327982  1.307277 -0.752583
       Atomic Center   24 is at  -1.733497 -0.628087 -1.006392
       Atomic Center   25 is at  -1.725269 -0.829929  0.739777
       Atomic Center   26 is at  -1.007298  1.814676 -0.333537
       Atomic Center   27 is at   0.335033 -1.536135  0.282195
       Atomic Center   28 is at   2.746328 -2.011933  0.257774
       Atomic Center   29 is at   3.593799  2.169176 -0.242417
       Atomic Center   30 is at   1.176372  2.666644 -0.198644
      ESP Fit Center   31 is at  -5.974359 -1.019212  1.881606
      ESP Fit Center   32 is at  -6.131851 -2.247083  1.516944
      ESP Fit Center   33 is at  -5.557031 -1.748998  1.516944
      ESP Fit Center   34 is at  -7.938907 -2.669589  0.272912
      ESP Fit Center   35 is at  -8.450932 -2.107925 -0.456410
      ESP Fit Center   36 is at  -7.938907 -2.669589 -0.456410
      ESP Fit Center   37 is at  -7.601928 -2.594212 -1.141749
      ESP Fit Center   38 is at  -5.557031 -1.748998 -1.700442
      ESP Fit Center   39 is at  -5.974359 -1.019212 -2.065103
      ESP Fit Center   40 is at  -6.333480 -1.641228 -2.065103
      ESP Fit Center   41 is at  -5.613342 -0.046404  2.107279
      ESP Fit Center   42 is at  -4.895100 -0.046404  1.980634
      ESP Fit Center   43 is at  -5.254221  0.575612  1.980634
      ESP Fit Center   44 is at  -6.331584 -0.046404  1.980634
      ESP Fit Center   45 is at  -5.972463 -0.668420  1.980634
      ESP Fit Center   46 is at  -5.254221 -0.668420  1.980634
      ESP Fit Center   47 is at  -5.254221  0.575612 -1.966075
      ESP Fit Center   48 is at  -5.972463  0.575612 -1.966075
      ESP Fit Center   49 is at  -5.254221 -0.668420 -1.966075
      ESP Fit Center   50 is at  -5.613342 -0.046404 -2.092721
      ESP Fit Center   51 is at  -5.316092  1.337293  2.110658
      ESP Fit Center   52 is at  -6.224435  3.145983  1.187303
      ESP Fit Center   53 is at  -6.600295  3.326441  0.501964
      ESP Fit Center   54 is at  -7.280640  2.987669  0.501964
      ESP Fit Center   55 is at  -6.600295  3.326441 -0.227358
      ESP Fit Center   56 is at  -8.067217  0.957281 -0.227358
      ESP Fit Center   57 is at  -4.898765  2.067079 -1.471390
      ESP Fit Center   58 is at  -5.316092  1.337293 -1.836051
      ESP Fit Center   59 is at  -4.312579 -0.487171  2.059534
      ESP Fit Center   60 is at  -3.594337 -0.487171  1.932889
      ESP Fit Center   61 is at  -4.671700  0.134845  1.932889
      ESP Fit Center   62 is at  -4.671700 -1.109187  1.932889
      ESP Fit Center   63 is at  -3.953458 -1.109187  1.932889
      ESP Fit Center   64 is at  -5.196545 -1.507323  1.568227
      ESP Fit Center   65 is at  -3.177009 -1.216957  1.568227
      ESP Fit Center   66 is at  -3.594337 -0.487171 -2.013820
      ESP Fit Center   67 is at  -3.953458  0.134845 -2.013820
      ESP Fit Center   68 is at  -4.671700  0.134845 -2.013820
      ESP Fit Center   69 is at  -5.030821 -0.487171 -2.013820
      ESP Fit Center   70 is at  -4.671700 -1.109187 -2.013820
      ESP Fit Center   71 is at  -4.312579 -0.487171 -2.140466
      ESP Fit Center   72 is at  -4.032045 -1.678050  1.811727
      ESP Fit Center   73 is at  -3.281985 -1.678050  1.662531
      ESP Fit Center   74 is at  -4.782104 -1.678050  1.662531
      ESP Fit Center   75 is at  -4.407075 -2.327621  1.662531
      ESP Fit Center   76 is at  -3.657015 -2.327621  1.662531
      ESP Fit Center   77 is at  -5.232295 -2.371015  1.237656
      ESP Fit Center   78 is at  -4.725009 -2.878300  1.237656
      ESP Fit Center   79 is at  -4.032045 -3.063979  1.237656
      ESP Fit Center   80 is at  -3.339080 -2.878300  1.237656
      ESP Fit Center   81 is at  -2.831795 -2.371015  1.237656
      ESP Fit Center   82 is at  -4.937447 -3.246252  0.601787
      ESP Fit Center   83 is at  -4.221325 -3.478934  0.601787
      ESP Fit Center   84 is at  -3.472476 -3.400227  0.601787
      ESP Fit Center   85 is at  -2.820381 -3.023740  0.601787
      ESP Fit Center   86 is at  -2.377793 -2.414570  0.601787
      ESP Fit Center   87 is at  -4.568424 -3.563228 -0.148273
      ESP Fit Center   88 is at  -3.851199 -3.629689 -0.148273
      ESP Fit Center   89 is at  -3.158398 -3.432570 -0.148273
      ESP Fit Center   90 is at  -2.583587 -2.998494 -0.148273
      ESP Fit Center   91 is at  -2.204399 -2.386084 -0.148273
      ESP Fit Center   92 is at  -4.937447 -3.246252 -0.898332
      ESP Fit Center   93 is at  -4.221325 -3.478934 -0.898332
      ESP Fit Center   94 is at  -3.472476 -3.400227 -0.898332
      ESP Fit Center   95 is at  -2.820381 -3.023740 -0.898332
      ESP Fit Center   96 is at  -2.377793 -2.414570 -0.898332
      ESP Fit Center   97 is at  -5.232295 -2.371015 -1.534202
      ESP Fit Center   98 is at  -4.725009 -2.878300 -1.534202
      ESP Fit Center   99 is at  -4.032045 -3.063979 -1.534202
      ESP Fit Center  100 is at  -3.339080 -2.878300 -1.534202
      ESP Fit Center  101 is at  -2.831795 -2.371015 -1.534202
      ESP Fit Center  102 is at  -3.281985 -1.678050 -1.959077
      ESP Fit Center  103 is at  -4.782104 -1.678050 -1.959077
      ESP Fit Center  104 is at  -4.407075 -2.327621 -1.959077
      ESP Fit Center  105 is at  -3.657015 -2.327621 -1.959077
      ESP Fit Center  106 is at  -4.032045 -1.678050 -2.108273
      ESP Fit Center  107 is at  -0.789150  0.930497  2.210190
      ESP Fit Center  108 is at  -0.070908  0.930497  2.083545
      ESP Fit Center  109 is at  -0.430029  1.552513  2.083545
      ESP Fit Center  110 is at  -1.148271  1.552513  2.083545
      ESP Fit Center  111 is at  -1.507392  0.930497  2.083545
      ESP Fit Center  112 is at  -1.148271  0.308481  2.083545
      ESP Fit Center  113 is at  -0.430029  0.308481  2.083545
      ESP Fit Center  114 is at  -0.228400  2.158367  1.718883
      ESP Fit Center  115 is at  -0.981254  2.266611  1.718883
      ESP Fit Center  116 is at  -1.673116  1.950649  1.718883
      ESP Fit Center  117 is at  -0.227155  2.660139  1.160190
      ESP Fit Center  118 is at  -0.979251  2.739188  1.160190
      ESP Fit Center  119 is at  -1.698477  2.505497  1.160190
      ESP Fit Center  120 is at  -0.430029  0.308481 -1.863164
      ESP Fit Center  121 is at  -0.789150  0.930497 -1.989810
      ESP Fit Center  122 is at   0.564496  0.607465  2.149951
      ESP Fit Center  123 is at   1.282738  0.607465  2.023306
      ESP Fit Center  124 is at   0.923617  1.229481  2.023306
      ESP Fit Center  125 is at   0.205375  1.229481  2.023306
      ESP Fit Center  126 is at   0.205375 -0.014551  2.023306
      ESP Fit Center  127 is at   0.372392  1.943580  1.658644
      ESP Fit Center  128 is at   1.282738  0.607465 -1.923403
      ESP Fit Center  129 is at   0.205375  1.229481 -1.923403
      ESP Fit Center  130 is at  -0.153746  0.607465 -1.923403
      ESP Fit Center  131 is at   0.205375 -0.014551 -1.923403
      ESP Fit Center  132 is at   0.923617 -0.014551 -1.923403
      ESP Fit Center  133 is at   0.564496  0.607465 -2.050049
      ESP Fit Center  134 is at   1.032879 -0.713351  2.274686
      ESP Fit Center  135 is at   1.751121 -0.713351  2.148041
      ESP Fit Center  136 is at   1.392000 -0.091335  2.148041
      ESP Fit Center  137 is at   0.673758 -0.091335  2.148041
      ESP Fit Center  138 is at   0.314637 -0.713351  2.148041
      ESP Fit Center  139 is at   0.673758 -1.335367  2.148041
      ESP Fit Center  140 is at   1.392000 -1.335367  2.148041
      ESP Fit Center  141 is at  -0.262296 -0.333053  1.783379
      ESP Fit Center  142 is at   0.148913 -1.733502 -1.434007
      ESP Fit Center  143 is at   0.840775 -2.049465 -1.434007
      ESP Fit Center  144 is at   1.392000 -0.091335 -1.798668
      ESP Fit Center  145 is at   0.314637 -0.713351 -1.798668
      ESP Fit Center  146 is at   0.673758 -1.335367 -1.798668
      ESP Fit Center  147 is at   1.392000 -1.335367 -1.798668
      ESP Fit Center  148 is at   1.032879 -0.713351 -1.925314
      ESP Fit Center  149 is at   2.400455 -0.988339  2.260056
      ESP Fit Center  150 is at   2.759576 -0.366323  2.133411
      ESP Fit Center  151 is at   2.041334 -0.366323  2.133411
      ESP Fit Center  152 is at   2.041334 -1.610355  2.133411
      ESP Fit Center  153 is at   2.759576 -1.610355  2.133411
      ESP Fit Center  154 is at   1.516489 -2.008490  1.768749
      ESP Fit Center  155 is at   1.491128 -2.563339 -0.889944
      ESP Fit Center  156 is at   1.516489 -2.008490 -1.448637
      ESP Fit Center  157 is at   2.208351 -2.324453 -1.448637
      ESP Fit Center  158 is at   2.961205 -2.216209 -1.448637
      ESP Fit Center  159 is at   2.041334 -0.366323 -1.813298
      ESP Fit Center  160 is at   1.682213 -0.988339 -1.813298
      ESP Fit Center  161 is at   2.041334 -1.610355 -1.813298
      ESP Fit Center  162 is at   2.759576 -1.610355 -1.813298
      ESP Fit Center  163 is at   2.400455 -0.988339 -1.939944
      ESP Fit Center  164 is at   2.599149  0.046711  1.984621
      ESP Fit Center  165 is at   2.599149  0.046711 -1.962088
      ESP Fit Center  166 is at   2.877274  1.363496  1.977055
      ESP Fit Center  167 is at   3.236395  1.985512  1.850410
      ESP Fit Center  168 is at   2.518153  1.985512  1.850410
      ESP Fit Center  169 is at   2.518153  0.741480  1.850410
      ESP Fit Center  170 is at   3.438024  2.591367  1.485748
      ESP Fit Center  171 is at   2.685170  2.699611  1.485748
      ESP Fit Center  172 is at   2.687173  3.172187  0.927055
      ESP Fit Center  173 is at   2.685170  2.699611 -1.731638
      ESP Fit Center  174 is at   1.993308  0.343345 -1.731638
      ESP Fit Center  175 is at   3.236395  1.985512 -2.096299
      ESP Fit Center  176 is at   2.518153  1.985512 -2.096299
      ESP Fit Center  177 is at   2.159032  1.363496 -2.096299
      ESP Fit Center  178 is at   2.518153  0.741480 -2.096299
      ESP Fit Center  179 is at   2.877274  1.363496 -2.222945
      ESP Fit Center  180 is at   1.515255  1.637125  1.997602
      ESP Fit Center  181 is at   2.233497  1.637125  1.870957
      ESP Fit Center  182 is at   1.874376  2.259141  1.870957
      ESP Fit Center  183 is at   1.156134  2.259141  1.870957
      ESP Fit Center  184 is at   0.797013  1.637125  1.870957
      ESP Fit Center  185 is at   1.874376  1.015109  1.870957
      ESP Fit Center  186 is at   2.076005  2.864996  1.506295
      ESP Fit Center  187 is at   1.323151  2.973240  1.506295
      ESP Fit Center  188 is at   0.631289  2.657277  1.506295
      ESP Fit Center  189 is at   2.076005  2.864996 -1.711091
      ESP Fit Center  190 is at   0.220080  2.017423 -1.711091
      ESP Fit Center  191 is at   1.874376  2.259141 -2.075752
      ESP Fit Center  192 is at   1.156134  2.259141 -2.075752
      ESP Fit Center  193 is at   0.797013  1.637125 -2.075752
      ESP Fit Center  194 is at   1.156134  1.015109 -2.075752
      ESP Fit Center  195 is at   1.874376  1.015109 -2.075752
      ESP Fit Center  196 is at   1.515255  1.637125 -2.202398
      ESP Fit Center  197 is at   5.194201 -0.335318  3.203648
      ESP Fit Center  198 is at   5.910719 -0.335318  3.122916
      ESP Fit Center  199 is at   5.552460  0.285205  3.122916
      ESP Fit Center  200 is at   4.835942  0.285205  3.122916
      ESP Fit Center  201 is at   4.477684 -0.335318  3.122916
      ESP Fit Center  202 is at   4.835942 -0.955840  3.122916
      ESP Fit Center  203 is at   5.552460 -0.955840  3.122916
      ESP Fit Center  204 is at   6.591307 -0.335318  2.884768
      ESP Fit Center  205 is at   6.404130  0.363235  2.884768
      ESP Fit Center  206 is at   5.892754  0.874611  2.884768
      ESP Fit Center  207 is at   5.194201  1.061788  2.884768
      ESP Fit Center  208 is at   4.495648  0.874611  2.884768
      ESP Fit Center  209 is at   3.984272  0.363235  2.884768
      ESP Fit Center  210 is at   3.797095 -0.335318  2.884768
      ESP Fit Center  211 is at   3.984272 -1.033871  2.884768
      ESP Fit Center  212 is at   4.495648 -1.545247  2.884768
      ESP Fit Center  213 is at   5.194201 -1.732423  2.884768
      ESP Fit Center  214 is at   5.892754 -1.545247  2.884768
      ESP Fit Center  215 is at   6.404130 -1.033871  2.884768
      ESP Fit Center  216 is at   7.201838 -0.335318  2.501145
      ESP Fit Center  217 is at   7.066267  0.389925  2.501145
      ESP Fit Center  218 is at   6.677863  1.017219  2.501145
      ESP Fit Center  219 is at   6.089082  1.461845  2.501145
      ESP Fit Center  220 is at   5.379443  1.663755  2.501145
      ESP Fit Center  221 is at   4.644785  1.595679  2.501145
      ESP Fit Center  222 is at   3.984329  1.266811  2.501145
      ESP Fit Center  223 is at   3.487274  0.721567  2.501145
      ESP Fit Center  224 is at   3.220748  0.033585  2.501145
      ESP Fit Center  225 is at   3.220748 -0.704220  2.501145
      ESP Fit Center  226 is at   3.487274 -1.392202  2.501145
      ESP Fit Center  227 is at   3.984329 -1.937447  2.501145
      ESP Fit Center  228 is at   4.644785 -2.266315  2.501145
      ESP Fit Center  229 is at   5.379443 -2.334391  2.501145
      ESP Fit Center  230 is at   6.089082 -2.132481  2.501145
      ESP Fit Center  231 is at   6.677863 -1.687854  2.501145
      ESP Fit Center  232 is at   7.066267 -1.060560  2.501145
      ESP Fit Center  233 is at   7.711699 -0.335318  1.991285
      ESP Fit Center  234 is at   7.599853  0.406728  1.991285
      ESP Fit Center  235 is at   7.274255  1.082839  1.991285
      ESP Fit Center  236 is at   6.763835  1.632941  1.991285
      ESP Fit Center  237 is at   6.113946  2.008155  1.991285
      ESP Fit Center  238 is at   5.382334  2.175140  1.991285
      ESP Fit Center  239 is at   4.634005  2.119061  1.991285
      ESP Fit Center  240 is at   3.935452  1.844899  1.991285
      ESP Fit Center  241 is at   3.348745  1.377015  1.991285
      ESP Fit Center  242 is at   2.926014  0.756983  1.991285
      ESP Fit Center  243 is at   3.348745 -2.047651  1.991285
      ESP Fit Center  244 is at   3.935452 -2.515534  1.991285
      ESP Fit Center  245 is at   4.634005 -2.789696  1.991285
      ESP Fit Center  246 is at   5.382334 -2.845776  1.991285
      ESP Fit Center  247 is at   6.113946 -2.678790  1.991285
      ESP Fit Center  248 is at   6.763835 -2.303576  1.991285
      ESP Fit Center  249 is at   7.274255 -1.753474  1.991285
      ESP Fit Center  250 is at   7.599853 -1.077363  1.991285
      ESP Fit Center  251 is at   8.095321 -0.335318  1.380754
      ESP Fit Center  252 is at   8.004177  0.386161  1.380754
      ESP Fit Center  253 is at   7.736472  1.062307  1.380754
      ESP Fit Center  254 is at   7.309026  1.650635  1.380754
      ESP Fit Center  255 is at   6.748699  2.114179  1.380754
      ESP Fit Center  256 is at   6.090696  2.423811  1.380754
      ESP Fit Center  257 is at   5.376364  2.560077  1.380754
      ESP Fit Center  258 is at   4.650585  2.514415  1.380754
      ESP Fit Center  259 is at   3.958964 -2.960329  1.380754
      ESP Fit Center  260 is at   4.650585 -3.185051  1.380754
      ESP Fit Center  261 is at   5.376364 -3.230713  1.380754
      ESP Fit Center  262 is at   6.090696 -3.094447  1.380754
      ESP Fit Center  263 is at   6.748699 -2.784814  1.380754
      ESP Fit Center  264 is at   7.309026 -2.321271  1.380754
      ESP Fit Center  265 is at   7.736472 -1.732943  1.380754
      ESP Fit Center  266 is at   8.004177 -1.056797  1.380754
      ESP Fit Center  267 is at   8.333469 -0.335318  0.700166
      ESP Fit Center  268 is at   8.248850  0.388647  0.700166
      ESP Fit Center  269 is at   7.999553  1.073583  0.700166
      ESP Fit Center  270 is at   7.599020  1.682565  0.700166
      ESP Fit Center  271 is at   7.068842  2.182762  0.700166
      ESP Fit Center  272 is at   6.437602  2.547209  0.700166
      ESP Fit Center  273 is at   5.739329  2.756258  0.700166
      ESP Fit Center  274 is at   5.011669  2.798639  0.700166
      ESP Fit Center  275 is at   4.293849 -3.342703  0.700166
      ESP Fit Center  276 is at   5.011669 -3.469274  0.700166
      ESP Fit Center  277 is at   5.739329 -3.426893  0.700166
      ESP Fit Center  278 is at   6.437602 -3.217844  0.700166
      ESP Fit Center  279 is at   7.068842 -2.853397  0.700166
      ESP Fit Center  280 is at   7.599020 -2.353200  0.700166
      ESP Fit Center  281 is at   7.999553 -1.744219  0.700166
      ESP Fit Center  282 is at   8.248850 -1.059283  0.700166
      ESP Fit Center  283 is at   8.414201 -0.335318 -0.016352
      ESP Fit Center  284 is at   8.333469  0.381200 -0.016352
      ESP Fit Center  285 is at   8.095321  1.061788 -0.016352
      ESP Fit Center  286 is at   7.711699  1.672319 -0.016352
      ESP Fit Center  287 is at   7.201838  2.182180 -0.016352
      ESP Fit Center  288 is at   6.591307  2.565802 -0.016352
      ESP Fit Center  289 is at   5.910719  2.803950 -0.016352
      ESP Fit Center  290 is at   5.194201  2.884682 -0.016352
      ESP Fit Center  291 is at   4.477684 -3.474586 -0.016352
      ESP Fit Center  292 is at   5.194201 -3.555318 -0.016352
      ESP Fit Center  293 is at   5.910719 -3.474586 -0.016352
      ESP Fit Center  294 is at   6.591307 -3.236437 -0.016352
      ESP Fit Center  295 is at   7.201838 -2.852815 -0.016352
      ESP Fit Center  296 is at   7.711699 -2.342955 -0.016352
      ESP Fit Center  297 is at   8.095321 -1.732423 -0.016352
      ESP Fit Center  298 is at   8.333469 -1.051835 -0.016352
      ESP Fit Center  299 is at   8.333469 -0.335318 -0.732869
      ESP Fit Center  300 is at   8.248850  0.388647 -0.732869
      ESP Fit Center  301 is at   7.999553  1.073583 -0.732869
      ESP Fit Center  302 is at   7.599020  1.682565 -0.732869
      ESP Fit Center  303 is at   7.068842  2.182762 -0.732869
      ESP Fit Center  304 is at   6.437602  2.547209 -0.732869
      ESP Fit Center  305 is at   5.739329  2.756258 -0.732869
      ESP Fit Center  306 is at   3.624567 -3.054003 -0.732869
      ESP Fit Center  307 is at   4.293849 -3.342703 -0.732869
      ESP Fit Center  308 is at   5.011669 -3.469274 -0.732869
      ESP Fit Center  309 is at   5.739329 -3.426893 -0.732869
      ESP Fit Center  310 is at   6.437602 -3.217844 -0.732869
      ESP Fit Center  311 is at   7.068842 -2.853397 -0.732869
      ESP Fit Center  312 is at   7.599020 -2.353200 -0.732869
      ESP Fit Center  313 is at   7.999553 -1.744219 -0.732869
      ESP Fit Center  314 is at   8.248850 -1.059283 -0.732869
      ESP Fit Center  315 is at   8.095321 -0.335318 -1.413458
      ESP Fit Center  316 is at   8.004177  0.386161 -1.413458
      ESP Fit Center  317 is at   7.736472  1.062307 -1.413458
      ESP Fit Center  318 is at   7.309026  1.650635 -1.413458
      ESP Fit Center  319 is at   6.748699  2.114179 -1.413458
      ESP Fit Center  320 is at   6.090696  2.423811 -1.413458
      ESP Fit Center  321 is at   5.376364  2.560077 -1.413458
      ESP Fit Center  322 is at   3.344958 -2.570669 -1.413458
      ESP Fit Center  323 is at   3.958964 -2.960329 -1.413458
      ESP Fit Center  324 is at   4.650585 -3.185051 -1.413458
      ESP Fit Center  325 is at   5.376364 -3.230713 -1.413458
      ESP Fit Center  326 is at   6.090696 -3.094447 -1.413458
      ESP Fit Center  327 is at   6.748699 -2.784814 -1.413458
      ESP Fit Center  328 is at   7.309026 -2.321271 -1.413458
      ESP Fit Center  329 is at   7.736472 -1.732943 -1.413458
      ESP Fit Center  330 is at   8.004177 -1.056797 -1.413458
      ESP Fit Center  331 is at   7.711699 -0.335318 -2.023989
      ESP Fit Center  332 is at   7.599853  0.406728 -2.023989
      ESP Fit Center  333 is at   7.274255  1.082839 -2.023989
      ESP Fit Center  334 is at   6.763835  1.632941 -2.023989
      ESP Fit Center  335 is at   6.113946  2.008155 -2.023989
      ESP Fit Center  336 is at   5.382334  2.175140 -2.023989
      ESP Fit Center  337 is at   4.634005  2.119061 -2.023989
      ESP Fit Center  338 is at   3.935452  1.844899 -2.023989
      ESP Fit Center  339 is at   2.704822  0.039896 -2.023989
      ESP Fit Center  340 is at   2.704822 -0.710531 -2.023989
      ESP Fit Center  341 is at   2.926014 -1.427619 -2.023989
      ESP Fit Center  342 is at   3.348745 -2.047651 -2.023989
      ESP Fit Center  343 is at   3.935452 -2.515534 -2.023989
      ESP Fit Center  344 is at   4.634005 -2.789696 -2.023989
      ESP Fit Center  345 is at   5.382334 -2.845776 -2.023989
      ESP Fit Center  346 is at   6.113946 -2.678790 -2.023989
      ESP Fit Center  347 is at   6.763835 -2.303576 -2.023989
      ESP Fit Center  348 is at   7.274255 -1.753474 -2.023989
      ESP Fit Center  349 is at   7.599853 -1.077363 -2.023989
      ESP Fit Center  350 is at   7.201838 -0.335318 -2.533849
      ESP Fit Center  351 is at   7.066267  0.389925 -2.533849
      ESP Fit Center  352 is at   6.677863  1.017219 -2.533849
      ESP Fit Center  353 is at   6.089082  1.461845 -2.533849
      ESP Fit Center  354 is at   5.379443  1.663755 -2.533849
      ESP Fit Center  355 is at   4.644785  1.595679 -2.533849
      ESP Fit Center  356 is at   3.984329  1.266811 -2.533849
      ESP Fit Center  357 is at   3.487274  0.721567 -2.533849
      ESP Fit Center  358 is at   3.220748  0.033585 -2.533849
      ESP Fit Center  359 is at   3.220748 -0.704220 -2.533849
      ESP Fit Center  360 is at   3.487274 -1.392202 -2.533849
      ESP Fit Center  361 is at   3.984329 -1.937447 -2.533849
      ESP Fit Center  362 is at   4.644785 -2.266315 -2.533849
      ESP Fit Center  363 is at   5.379443 -2.334391 -2.533849
      ESP Fit Center  364 is at   6.089082 -2.132481 -2.533849
      ESP Fit Center  365 is at   6.677863 -1.687854 -2.533849
      ESP Fit Center  366 is at   7.066267 -1.060560 -2.533849
      ESP Fit Center  367 is at   6.591307 -0.335318 -2.917472
      ESP Fit Center  368 is at   6.404130  0.363235 -2.917472
      ESP Fit Center  369 is at   5.892754  0.874611 -2.917472
      ESP Fit Center  370 is at   5.194201  1.061788 -2.917472
      ESP Fit Center  371 is at   4.495648  0.874611 -2.917472
      ESP Fit Center  372 is at   3.984272  0.363235 -2.917472
      ESP Fit Center  373 is at   3.797095 -0.335318 -2.917472
      ESP Fit Center  374 is at   3.984272 -1.033871 -2.917472
      ESP Fit Center  375 is at   4.495648 -1.545247 -2.917472
      ESP Fit Center  376 is at   5.194201 -1.732423 -2.917472
      ESP Fit Center  377 is at   5.892754 -1.545247 -2.917472
      ESP Fit Center  378 is at   6.404130 -1.033871 -2.917472
      ESP Fit Center  379 is at   5.910719 -0.335318 -3.155620
      ESP Fit Center  380 is at   5.552460  0.285205 -3.155620
      ESP Fit Center  381 is at   4.835942  0.285205 -3.155620
      ESP Fit Center  382 is at   4.477684 -0.335318 -3.155620
      ESP Fit Center  383 is at   4.835942 -0.955840 -3.155620
      ESP Fit Center  384 is at   5.552460 -0.955840 -3.155620
      ESP Fit Center  385 is at   5.194201 -0.335318 -3.236352
      ESP Fit Center  386 is at  -7.325032 -0.983648  2.485130
      ESP Fit Center  387 is at  -6.596107 -0.983648  2.318758
      ESP Fit Center  388 is at  -6.960570 -0.352381  2.318758
      ESP Fit Center  389 is at  -7.689494 -0.352381  2.318758
      ESP Fit Center  390 is at  -8.053957 -0.983648  2.318758
      ESP Fit Center  391 is at  -7.689494 -1.614915  2.318758
      ESP Fit Center  392 is at  -6.960570 -1.614915  2.318758
      ESP Fit Center  393 is at  -7.730919  0.265543  1.852593
      ESP Fit Center  394 is at  -8.387657 -0.211606  1.852593
      ESP Fit Center  395 is at  -8.638509 -0.983648  1.852593
      ESP Fit Center  396 is at  -8.387657 -1.755691  1.852593
      ESP Fit Center  397 is at  -7.730919 -2.232839  1.852593
      ESP Fit Center  398 is at  -6.919145 -2.232839  1.852593
      ESP Fit Center  399 is at  -6.262407 -1.755691  1.852593
      ESP Fit Center  400 is at  -8.551002  0.102466  1.178965
      ESP Fit Center  401 is at  -8.915317 -0.591678  1.178965
      ESP Fit Center  402 is at  -8.915317 -1.375618  1.178965
      ESP Fit Center  403 is at  -8.551002 -2.069763  1.178965
      ESP Fit Center  404 is at  -7.905832 -2.515092  1.178965
      ESP Fit Center  405 is at  -8.551002  0.102466  0.431295
      ESP Fit Center  406 is at  -8.915317 -0.591678  0.431295
      ESP Fit Center  407 is at  -8.915317 -1.375618  0.431295
      ESP Fit Center  408 is at  -8.551002 -2.069763  0.431295
      ESP Fit Center  409 is at  -8.547768  0.279746 -0.592359
      ESP Fit Center  410 is at  -8.912083 -0.414398 -0.592359
      ESP Fit Center  411 is at  -8.912083 -1.198338 -0.592359
      ESP Fit Center  412 is at  -8.547768 -1.892483 -0.592359
      ESP Fit Center  413 is at  -7.902598  0.725075 -1.340029
      ESP Fit Center  414 is at  -8.547768  0.279746 -1.340029
      ESP Fit Center  415 is at  -8.912083 -0.414398 -1.340029
      ESP Fit Center  416 is at  -8.912083 -1.198338 -1.340029
      ESP Fit Center  417 is at  -8.547768 -1.892483 -1.340029
      ESP Fit Center  418 is at  -7.902598 -2.337812 -1.340029
      ESP Fit Center  419 is at  -6.259173 -0.034326 -2.013657
      ESP Fit Center  420 is at  -6.915911  0.442823 -2.013657
      ESP Fit Center  421 is at  -7.727685  0.442823 -2.013657
      ESP Fit Center  422 is at  -8.384423 -0.034326 -2.013657
      ESP Fit Center  423 is at  -8.635275 -0.806368 -2.013657
      ESP Fit Center  424 is at  -8.384423 -1.578411 -2.013657
      ESP Fit Center  425 is at  -7.727685 -2.055559 -2.013657
      ESP Fit Center  426 is at  -6.915911 -2.055559 -2.013657
      ESP Fit Center  427 is at  -6.592873 -0.806368 -2.479822
      ESP Fit Center  428 is at  -6.957336 -0.175101 -2.479822
      ESP Fit Center  429 is at  -7.686260 -0.175101 -2.479822
      ESP Fit Center  430 is at  -8.050723 -0.806368 -2.479822
      ESP Fit Center  431 is at  -7.686260 -1.437635 -2.479822
      ESP Fit Center  432 is at  -6.957336 -1.437635 -2.479822
      ESP Fit Center  433 is at  -7.321798 -0.806368 -2.646194
      ESP Fit Center  434 is at  -6.619019 -2.642470  1.323722
      ESP Fit Center  435 is at  -5.890094 -2.642470  1.323722
      ESP Fit Center  436 is at  -6.660443 -3.260394  0.857557
      ESP Fit Center  437 is at  -5.848670 -3.260394  0.857557
      ESP Fit Center  438 is at  -7.480527 -3.097318  0.183929
      ESP Fit Center  439 is at  -6.835357 -3.542647  0.183929
      ESP Fit Center  440 is at  -6.057132 -3.637140  0.183929
      ESP Fit Center  441 is at  -5.324136 -3.359151  0.183929
      ESP Fit Center  442 is at  -7.480527 -3.097318 -0.563741
      ESP Fit Center  443 is at  -6.835357 -3.542647 -0.563741
      ESP Fit Center  444 is at  -6.057132 -3.637140 -0.563741
      ESP Fit Center  445 is at  -5.324136 -3.359151 -0.563741
      ESP Fit Center  446 is at  -7.317182 -2.783245 -1.237369
      ESP Fit Center  447 is at  -6.660443 -3.260394 -1.237369
      ESP Fit Center  448 is at  -5.848670 -3.260394 -1.237369
      ESP Fit Center  449 is at  -5.525632 -2.011203 -1.703534
      ESP Fit Center  450 is at  -6.619019 -2.642470 -1.703534
      ESP Fit Center  451 is at  -5.890094 -2.642470 -1.703534
      ESP Fit Center  452 is at  -7.182672  3.188481 -0.374248
      ESP Fit Center  453 is at  -7.827842  2.743152 -0.374248
      ESP Fit Center  454 is at  -8.192157  2.049008 -0.374248
      ESP Fit Center  455 is at  -8.192157  1.265068 -0.374248
      ESP Fit Center  456 is at  -5.671451  3.004986 -1.121918
      ESP Fit Center  457 is at  -6.404447  3.282975 -1.121918
      ESP Fit Center  458 is at  -7.182672  3.188481 -1.121918
      ESP Fit Center  459 is at  -7.827842  2.743152 -1.121918
      ESP Fit Center  460 is at  -8.192157  2.049008 -1.121918
      ESP Fit Center  461 is at  -8.192157  1.265068 -1.121918
      ESP Fit Center  462 is at  -5.539247  2.429080 -1.795546
      ESP Fit Center  463 is at  -6.195985  2.906229 -1.795546
      ESP Fit Center  464 is at  -7.007759  2.906229 -1.795546
[...]
 3529 Fit      -0.008039
 3530 Fit      -0.008069
 3531 Fit      -0.008053
 3532 Fit      -0.007935
 3533 Fit      -0.007669
 3534 Fit      -0.007240
 3535 Fit      -0.006693
 3536 Fit      -0.006165
 3537 Fit      -0.005913
 3538 Fit      -0.006313
 3539 Fit      -0.007749
 3540 Fit      -0.010359
 3541 Fit      -0.013634
 3542 Fit      -0.006831
 3543 Fit      -0.005802
 3544 Fit      -0.005879
 3545 Fit      -0.006513
 3546 Fit      -0.007265
 3547 Fit      -0.007892
 3548 Fit      -0.008303
 3549 Fit      -0.008494
 3550 Fit      -0.008509
 3551 Fit      -0.008411
 3552 Fit      -0.008266
 3553 Fit      -0.008131
 3554 Fit      -0.008044
 3555 Fit      -0.007564
 3556 Fit      -0.007600
 3557 Fit      -0.007653
 3558 Fit      -0.007673
 3559 Fit      -0.007600
 3560 Fit      -0.007376
 3561 Fit      -0.006955
 3562 Fit      -0.006316
 3563 Fit      -0.005492
 3564 Fit      -0.004600
 3565 Fit      -0.003892
 3566 Fit      -0.003800
 3567 Fit      -0.004905
 3568 Fit      -0.003169
 3569 Fit      -0.003279
 3570 Fit      -0.004272
 3571 Fit      -0.005500
 3572 Fit      -0.006596
 3573 Fit      -0.007418
 3574 Fit      -0.007942
 3575 Fit      -0.008202
 3576 Fit      -0.008253
 3577 Fit      -0.008161
 3578 Fit      -0.007995
 3579 Fit      -0.007815
 3580 Fit      -0.007668
 3581 Fit      -0.007582
 3582 Fit      -0.007164
 3583 Fit      -0.007210
 3584 Fit      -0.007280
 3585 Fit      -0.007324
 3586 Fit      -0.007284
 3587 Fit      -0.007096
 3588 Fit      -0.006698
 3589 Fit      -0.006041
 3590 Fit      -0.005095
 3591 Fit      -0.003876
 3592 Fit      -0.002486
 3593 Fit      -0.001190
 3594 Fit      -0.000496
 3595 Fit      -0.002437
 3596 Fit      -0.004276
 3597 Fit      -0.005764
 3598 Fit      -0.006841
 3599 Fit      -0.007540
 3600 Fit      -0.007919
 3601 Fit      -0.008047
 3602 Fit      -0.007995
 3603 Fit      -0.007831
 3604 Fit      -0.007621
 3605 Fit      -0.007418
 3606 Fit      -0.007261
 3607 Fit      -0.007176
 3608 Fit      -0.006856
 3609 Fit      -0.006908
 3610 Fit      -0.006988
 3611 Fit      -0.007044
 3612 Fit      -0.007010
 3613 Fit      -0.006816
 3614 Fit      -0.006388
 3615 Fit      -0.005654
 3616 Fit      -0.004549
 3617 Fit      -0.003027
 3618 Fit      -0.001093
 3619 Fit       0.001119
 3620 Fit      -0.001945
 3621 Fit      -0.004140
 3622 Fit      -0.005750
 3623 Fit      -0.006843
 3624 Fit      -0.007510
 3625 Fit      -0.007839
 3626 Fit      -0.007913
 3627 Fit      -0.007810
 3628 Fit      -0.007604
 3629 Fit      -0.007359
 3630 Fit      -0.007130
 3631 Fit      -0.006959
 3632 Fit      -0.006866
 3633 Fit      -0.006667
 3634 Fit      -0.006718
 3635 Fit      -0.006798
 3636 Fit      -0.006853
 3637 Fit      -0.006821
 3638 Fit      -0.006627
 3639 Fit      -0.006191
 3640 Fit      -0.005431
 3641 Fit      -0.004260
 3642 Fit      -0.002587
 3643 Fit      -0.000332
 3644 Fit       0.002526
 3645 Fit      -0.002501
 3646 Fit      -0.004576
 3647 Fit      -0.006049
 3648 Fit      -0.007020
 3649 Fit      -0.007585
 3650 Fit      -0.007834
 3651 Fit      -0.007848
 3652 Fit      -0.007700
 3653 Fit      -0.007463
 3654 Fit      -0.007197
 3655 Fit      -0.006957
 3656 Fit      -0.006778
 3657 Fit      -0.006681
 3658 Fit      -0.006614
 3659 Fit      -0.006656
 3660 Fit      -0.006725
 3661 Fit      -0.006767
 3662 Fit      -0.006717
 3663 Fit      -0.006499
 3664 Fit      -0.006029
 3665 Fit      -0.005217
 3666 Fit      -0.003965
 3667 Fit      -0.002162
 3668 Fit       0.000307
 3669 Fit       0.003524
 3670 Fit      -0.000821
 3671 Fit      -0.003120
 3672 Fit      -0.004948
 3673 Fit      -0.006277
 3674 Fit      -0.007161
 3675 Fit      -0.007672
 3676 Fit      -0.007885
 3677 Fit      -0.007873
 3678 Fit      -0.007707
 3679 Fit      -0.007455
 3680 Fit      -0.007179
 3681 Fit      -0.006929
 3682 Fit      -0.006741
 3683 Fit      -0.006636
 3684 Fit      -0.006698
 3685 Fit      -0.006723
 3686 Fit      -0.006770
 3687 Fit      -0.006785
 3688 Fit      -0.006697
 3689 Fit      -0.006428
 3690 Fit      -0.005893
 3691 Fit      -0.004998
 3692 Fit      -0.003645
 3693 Fit      -0.001731
 3694 Fit       0.000837
 3695 Fit       0.004062
 3696 Fit      -0.002267
 3697 Fit      -0.003828
 3698 Fit      -0.005296
 3699 Fit      -0.006465
 3700 Fit      -0.007288
 3701 Fit      -0.007783
 3702 Fit      -0.007999
 3703 Fit      -0.007995
 3704 Fit      -0.007835
 3705 Fit      -0.007585
 3706 Fit      -0.007306
 3707 Fit      -0.007048
 3708 Fit      -0.006851
 3709 Fit      -0.006734
 3710 Fit      -0.006904
 3711 Fit      -0.006903
 3712 Fit      -0.006919
 3713 Fit      -0.006894
 3714 Fit      -0.006764
 3715 Fit      -0.006451
 3716 Fit      -0.005877
 3717 Fit      -0.004962
 3718 Fit      -0.003628
 3719 Fit      -0.001820
 3720 Fit       0.000458
 3721 Fit       0.003036
 3722 Fit      -0.004639
 3723 Fit      -0.004507
 3724 Fit      -0.005138
 3725 Fit      -0.006038
 3726 Fit      -0.006895
 3727 Fit      -0.007562
 3728 Fit      -0.007989
 3729 Fit      -0.008186
 3730 Fit      -0.008185
 3731 Fit      -0.008039
 3732 Fit      -0.007804
 3733 Fit      -0.007536
 3734 Fit      -0.007284
 3735 Fit      -0.007085
 3736 Fit      -0.006958
 3737 Fit      -0.007205
 3738 Fit      -0.007172
 3739 Fit      -0.007144
 3740 Fit      -0.007061
 3741 Fit      -0.006851
 3742 Fit      -0.006438
 3743 Fit      -0.005746
 3744 Fit      -0.004717
 3745 Fit      -0.003324
 3746 Fit      -0.001619
 3747 Fit       0.000186
 3748 Fit       0.001610
 3749 Fit      -0.008863
 3750 Fit      -0.007223
 3751 Fit      -0.006622
 3752 Fit      -0.006736
 3753 Fit      -0.007196
 3754 Fit      -0.007717
 3755 Fit      -0.008135
 3756 Fit      -0.008379
 3757 Fit      -0.008440
 3758 Fit      -0.008347
 3759 Fit      -0.008147
 3760 Fit      -0.007895
 3761 Fit      -0.007642
 3762 Fit      -0.007431
 3763 Fit      -0.007285
 3764 Fit      -0.007565
 3765 Fit      -0.007491
 3766 Fit      -0.007406
 3767 Fit      -0.007244
 3768 Fit      -0.006928
 3769 Fit      -0.006385
 3770 Fit      -0.005568
 3771 Fit      -0.004475
 3772 Fit      -0.003208
 3773 Fit      -0.002027
 3774 Fit      -0.001398
 3775 Fit      -0.001873
 3776 Fit      -0.011958
 3777 Fit      -0.012451
 3778 Fit      -0.011903
 3779 Fit      -0.010505
 3780 Fit      -0.009093
 3781 Fit      -0.008210
 3782 Fit      -0.007923
 3783 Fit      -0.008037
 3784 Fit      -0.008310
 3785 Fit      -0.008560
 3786 Fit      -0.008691
 3787 Fit      -0.008675
 3788 Fit      -0.008534
 3789 Fit      -0.008314
 3790 Fit      -0.008068
 3791 Fit      -0.007845
 3792 Fit      -0.007676
 3793 Fit      -0.007940
 3794 Fit      -0.007819
 3795 Fit      -0.007670
 3796 Fit      -0.007423
 3797 Fit      -0.007011
 3798 Fit      -0.006391
 3799 Fit      -0.005577
 3800 Fit      -0.004689
 3801 Fit      -0.003987
 3802 Fit      -0.003843
 3803 Fit      -0.004568
 3804 Fit      -0.006117
 3805 Fit      -0.007948
 3806 Fit      -0.009434
 3807 Fit      -0.010402
 3808 Fit      -0.010829
 3809 Fit      -0.010602
 3810 Fit      -0.009914
 3811 Fit      -0.009217
 3812 Fit      -0.008811
 3813 Fit      -0.008721
 3814 Fit      -0.008809
 3815 Fit      -0.008922
 3816 Fit      -0.008958
 3817 Fit      -0.008883
 3818 Fit      -0.008713
 3819 Fit      -0.008493
 3820 Fit      -0.008271
 3821 Fit      -0.008084
 3822 Fit      -0.008290
 3823 Fit      -0.008114
 3824 Fit      -0.007888
 3825 Fit      -0.007546
 3826 Fit      -0.007048
 3827 Fit      -0.006429
 3828 Fit      -0.005845
 3829 Fit      -0.005568
 3830 Fit      -0.005870
 3831 Fit      -0.006792
 3832 Fit      -0.008011
 3833 Fit      -0.009088
 3834 Fit      -0.009770
 3835 Fit      -0.009965
 3836 Fit      -0.009759
 3837 Fit      -0.009431
 3838 Fit      -0.009220
 3839 Fit      -0.009169
 3840 Fit      -0.009187
 3841 Fit      -0.009170
 3842 Fit      -0.009068
 3843 Fit      -0.008889
 3844 Fit      -0.008676
 3845 Fit      -0.008471
 3846 Fit      -0.008580
 3847 Fit      -0.008336
 3848 Fit      -0.008018
 3849 Fit      -0.007591
 3850 Fit      -0.007132
 3851 Fit      -0.006867
 3852 Fit      -0.007065
 3853 Fit      -0.007758
 3854 Fit      -0.008625
 3855 Fit      -0.009278
 3856 Fit      -0.009542
 3857 Fit      -0.009511
 3858 Fit      -0.009416
 3859 Fit      -0.009369
 3860 Fit      -0.009323
 3861 Fit      -0.009211
 3862 Fit      -0.009024
 3863 Fit      -0.008803
 3864 Fit      -0.008786
 3865 Fit      -0.008474
 3866 Fit      -0.008108
 3867 Fit      -0.007830
 3868 Fit      -0.007935
 3869 Fit      -0.008474
 3870 Fit      -0.009058
 3871 Fit      -0.009353
 3872 Fit      -0.009408
 3873 Fit      -0.009375
 3874 Fit      -0.009259
 3875 Fit      -0.009050
 3876 Fit      -0.008906
 3877 Fit      -0.008571
 3878 Fit      -0.008552
 3879 Fit      -0.008984
 3880 Fit      -0.009244
 3881 Fit      -0.009183
 3882 Fit      -0.008957
 3883 Fit       0.008403
 3884 Fit       0.006623
 3885 Fit       0.010258
 3886 Fit       0.011316
 3887 Fit       0.009641
 3888 Fit       0.007185
 3889 Fit       0.005303
 3890 Fit       0.013538
 3891 Fit       0.011444
 3892 Fit       0.009413
 3893 Fit       0.007184
 3894 Fit       0.004622
 3895 Fit       0.002134
 3896 Fit       0.015026
 3897 Fit       0.012688
 3898 Fit       0.010880
 3899 Fit       0.009174
 3900 Fit       0.007293
 3901 Fit       0.005040
 3902 Fit       0.002265
 3903 Fit       0.014728
 3904 Fit       0.012661
 3905 Fit       0.011079
 3906 Fit       0.009631
 3907 Fit       0.008095
 3908 Fit       0.006308
 3909 Fit       0.004109
 3910 Fit       0.016144
 3911 Fit       0.013638
 3912 Fit       0.011902
 3913 Fit       0.010483
 3914 Fit       0.009109
 3915 Fit       0.007597
 3916 Fit       0.012070
 3917 Fit       0.010702
 3918 Fit       0.013877
 3919 Fit       0.012224
 3920 Fit       0.015730
 3921 Fit       0.013502
 3922 Fit       0.011885
 3923 Fit       0.010535
 3924 Fit       0.009244
 3925 Fit       0.014158
 3926 Fit       0.012391
 3927 Fit       0.010931
 3928 Fit       0.009547
 3929 Fit       0.008075
 3930 Fit       0.006379
 3931 Fit       0.014028
 3932 Fit       0.012192
 3933 Fit       0.010574
 3934 Fit       0.008939
 3935 Fit       0.007094
 3936 Fit       0.004859
 3937 Fit       0.012509
 3938 Fit       0.013624
 3939 Fit       0.012572
 3940 Fit       0.010900
 3941 Fit       0.009019
 3942 Fit       0.006810
 3943 Fit       0.004174
 3944 Fit       0.001461
 3945 Fit       0.006026
 3946 Fit       0.009494
 3947 Fit       0.010530
 3948 Fit       0.009090
 3949 Fit       0.006675
 3950 Fit       0.004697
 3951 Fit       0.007799
 3952 Fit      -0.011277
 3953 Fit      -0.001540
 3954 Fit      -0.006871
 3955 Fit      -0.014742
 3956 Fit      -0.002255
 3957 Fit      -0.007351
 3958 Fit      -0.015026
 3959 Fit       0.000583
 3960 Fit      -0.003411
 3961 Fit      -0.009176
 3962 Fit      -0.018246
 3963 Fit       0.000575
 3964 Fit      -0.003390
 3965 Fit      -0.009137
 3966 Fit      -0.018177
 3967 Fit       0.001383
 3968 Fit      -0.002241
 3969 Fit      -0.007280
 3970 Fit      -0.014899
 3971 Fit      -0.001647
 3972 Fit      -0.006864
 3973 Fit      -0.014680
 3974 Fit      -0.004478
 3975 Fit      -0.011521
 3976 Fit       0.017423
 3977 Fit       0.016908
 3978 Fit       0.016680
 3979 Fit       0.018457
 3980 Fit       0.017511
 3981 Fit       0.016860
 3982 Fit       0.016428
 3983 Fit       0.016242
 3984 Fit       0.016456
 3985 Fit       0.020093
 3986 Fit       0.018548
 3987 Fit       0.017551
 3988 Fit       0.016876
 3989 Fit       0.016406
 3990 Fit       0.016120
 3991 Fit       0.016113
 3992 Fit       0.019028
 3993 Fit       0.017763
 3994 Fit       0.016936
 3995 Fit       0.016378
 3996 Fit       0.016012
 3997 Fit       0.015900
 3998 Fit       0.018420
 3999 Fit       0.017644
 4000 Fit       0.016779
 4001 Fit       0.016144
 4002 Fit       0.015700
 4003 Fit       0.015450
 4004 Fit       0.015522
 4005 Fit       0.016251
 4006 Fit       0.015791
 4007 Fit       0.015161
 4008 Fit       0.014247
 4009 Fit       0.013725
 4010 Fit       0.014991
 4011 Fit       0.013902
 4012 Fit       0.013990
 4013 Fit       0.014835
 4014 Fit       0.014779
 4015 Fit       0.014315
 4016 Fit       0.013385
 4017 Fit       0.012746
 4018 Fit       0.016280
 4019 Fit       0.016127
 4020 Fit       0.015740
 4021 Fit       0.015375
 4022 Fit       0.015032
 4023 Fit       0.014663
 4024 Fit       0.013983
 4025 Fit       0.012302
 4026 Fit       0.010957
 4027 Fit       0.016889
 4028 Fit       0.016275
 4029 Fit       0.015839
 4030 Fit       0.015525
 4031 Fit       0.015342
 4032 Fit       0.015369
 4033 Fit       0.017189
 4034 Fit       0.016536
 4035 Fit       0.016082
 4036 Fit       0.015790
 4037 Fit       0.015702
 4038 Fit       0.016003
 4039 Fit       0.017460
 4040 Fit       0.016722
 4041 Fit       0.016235
 4042 Fit       0.015994
 4043 Fit       0.016103
 4044 Fit       0.016795
 4045 Fit       0.016448
 4046 Fit       0.016484
 4047 Fit       0.019834
 4048 Fit       0.020576
 4049 Fit       0.019869
 4050 Fit       0.022579
 4051 Fit       0.021320
 4052 Fit       0.020478
 4053 Fit       0.024667
 4054 Fit       0.022641
 4055 Fit       0.021313
 4056 Fit       0.026536
 4057 Fit       0.023647
 4058 Fit       0.021921
 4059 Fit       0.027048
 4060 Fit       0.023865
 4061 Fit       0.022102
 4062 Fit       0.024774
 4063 Fit       0.009055
 4064 Fit       0.005316
 4065 Fit       0.008778
 4066 Fit       0.012196
 4067 Fit       0.011977
 4068 Fit       0.008938
 4069 Fit       0.006091
 4070 Fit      -0.000360
 4071 Fit       0.003442
 4072 Fit       0.009371
 4073 Fit       0.013739
 4074 Fit       0.015941
 4075 Fit       0.015719
 4076 Fit       0.013058
 4077 Fit       0.009333
 4078 Fit       0.006118
 4079 Fit       0.004026
 4080 Fit       0.001251
 4081 Fit       0.003568
 4082 Fit       0.010671
 4083 Fit       0.015252
 4084 Fit       0.018285
 4085 Fit       0.014236
 4086 Fit       0.018230
 4087 Fit       0.017752
 4088 Fit       0.021113
 4089 Fit       0.028057
 4090 Fit       0.027389
 4091 Fit       0.027042
 4092 Fit       0.027588
 4093 Fit       0.025581
 4094 Fit       0.025174
 4095 Fit       0.024910
 4096 Fit       0.023615
 4097 Fit       0.023093
 4098 Fit       0.022793
 4099 Fit       0.020717
 4100 Fit       0.021572
 4101 Fit       0.021175
 4102 Fit       0.020492
 4103 Fit       0.018887
 4104 Fit       0.015598
 4105 Fit       0.016114
 4106 Fit       0.018501
 4107 Fit       0.018436
 4108 Fit       0.016387
 4109 Fit       0.013447
 4110 Fit       0.013234
 4111 Fit       0.015924
 4112 Fit      -0.015757
 4113 Fit      -0.014407
 4114 Fit      -0.008752
 4115 Fit      -0.006284
 4116 Fit      -0.014433
 4117 Fit      -0.010021
 4118 Fit      -0.006700
 4119 Fit      -0.005727
 4120 Fit      -0.002348
 4121 Fit       0.001571
 4122 Fit       0.007464
 4123 Fit       0.011545
 4124 Fit       0.011227
 4125 Fit       0.006119
 4126 Fit      -0.001858
 4127 Fit      -0.006717
 4128 Fit      -0.006321
 4129 Fit      -0.004449
 4130 Fit      -0.003519
 4131 Fit       0.000375
 4132 Fit       0.004286
 4133 Fit       0.006126
 4134 Fit       0.002346
 4135 Fit      -0.001646
 4136 Fit      -0.001555
 4137 Fit       0.001820
 4138 Fit      -0.001782
 4139 Fit      -0.004278
 4140 Fit      -0.003762
 4141 Fit       0.000441
 4142 Fit       0.000211
 4143 Fit      -0.002410
 4144 Fit      -0.002919
 4145 Fit      -0.001584
 4146 Fit      -0.005604
 4147 Fit      -0.004913
 4148 Fit      -0.003285
 4149 Fit      -0.004157
 4150 Fit      -0.011386
 4151 Fit      -0.006879
 4152 Fit      -0.003143
 4153 Fit      -0.010103
 4154 Fit      -0.011238
 4155 Fit      -0.014371
 4156 Fit       0.018229
 4157 Fit       0.020053
 4158 Fit       0.022909
 4159 Fit       0.022352
 4160 Fit       0.023412
 4161 Fit       0.025784
 4162 Fit       0.024527
 4163 Fit       0.025574
 4164 Fit       0.027870
 4165 Fit       0.025014
 4166 Fit       0.026671
 4167 Fit       0.029240
 4168 Fit       0.023928
 4169 Fit       0.026205
 4170 Fit       0.018783
 4171 Fit       0.022534
 4172 Fit       0.025150
 4173 Fit       0.016278
 4174 Fit       0.020308
 4175 Fit      -0.002442
 4176 Fit      -0.002630
 4177 Fit      -0.002195
 4178 Fit      -0.001110
 4179 Fit      -0.005170
 4180 Fit      -0.002312
 4181 Fit      -0.000271
 4182 Fit       0.001510
 4183 Fit      -0.006123
 4184 Fit      -0.002217
 4185 Fit       0.000408
 4186 Fit      -0.015444
 4187 Fit      -0.007525
 4188 Fit      -0.003050
 4189 Fit      -0.000221
 4190 Fit      -0.009500
 4191 Fit      -0.004873
 4192 Fit      -0.002149
 4193 Fit      -0.005890
 4194 Fit      -0.003899
 4195 Fit      -0.000586
 4196 Fit       0.001477
 4197 Fit       0.000718
 4198 Fit       0.001745
 4199 Fit       0.000950
 4200 Fit       0.001206
 4201 Fit       0.000536
 4202 Fit      -0.000217
 4203 Fit      -0.000556
 4204 Fit      -0.002651
 4205 Fit       0.001729
 4206 Fit       0.004927
 4207 Fit       0.004407
 4208 Fit       0.006420
 4209 Fit       0.008641
 4210 Fit       0.004989
 4211 Fit       0.007091
 4212 Fit       0.009488
 4213 Fit       0.005042
 4214 Fit       0.007032
 4215 Fit       0.009208
 4216 Fit       0.005197
 4217 Fit       0.002621
 4218 Fit       0.004585
 4219 Fit       0.006586
 4220 Fit       0.008243
 4221 Fit       0.009067
 4222 Fit       0.006790
 4223 Fit       0.008068
 4224 Fit       0.009759
 4225 Fit       0.011728
 4226 Fit       0.014002
 4227 Fit       0.009259
 4228 Fit       0.009830
 4229 Fit       0.011361
 4230 Fit       0.013514
 4231 Fit       0.016440
 4232 Fit       0.020798
 4233 Fit       0.010331
 4234 Fit       0.010809
 4235 Fit       0.012396
 4236 Fit       0.014757
 4237 Fit       0.018157
 4238 Fit       0.023612
 4239 Fit       0.009894
 4240 Fit       0.011035
 4241 Fit       0.013001
 4242 Fit       0.015755
 4243 Fit       0.019769
 4244 Fit       0.009609
 4245 Fit       0.012088
 4246 Fit       0.015315
 4247 Fit       0.019860
 4248 Fit       0.007505
 4249 Fit       0.010973
 4250 Fit       0.014701
 -----------------------------------------------------------------
 Leave Link  602 at Thu Jan 16 22:40:09 2014, MaxMem=   235929600 cpu:         1.8

 Test job not archived.
 1\1\GINC-G54\SP\RHF\Gen\C11H15Br1N2O1\KOLAR\16-Jan-2014\0\\# hf/gen po
 p=mk iop(6/33=2,6/41=5,6/42=2)\\na resp\\0,1\C,0,6.692601,-1.019212,0.
 091749\N,0,5.613342,-0.046404,-0.007279\C,0,6.034334,1.337293,-0.13730
 3\C,0,4.312579,-0.487171,0.040466\O,0,4.032045,-1.67805,0.148273\C,0,3
 .202303,0.564674,-0.048601\C,0,1.822319,-0.083857,0.053973\N,0,0.78915
 ,0.930497,-0.11019\C,0,-0.564496,0.607465,-0.049951\C,0,-1.032879,-0.7
 13351,-0.174686\C,0,-2.400455,-0.988339,-0.160056\C,0,-3.317391,0.0467
 11,-0.011266\C,0,-2.877274,1.363496,0.122945\C,0,-1.515255,1.637125,0.
 102398\Br,0,-5.194201,-0.335318,0.016352\H,0,7.325032,-0.983648,-0.805
 13\H,0,7.321798,-0.806368,0.966194\H,0,6.254557,-2.011203,0.189906\H,0
 ,6.601872,1.657038,0.748083\H,0,6.685124,1.456832,-1.014152\H,0,5.1822
 39,2.004374,-0.256552\H,0,3.271795,1.114147,-0.996389\H,0,3.327982,1.3
 07277,0.752583\H,0,1.733497,-0.628087,1.006392\H,0,1.725269,-0.829929,
 -0.739777\H,0,1.007298,1.814676,0.333537\H,0,-0.335033,-1.536135,-0.28
 2195\H,0,-2.746328,-2.011933,-0.257774\H,0,-3.593799,2.169176,0.242417
 \H,0,-1.176372,2.666644,0.198644\\Version=AM64L-G09RevD.01\State=1-A\H
 F=-3178.6326019\RMSD=6.161e-09\Dipole=2.1767471,1.5658721,0.1574757\Qu
 adrupole=5.03796,0.1102294,-5.1481894,9.2497568,-0.5934791,2.1721157\P
 G=C01 [X(C11H15Br1N2O1)]\\@


 CONFIDENCE IS WHAT YOU FEEL BEFORE YOU FULLY
 COMPREHEND THE SITUATION.
 Job cpu time:       0 days  0 hours  3 minutes 22.4 seconds.
 File lengths (MBytes):  RWF=     37 Int=      0 D2E=      0 Chk=      3 Scr=      1
 Normal termination of Gaussian 09 at Thu Jan 16 22:40:09 2014.
202.02user 0.38system 3:22.96elapsed 99%CPU (0avgtext+0avgdata 603632maxresident)k
8inputs+170984outputs (0major+172905minor)pagefaults 0swaps
