Linux g42 2.6.38.6-client #1 SMP Tue Jun 12 11:27:21 CEST 2012 x86_64 GNU/Linux
Fri Jan 17 11:54:32 CET 2014

 Entering Gaussian System, Link 0=/usr/local/programs/common/gaussian/gaussian09_d01/arch/amd64-pgi_10.4.0-acml/g09/g09
 Initial command:
 /usr/local/programs/common/gaussian/gaussian09_d01/arch/amd64-pgi_10.4.0-acml/g09/l1.exe "/scratch/kolar/g09_20136/Gau-20656.inp" -scrdir="/scratch/kolar/g09_20136/"
 Entering Link 1 = /usr/local/programs/common/gaussian/gaussian09_d01/arch/amd64-pgi_10.4.0-acml/g09/l1.exe PID=     20658.
  
 Copyright (c) 1988,1990,1992,1993,1995,1998,2003,2009,2013,
            Gaussian, Inc.  All Rights Reserved.
  
 This is part of the Gaussian(R) 09 program.  It is based on
 the Gaussian(R) 03 system (copyright 2003, Gaussian, Inc.),
 the Gaussian(R) 98 system (copyright 1998, Gaussian, Inc.),
 the Gaussian(R) 94 system (copyright 1995, Gaussian, Inc.),
 the Gaussian 92(TM) system (copyright 1992, Gaussian, Inc.),
 the Gaussian 90(TM) system (copyright 1990, Gaussian, Inc.),
 the Gaussian 88(TM) system (copyright 1988, Gaussian, Inc.),
 the Gaussian 86(TM) system (copyright 1986, Carnegie Mellon
 University), and the Gaussian 82(TM) system (copyright 1983,
 Carnegie Mellon University). Gaussian is a federally registered
 trademark of Gaussian, Inc.
  
 This software contains proprietary and confidential information,
 including trade secrets, belonging to Gaussian, Inc.
  
 This software is provided under written license and may be
 used, copied, transmitted, or stored only in accord with that
 written license.
  
 The following legend is applicable only to US Government
 contracts under FAR:
  
                    RESTRICTED RIGHTS LEGEND
  
 Use, reproduction and disclosure by the US Government is
 subject to restrictions as set forth in subparagraphs (a)
 and (c) of the Commercial Computer Software - Restricted
 Rights clause in FAR 52.227-19.
  
 Gaussian, Inc.
 340 Quinnipiac St., Bldg. 40, Wallingford CT 06492
  
  
 ---------------------------------------------------------------
 Warning -- This program may not be used in any manner that
 competes with the business of Gaussian, Inc. or will provide
 assistance to any competitor of Gaussian, Inc.  The licensee
 of this program is prohibited from giving any competitor of
 Gaussian, Inc. access to this program.  By using this program,
 the user acknowledges that Gaussian, Inc. is engaged in the
 business of creating and licensing software in the field of
 computational chemistry and represents and warrants to the
 licensee that it is not a competitor of Gaussian, Inc. and that
 it will not use this program in any manner prohibited above.
 ---------------------------------------------------------------
  

 Cite this work as:
 Gaussian 09, Revision D.01,
 M. J. Frisch, G. W. Trucks, H. B. Schlegel, G. E. Scuseria, 
 M. A. Robb, J. R. Cheeseman, G. Scalmani, V. Barone, B. Mennucci, 
 G. A. Petersson, H. Nakatsuji, M. Caricato, X. Li, H. P. Hratchian, 
 A. F. Izmaylov, J. Bloino, G. Zheng, J. L. Sonnenberg, M. Hada, 
 M. Ehara, K. Toyota, R. Fukuda, J. Hasegawa, M. Ishida, T. Nakajima, 
 Y. Honda, O. Kitao, H. Nakai, T. Vreven, J. A. Montgomery, Jr., 
 J. E. Peralta, F. Ogliaro, M. Bearpark, J. J. Heyd, E. Brothers, 
 K. N. Kudin, V. N. Staroverov, T. Keith, R. Kobayashi, J. Normand, 
 K. Raghavachari, A. Rendell, J. C. Burant, S. S. Iyengar, J. Tomasi, 
 M. Cossi, N. Rega, J. M. Millam, M. Klene, J. E. Knox, J. B. Cross, 
 V. Bakken, C. Adamo, J. Jaramillo, R. Gomperts, R. E. Stratmann, 
 O. Yazyev, A. J. Austin, R. Cammi, C. Pomelli, J. W. Ochterski, 
 R. L. Martin, K. Morokuma, V. G. Zakrzewski, G. A. Voth, 
 P. Salvador, J. J. Dannenberg, S. Dapprich, A. D. Daniels, 
 O. Farkas, J. B. Foresman, J. V. Ortiz, J. Cioslowski, 
 and D. J. Fox, Gaussian, Inc., Wallingford CT, 2013.
 
 ******************************************
 Gaussian 09:  AM64L-G09RevD.01 24-Apr-2013
                17-Jan-2014 
 ******************************************
 %mem=1800mb
 ------------------------------------------------------------------
 # hf/gen pseudo=read pop=(mk, readradii) iop(6/33=2,6/41=5,6/42=2)
 ------------------------------------------------------------------
 1/38=1/1;
 2/12=2,17=6,18=5,40=1/2;
 3/5=7,11=9,16=1,17=8,25=1,30=1/1,2,3;
 4//1;
 5/5=2,38=5/2;
 6/7=2,8=2,9=2,10=2,15=8,20=101,28=1,33=2,41=5,42=2/1,2;
 99/5=1,9=1/99;
 -------
 na resp
 -------
 Symbolic Z-matrix:
 Charge =  0 Multiplicity = 1
 6                     4.20481   1.28942  -0.23492 
 6                     2.72571   1.50646  -0.20484 
 6                     1.67885   0.54237  -0.08796 
 6                     0.51076   1.26642  -0.10152 
 8                     0.84329   2.57618  -0.22503 
 7                     2.23275   2.72138  -0.28517 
 6                    -0.92044   0.98164   0.00181 
 6                    -1.77993   1.99652   0.45829 
 6                    -3.16327   1.79793   0.57088 
 6                    -3.64947   0.55537   0.21059 
 6                    -2.80564  -0.45505  -0.24768 
 6                    -1.4451   -0.28182  -0.36864 
 8                    -3.54335  -1.57704  -0.53561 
 6                    -4.9106   -1.22534  -0.29928 
 8                    -4.94254   0.10717   0.23201 
 53                    1.99802  -1.52326   0.16365 
 1                     4.54716   0.79851   0.68287 
 1                     4.4896    0.64802  -1.07631 
 1                     4.71569   2.25013  -0.33341 
 1                    -1.35948   2.95733   0.73133 
 1                    -3.82238   2.58181   0.92687 
 1                    -0.81576  -1.07728  -0.74479 
 1                    -5.46642  -1.25273  -1.24491 
 1                    -5.34591  -1.91684   0.42991 
 
                          Input orientation:                          
 ---------------------------------------------------------------------
 Center     Atomic      Atomic             Coordinates (Angstroms)
 Number     Number       Type             X           Y           Z
 ---------------------------------------------------------------------
      1          6           0        4.204810    1.289421   -0.234923
      2          6           0        2.725708    1.506461   -0.204836
      3          6           0        1.678853    0.542366   -0.087961
      4          6           0        0.510761    1.266422   -0.101518
      5          8           0        0.843287    2.576179   -0.225026
      6          7           0        2.232751    2.721381   -0.285172
      7          6           0       -0.920443    0.981643    0.001813
      8          6           0       -1.779934    1.996516    0.458286
      9          6           0       -3.163272    1.797932    0.570884
     10          6           0       -3.649471    0.555374    0.210594
     11          6           0       -2.805642   -0.455047   -0.247678
     12          6           0       -1.445104   -0.281820   -0.368640
     13          8           0       -3.543351   -1.577035   -0.535609
     14          6           0       -4.910603   -1.225340   -0.299284
     15          8           0       -4.942536    0.107174    0.232014
     16         53           0        1.998020   -1.523259    0.163645
     17          1           0        4.547157    0.798505    0.682872
     18          1           0        4.489603    0.648020   -1.076305
     19          1           0        4.715686    2.250128   -0.333410
     20          1           0       -1.359480    2.957327    0.731332
     21          1           0       -3.822382    2.581810    0.926866
     22          1           0       -0.815757   -1.077283   -0.744786
     23          1           0       -5.466420   -1.252734   -1.244908
     24          1           0       -5.345915   -1.916837    0.429913
 ---------------------------------------------------------------------
                    Distance matrix (angstroms):
                    1          2          3          4          5
     1  C    0.000000
     2  C    1.495244   0.000000
     3  C    2.638209   1.427951   0.000000
     4  C    3.696529   2.230310   1.374365   0.000000
     5  O    3.599400   2.165228   2.203033   1.356942   0.000000
     6  N    2.437632   1.313579   2.256945   2.261832   1.398324
     7  C    5.139941   3.689520   2.637681   1.462915   2.388461
     8  C    6.066109   4.580469   3.791589   2.468542   2.772041
     9  C    7.429437   5.946998   5.045463   3.772684   4.158324
    10  C    7.901078   6.459106   5.336698   4.232084   4.945533
    11  C    7.224249   5.869002   4.596851   3.739431   4.743788
    12  C    5.865851   4.540975   3.243019   2.508748   3.664085
    13  O    8.266860   6.994173   5.653642   4.970866   6.048821
    14  C    9.456158   8.110789   6.825714   5.969856   6.896688
    15  O    9.235241   7.807100   6.643385   5.585118   6.307188
    16  I    3.597214   3.137596   2.105227   3.172471   4.276665
    17  H    1.095695   2.146370   2.981100   4.138443   4.207500
    18  H    1.095640   2.146556   2.981326   4.142923   4.211662
    19  H    1.092544   2.128282   3.492714   4.324679   3.887612
    20  H    5.888708   4.435108   3.966705   2.655297   2.431476
    21  H    8.213150   6.731613   5.954225   4.643700   4.805763
    22  H    5.573808   4.416928   3.045942   2.768826   4.046030
    23  H   10.050637   8.706657   7.457603   6.586363   7.450714
    24  H   10.096457   8.790505   7.460780   6.687018   7.676090
                    6          7          8          9         10
     6  N    0.000000
     7  C    3.612711   0.000000
     8  C    4.144852   1.406080   0.000000
     9  C    5.540998   2.453661   1.402048   0.000000
    10  C    6.287917   2.769998   2.373481   1.382081   0.000000
    11  C    5.956216   2.383338   2.749659   2.423604   1.393919
    12  C    4.748979   1.417337   2.446780   2.856602   2.428094
    13  O    7.204336   3.703418   4.107035   3.572001   2.261692
    14  C    8.161146   4.569771   4.555805   3.598685   2.240842
    15  O    7.654169   4.122490   3.690916   2.477756   1.368707
    16  I    4.274752   3.849435   5.171902   6.151023   6.018062
    17  H    3.160860   5.512897   6.443427   7.775739   8.213822
    18  H    3.165138   5.526503   6.593975   7.912144   8.240705
    19  H    2.527721   5.786828   6.548601   7.943564   8.552426
    20  H    3.740732   2.151343   1.083740   2.150257   3.359257
    21  H    6.176824   3.440568   2.175714   1.084257   2.156244
    22  H    4.892289   2.192612   3.438788   3.938106   3.407089
    23  H    8.717334   5.216576   5.200834   4.231803   2.947718
    24  H    8.914067   5.307472   5.294465   4.310837   3.006302
                   11         12         13         14         15
    11  C    0.000000
    12  C    1.376845   0.000000
    13  O    1.373308   2.471457   0.000000
    14  C    2.242069   3.592315   1.431404   0.000000
    15  O    2.261087   3.569892   2.320242   1.434884   0.000000
    16  I    4.938161   3.698594   5.585574   6.930522   7.129818
    17  H    7.516713   6.178994   8.519636   9.721615   9.525518
    18  H    7.424552   6.048648   8.352938   9.616502   9.537791
    19  H    7.993478   6.660881   9.104930  10.234524   9.909249
    20  H    3.833294   3.421892   5.189882   5.582772   4.605538
    21  H    3.411131   3.940833   4.417316   4.145125   2.803817
    22  H    2.143347   1.081816   2.780877   4.121669   4.403110
    23  H    2.951358   4.228653   2.075204   1.097218   2.074874
    24  H    3.008147   4.304334   2.072905   1.095168   2.073282
                   16         17         18         19         20
    16  I    0.000000
    17  H    3.486873   0.000000
    18  H    3.529860   1.766540   0.000000
    19  H    4.676668   1.780011   1.780381   0.000000
    20  H    5.627675   6.288976   6.543105   6.208176   0.000000
    21  H    7.163182   8.560893   8.765919   8.636950   2.499026
    22  H    2.990231   5.858126   5.588687   6.468211   4.330431
    23  H    7.600991  10.401713  10.137243  10.806302   6.204603
    24  H    7.359292  10.262063  10.275437  10.917054   6.303966
                   21         22         23         24
    21  H    0.000000
    22  H    5.022268   0.000000
    23  H    4.703530   4.680766   0.000000
    24  H    4.775557   4.754692   1.805708   0.000000
 Stoichiometry    C11H8INO3
 Framework group  C1[X(C11H8INO3)]
 Deg. of freedom    66
 Full point group                 C1      NOp   1
 Largest Abelian subgroup         C1      NOp   1
 Largest concise Abelian subgroup C1      NOp   1
                         Standard orientation:                         
 ---------------------------------------------------------------------
 Center     Atomic      Atomic             Coordinates (Angstroms)
 Number     Number       Type             X           Y           Z
 ---------------------------------------------------------------------
      1          6           0       -4.204810    1.289421    0.234923
      2          6           0       -2.725708    1.506461    0.204836
      3          6           0       -1.678853    0.542366    0.087961
      4          6           0       -0.510761    1.266422    0.101518
      5          8           0       -0.843287    2.576179    0.225026
      6          7           0       -2.232751    2.721381    0.285172
      7          6           0        0.920443    0.981643   -0.001813
      8          6           0        1.779934    1.996516   -0.458286
      9          6           0        3.163272    1.797932   -0.570884
     10          6           0        3.649471    0.555374   -0.210594
     11          6           0        2.805642   -0.455047    0.247678
     12          6           0        1.445104   -0.281820    0.368640
     13          8           0        3.543351   -1.577035    0.535609
     14          6           0        4.910603   -1.225340    0.299284
     15          8           0        4.942536    0.107174   -0.232014
     16         53           0       -1.998020   -1.523259   -0.163645
     17          1           0       -4.547157    0.798505   -0.682872
     18          1           0       -4.489603    0.648020    1.076305
     19          1           0       -4.715686    2.250128    0.333410
     20          1           0        1.359480    2.957327   -0.731332
     21          1           0        3.822382    2.581810   -0.926866
     22          1           0        0.815757   -1.077283    0.744786
     23          1           0        5.466420   -1.252734    1.244908
     24          1           0        5.345915   -1.916837   -0.429913
 ---------------------------------------------------------------------
 Rotational constants (GHZ):      0.6432366      0.2088365      0.1604385
 General basis read from cards:  (5D, 7F)
 ======================================================================================================
                                       Pseudopotential Parameters
 ======================================================================================================
  Center     Atomic      Valence      Angular      Power
  Number     Number     Electrons     Momentum     of R      Exponent        Coefficient   SO-Coeffient
 ======================================================================================================
    1          6
                                   No pseudopotential on this center.
    2          6
                                   No pseudopotential on this center.
    3          6
                                   No pseudopotential on this center.
    4          6
                                   No pseudopotential on this center.
    5          8
                                   No pseudopotential on this center.
    6          7
                                   No pseudopotential on this center.
    7          6
                                   No pseudopotential on this center.
    8          6
                                   No pseudopotential on this center.
    9          6
                                   No pseudopotential on this center.
   10          6
                                   No pseudopotential on this center.
   11          6
                                   No pseudopotential on this center.
   12          6
                                   No pseudopotential on this center.
   13          8
                                   No pseudopotential on this center.
   14          6
                                   No pseudopotential on this center.
   15          8
                                   No pseudopotential on this center.
   16         53            7
                                      F and up 
                                                     0        1.0715702       -0.07476210    0.00000000
                                                     1       44.1936028      -30.08112240    0.00000000
                                                     2       12.9367609      -75.37227210    0.00000000
                                                     2        3.1956412      -22.05637580    0.00000000
                                                     2        0.8589806       -1.69795850    0.00000000
                                      S - F
                                                     0      127.9202670        2.93800360    0.00000000
                                                     1       78.6211465       41.24712670    0.00000000
                                                     2       36.5146237      287.86800950    0.00000000
                                                     2        9.9065681      114.37585060    0.00000000
                                                     2        1.9420086       37.65477140    0.00000000
                                      P - F
                                                     0       13.0035304        2.22226300    0.00000000
                                                     1       76.0331404       39.40908310    0.00000000
                                                     2       24.1961684      177.40750020    0.00000000
                                                     2        6.4053433       77.98894620    0.00000000
                                                     2        1.5851786       25.75476410    0.00000000
                                      D - F
                                                     0       40.4278108        7.05243600    0.00000000
                                                     1       28.9084375       33.30416350    0.00000000
                                                     2       15.6268936      186.94538750    0.00000000
                                                     2        4.1442856       71.96883610    0.00000000
                                                     2        0.9377235        9.36306570    0.00000000
   17          1
                                   No pseudopotential on this center.
   18          1
                                   No pseudopotential on this center.
   19          1
                                   No pseudopotential on this center.
   20          1
                                   No pseudopotential on this center.
   21          1
                                   No pseudopotential on this center.
   22          1
                                   No pseudopotential on this center.
   23          1
                                   No pseudopotential on this center.
   24          1
                                   No pseudopotential on this center.
 ======================================================================================================
 There are   249 symmetry adapted cartesian basis functions of A   symmetry.
 There are   234 symmetry adapted basis functions of A   symmetry.
   234 basis functions,   464 primitive gaussians,   249 cartesian basis functions
    56 alpha electrons       56 beta electrons
       nuclear repulsion energy       992.4657722285 Hartrees.
 NAtoms=   24 NActive=   24 NUniq=   24 SFac= 1.00D+00 NAtFMM=   60 NAOKFM=F Big=F
 Integral buffers will be    131072 words long.
 Raffenetti 1 integral format.
 Two-electron integral symmetry is turned on.
 One-electron integrals computed using PRISM.
   1 Symmetry operations used in ECPInt.
 ECPInt:  NShTT=    3240 NPrTT=   21002 LenC2=    2876 LenP2D=   11447.
 LDataN:  DoStor=T MaxTD1= 5 Len=  102
 NBasis=   234 RedAO= T EigKep=  4.45D-04  NBF=   234
 NBsUse=   234 1.00D-06 EigRej= -1.00D+00 NBFU=   234
 ExpMin= 1.05D-01 ExpMax= 5.48D+03 ExpMxC= 8.25D+02 IAcc=1 IRadAn=         1 AccDes= 0.00D+00
 Harris functional with IExCor=  205 and IRadAn=       1 diagonalized for initial guess.
 HarFok:  IExCor=  205 AccDes= 0.00D+00 IRadAn=         1 IDoV= 1 UseB2=F ITyADJ=14
 ICtDFT=  3500011 ScaDFX=  1.000000  1.000000  1.000000  1.000000
 Defaulting to unpruned grid for atomic number  53.
 FoFCou: FMM=F IPFlag=           0 FMFlag=      100000 FMFlg1=           0
         NFxFlg=           0 DoJE=T BraDBF=F KetDBF=T FulRan=T
         wScrn=  0.000000 ICntrl=     500 IOpCl=  0 I1Cent=   200000004 NGrid=           0
         NMat0=    1 NMatS0=      1 NMatT0=    0 NMatD0=    1 NMtDS0=    0 NMtDT0=    0
 Petite list used in FoFCou.
 Requested convergence on RMS density matrix=1.00D-08 within 128 cycles.
 Requested convergence on MAX density matrix=1.00D-06.
 Requested convergence on             energy=1.00D-06.
 No special actions if energy rises.
 Integral accuracy reduced to 1.0D-05 until final iterations.
 Initial convergence to 1.0D-05 achieved.  Increase integral accuracy.
 SCF Done:  E(RHF) =  -711.311928640     A.U. after   16 cycles
            NFock= 16  Conv=0.97D-08     -V/T= 2.0129

 **********************************************************************

            Population analysis using the SCF density.

 **********************************************************************

 Orbital symmetries:
 BldTbl:  Degeneracy threshold= 1.00D-02
       Occupied  (A) (A) (A) (A) (A) (A) (A) (A) (A) (A) (A) (A)
                 (A) (A) (A) (A) (A) (A) (A) (A) (A) (A) (A) (A)
                 (A) (A) (A) (A) (A) (A) (A) (A) (A) (A) (A) (A)
                 (A) (A) (A) (A) (A) (A) (A) (A) (A) (A) (A) (A)
                 (A) (A) (A) (A) (A) (A) (A) (A)
       Virtual   (A) (A) (A) (A) (A) (A) (A) (A) (A) (A) (A) (A)
                 (A) (A) (A) (A) (A) (A) (A) (A) (A) (A) (A) (A)
                 (A) (A) (A) (A) (A) (A) (A) (A) (A) (A) (A) (A)
                 (A) (A) (A) (A) (A) (A) (A) (A) (A) (A) (A) (A)
                 (A) (A) (A) (A) (A) (A) (A) (A) (A) (A) (A) (A)
                 (A) (A) (A) (A) (A) (A) (A) (A) (A) (A) (A) (A)
                 (A) (A) (A) (A) (A) (A) (A) (A) (A) (A) (A) (A)
                 (A) (A) (A) (A) (A) (A) (A) (A) (A) (A) (A) (A)
                 (A) (A) (A) (A) (A) (A) (A) (A) (A) (A) (A) (A)
                 (A) (A) (A) (A) (A) (A) (A) (A) (A) (A) (A) (A)
                 (A) (A) (A) (A) (A) (A) (A) (A) (A) (A) (A) (A)
                 (A) (A) (A) (A) (A) (A) (A) (A) (A) (A) (A) (A)
                 (A) (A) (A) (A) (A) (A) (A) (A) (A) (A) (A) (A)
                 (A) (A) (A) (A) (A) (A) (A) (A) (A) (A) (A) (A)
                 (A) (A) (A) (A) (A) (A) (A) (A) (A) (A)
 The electronic state is 1-A.
 Alpha  occ. eigenvalues --  -20.64992 -20.61888 -20.61499 -15.62537 -11.36695
 Alpha  occ. eigenvalues --  -11.34039 -11.32032 -11.31371 -11.29681 -11.28652
 Alpha  occ. eigenvalues --  -11.27103 -11.26267 -11.25928 -11.25622 -11.24050
 Alpha  occ. eigenvalues --   -1.49238  -1.48885  -1.38630  -1.18994  -1.17053
 Alpha  occ. eigenvalues --   -1.09930  -1.04036  -1.03318  -0.98876  -0.93418
 Alpha  occ. eigenvalues --   -0.90499  -0.87006  -0.86230  -0.78906  -0.78161
 Alpha  occ. eigenvalues --   -0.72644  -0.72436  -0.72066  -0.69833  -0.66199
 Alpha  occ. eigenvalues --   -0.64687  -0.63378  -0.60959  -0.59866  -0.58528
 Alpha  occ. eigenvalues --   -0.57629  -0.57567  -0.56276  -0.56048  -0.55445
 Alpha  occ. eigenvalues --   -0.54480  -0.52204  -0.51092  -0.48079  -0.46813
 Alpha  occ. eigenvalues --   -0.44114  -0.40100  -0.38269  -0.36314  -0.34233
 Alpha  occ. eigenvalues --   -0.29966
 Alpha virt. eigenvalues --    0.08249   0.10801   0.13011   0.17813   0.23297
 Alpha virt. eigenvalues --    0.24687   0.25028   0.25292   0.27610   0.29347
 Alpha virt. eigenvalues --    0.29599   0.30456   0.31509   0.32609   0.33135
 Alpha virt. eigenvalues --    0.34321   0.35471   0.37987   0.38880   0.41284
 Alpha virt. eigenvalues --    0.42876   0.45152   0.47102   0.48858   0.49973
 Alpha virt. eigenvalues --    0.53863   0.54673   0.55663   0.57068   0.59311
 Alpha virt. eigenvalues --    0.64927   0.65579   0.66604   0.69544   0.71043
 Alpha virt. eigenvalues --    0.71790   0.72029   0.74528   0.75193   0.75587
 Alpha virt. eigenvalues --    0.77731   0.79422   0.81222   0.81424   0.81566
 Alpha virt. eigenvalues --    0.82588   0.84717   0.84863   0.85789   0.88961
 Alpha virt. eigenvalues --    0.89430   0.89848   0.91194   0.92469   0.94439
 Alpha virt. eigenvalues --    0.95941   0.98356   0.98868   1.01284   1.01892
 Alpha virt. eigenvalues --    1.02777   1.05291   1.05744   1.06292   1.06932
 Alpha virt. eigenvalues --    1.09938   1.10558   1.11743   1.13641   1.14227
 Alpha virt. eigenvalues --    1.14568   1.15125   1.16350   1.18287   1.20985
 Alpha virt. eigenvalues --    1.22111   1.23856   1.25740   1.26615   1.27411
 Alpha virt. eigenvalues --    1.28295   1.29813   1.32087   1.32776   1.36134
 Alpha virt. eigenvalues --    1.38127   1.39610   1.43652   1.46123   1.47621
 Alpha virt. eigenvalues --    1.48919   1.53392   1.58103   1.59291   1.59822
 Alpha virt. eigenvalues --    1.60005   1.61769   1.63820   1.66535   1.68327
 Alpha virt. eigenvalues --    1.70261   1.70994   1.73781   1.74796   1.74882
 Alpha virt. eigenvalues --    1.77668   1.78656   1.82406   1.84040   1.89598
 Alpha virt. eigenvalues --    1.94687   1.99585   2.04414   2.05264   2.06789
 Alpha virt. eigenvalues --    2.08735   2.12610   2.13456   2.16733   2.19461
 Alpha virt. eigenvalues --    2.19994   2.20280   2.21386   2.22305   2.23584
 Alpha virt. eigenvalues --    2.24534   2.25772   2.28571   2.30145   2.30308
 Alpha virt. eigenvalues --    2.35367   2.37296   2.39935   2.40872   2.43217
 Alpha virt. eigenvalues --    2.43586   2.44945   2.46459   2.48644   2.50763
 Alpha virt. eigenvalues --    2.54007   2.57165   2.58511   2.58578   2.59042
 Alpha virt. eigenvalues --    2.61778   2.63239   2.69200   2.70799   2.73581
 Alpha virt. eigenvalues --    2.78496   2.78999   2.80503   2.82105   2.82906
 Alpha virt. eigenvalues --    2.89753   2.91452   2.94015   2.96178   2.98691
 Alpha virt. eigenvalues --    3.00404   3.01664   3.03085   3.07324   3.12599
 Alpha virt. eigenvalues --    3.12858   3.16811   3.20037   3.22669   3.29989
 Alpha virt. eigenvalues --    3.34167   3.38211   3.39545   3.45039   3.53993
 Alpha virt. eigenvalues --    3.64038   3.83868  10.43082
          Condensed to atoms (all electrons):
               1          2          3          4          5          6
     1  C    5.154577   0.324843  -0.050524   0.002515   0.004727  -0.049031
     2  C    0.324843   4.672758   0.384592  -0.047966  -0.093080   0.553276
     3  C   -0.050524   0.384592   5.709622   0.546016  -0.077880  -0.041778
     4  C    0.002515  -0.047966   0.546016   4.467519   0.262208  -0.104427
     5  O    0.004727  -0.093080  -0.077880   0.262208   8.328532   0.164702
     6  N   -0.049031   0.553276  -0.041778  -0.104427   0.164702   6.639047
     7  C   -0.000021   0.005062  -0.062163   0.405726  -0.036769   0.001991
     8  C    0.000001  -0.000068   0.004581  -0.035671  -0.006594   0.000181
     9  C    0.000000   0.000003  -0.000117   0.002444   0.000094   0.000001
    10  C    0.000000   0.000000   0.000015   0.000543   0.000006   0.000000
    11  C    0.000000   0.000002   0.000199   0.001895  -0.000046   0.000000
    12  C    0.000000   0.000009  -0.007710  -0.028837   0.001435  -0.000069
    13  O    0.000000   0.000000   0.000000  -0.000062   0.000000   0.000000
    14  C    0.000000   0.000000   0.000000   0.000002   0.000000   0.000000
    15  O    0.000000   0.000000   0.000000  -0.000004   0.000000   0.000000
    16  I    0.001031  -0.042650   0.203196  -0.036140   0.001957   0.001607
    17  H    0.387744  -0.037085  -0.001708  -0.000072  -0.000050   0.000229
    18  H    0.386746  -0.036567  -0.001681  -0.000108  -0.000055   0.000367
    19  H    0.389222  -0.038137   0.003590   0.000095  -0.000096   0.000676
    20  H    0.000000   0.000035   0.000194  -0.002784   0.004277  -0.000144
    21  H    0.000000   0.000000   0.000001  -0.000054  -0.000004   0.000000
    22  H    0.000000  -0.000029  -0.000056  -0.000346   0.000002  -0.000001
    23  H    0.000000   0.000000   0.000000   0.000000   0.000000   0.000000
    24  H    0.000000   0.000000   0.000000   0.000000   0.000000   0.000000
               7          8          9         10         11         12
     1  C   -0.000021   0.000001   0.000000   0.000000   0.000000   0.000000
     2  C    0.005062  -0.000068   0.000003   0.000000   0.000002   0.000009
     3  C   -0.062163   0.004581  -0.000117   0.000015   0.000199  -0.007710
     4  C    0.405726  -0.035671   0.002444   0.000543   0.001895  -0.028837
     5  O   -0.036769  -0.006594   0.000094   0.000006  -0.000046   0.001435
     6  N    0.001991   0.000181   0.000001   0.000000   0.000000  -0.000069
     7  C    4.867333   0.544522  -0.045425  -0.022409  -0.034657   0.510640
     8  C    0.544522   4.944068   0.507815  -0.043978  -0.029635  -0.049791
     9  C   -0.045425   0.507815   4.975646   0.552432  -0.037483  -0.030703
    10  C   -0.022409  -0.043978   0.552432   4.540435   0.533886  -0.044735
    11  C   -0.034657  -0.029635  -0.037483   0.533886   4.560735   0.552780
    12  C    0.510640  -0.049791  -0.030703  -0.044735   0.552780   4.988061
    13  O    0.001174   0.000089   0.005973  -0.045657   0.183031  -0.031981
    14  C   -0.000032  -0.000152   0.002767  -0.052941  -0.051114   0.002639
    15  O   -0.000420   0.002692  -0.036464   0.193743  -0.045962   0.007116
    16  I    0.006725  -0.000042  -0.000014  -0.000003   0.000372  -0.012779
    17  H   -0.000003   0.000000   0.000000   0.000000   0.000000   0.000000
    18  H   -0.000001   0.000000   0.000000   0.000000   0.000000   0.000000
    19  H    0.000001   0.000000   0.000000   0.000000   0.000000   0.000000
    20  H   -0.026214   0.378135  -0.026316   0.001621   0.000205   0.002239
    21  H    0.001528  -0.024209   0.375527  -0.026487   0.002419  -0.000028
    22  H   -0.027554   0.002170  -0.000081   0.002525  -0.020085   0.366528
    23  H   -0.000007  -0.000001   0.000047   0.002498   0.002861   0.000072
    24  H    0.000001   0.000004  -0.000021   0.002537   0.002504  -0.000014
              13         14         15         16         17         18
     1  C    0.000000   0.000000   0.000000   0.001031   0.387744   0.386746
     2  C    0.000000   0.000000   0.000000  -0.042650  -0.037085  -0.036567
     3  C    0.000000   0.000000   0.000000   0.203196  -0.001708  -0.001681
     4  C   -0.000062   0.000002  -0.000004  -0.036140  -0.000072  -0.000108
     5  O    0.000000   0.000000   0.000000   0.001957  -0.000050  -0.000055
     6  N    0.000000   0.000000   0.000000   0.001607   0.000229   0.000367
     7  C    0.001174  -0.000032  -0.000420   0.006725  -0.000003  -0.000001
     8  C    0.000089  -0.000152   0.002692  -0.000042   0.000000   0.000000
     9  C    0.005973   0.002767  -0.036464  -0.000014   0.000000   0.000000
    10  C   -0.045657  -0.052941   0.193743  -0.000003   0.000000   0.000000
    11  C    0.183031  -0.051114  -0.045962   0.000372   0.000000   0.000000
    12  C   -0.031981   0.002639   0.007116  -0.012779   0.000000   0.000000
    13  O    8.485076   0.238038  -0.046158   0.000002   0.000000   0.000000
    14  C    0.238038   4.499534   0.233951   0.000000   0.000000   0.000000
    15  O   -0.046158   0.233951   8.477287   0.000000   0.000000   0.000000
    16  I    0.000002   0.000000   0.000000   6.612233  -0.000358  -0.000258
    17  H    0.000000   0.000000   0.000000  -0.000358   0.499260  -0.028907
    18  H    0.000000   0.000000   0.000000  -0.000258  -0.028907   0.500096
    19  H    0.000000   0.000000   0.000000   0.000145  -0.021533  -0.021385
    20  H    0.000001   0.000002  -0.000024  -0.000002   0.000000   0.000000
    21  H   -0.000032  -0.000111  -0.000774   0.000000   0.000000   0.000000
    22  H   -0.000523  -0.000118  -0.000027  -0.000255   0.000000   0.000000
    23  H   -0.040001   0.397306  -0.039659   0.000000   0.000000   0.000000
    24  H   -0.036006   0.398007  -0.035696   0.000000   0.000000   0.000000
              19         20         21         22         23         24
     1  C    0.389222   0.000000   0.000000   0.000000   0.000000   0.000000
     2  C   -0.038137   0.000035   0.000000  -0.000029   0.000000   0.000000
     3  C    0.003590   0.000194   0.000001  -0.000056   0.000000   0.000000
     4  C    0.000095  -0.002784  -0.000054  -0.000346   0.000000   0.000000
     5  O   -0.000096   0.004277  -0.000004   0.000002   0.000000   0.000000
     6  N    0.000676  -0.000144   0.000000  -0.000001   0.000000   0.000000
     7  C    0.000001  -0.026214   0.001528  -0.027554  -0.000007   0.000001
     8  C    0.000000   0.378135  -0.024209   0.002170  -0.000001   0.000004
     9  C    0.000000  -0.026316   0.375527  -0.000081   0.000047  -0.000021
    10  C    0.000000   0.001621  -0.026487   0.002525   0.002498   0.002537
    11  C    0.000000   0.000205   0.002419  -0.020085   0.002861   0.002504
    12  C    0.000000   0.002239  -0.000028   0.366528   0.000072  -0.000014
    13  O    0.000000   0.000001  -0.000032  -0.000523  -0.040001  -0.036006
    14  C    0.000000   0.000002  -0.000111  -0.000118   0.397306   0.398007
    15  O    0.000000  -0.000024  -0.000774  -0.000027  -0.039659  -0.035696
    16  I    0.000145  -0.000002   0.000000  -0.000255   0.000000   0.000000
    17  H   -0.021533   0.000000   0.000000   0.000000   0.000000   0.000000
    18  H   -0.021385   0.000000   0.000000   0.000000   0.000000   0.000000
    19  H    0.469995   0.000000   0.000000   0.000000   0.000000   0.000000
    20  H    0.000000   0.413623  -0.001219  -0.000076   0.000000   0.000000
    21  H    0.000000  -0.001219   0.432603   0.000008   0.000001  -0.000001
    22  H    0.000000  -0.000076   0.000008   0.419831   0.000001   0.000000
    23  H    0.000000   0.000000   0.000001   0.000001   0.541084  -0.050208
    24  H    0.000000   0.000000  -0.000001   0.000000  -0.050208   0.529045
 Mulliken charges:
               1
     1  C   -0.551830
     2  C    0.355004
     3  C   -0.608388
     4  C    0.567506
     5  O   -0.553366
     6  N   -0.166626
     7  C   -0.089027
     8  C   -0.194116
     9  C   -0.246123
    10  C    0.405971
    11  C    0.378093
    12  C   -0.224871
    13  O   -0.712961
    14  C    0.332222
    15  O   -0.709601
    16  I    0.265234
    17  H    0.202483
    18  H    0.201752
    19  H    0.217428
    20  H    0.256447
    21  H    0.240832
    22  H    0.258085
    23  H    0.186005
    24  H    0.189848
 Sum of Mulliken charges =   0.00000
 Mulliken charges with hydrogens summed into heavy atoms:
               1
     1  C    0.069833
     2  C    0.355004
     3  C   -0.608388
     4  C    0.567506
     5  O   -0.553366
     6  N   -0.166626
     7  C   -0.089027
     8  C    0.062331
     9  C   -0.005290
    10  C    0.405971
    11  C    0.378093
    12  C    0.033214
    13  O   -0.712961
    14  C    0.708075
    15  O   -0.709601
    16  I    0.265234
 DipInt: DoE/N= T F RetVal/Mat= T F Init=T NMatP=  1 IDeriv=0 Min/MaxMlt=  0  4
 Entering OneElI...
 OneElI was handed   235768411 working-precision words.
 Multipole integrals L=0 to 4 MinM= 0 MaxM= 0.
 Requested accuracy = 0.1000D-12
 ShPair: Thresh= 1.00D-13 NBox=     0 BxSize= 0.00D+00 RnKept= 2.06D+01
         NSMCal=                 3240 NSMKep=                2632
 PrsmSu:  NPrtUS=   1 ThrOK=F IAlg=1 NPAlg=1 LenDen=           0.
 Prism:   IPart=     0 DynPar=F LinDyn=F Incr=          26.
 PRISM was handed   235520234 working-precision words and  2632 shell-pairs
 IPart=  0 NShTot=        2632 NBatch=         104 AvBLen=        25.3
 PrSmSu:  NxtVal=             27.
 Electronic moments (au):
       -112.00000000       -173.13522532       -133.27496530        -14.30211028
      -3781.92196155      -1031.82893782       -134.42057663        500.74266925
         54.28051757         38.79661376     -13995.07413389      -2840.63773993
        -26.39636045         36.31619005      -1221.16620415       -501.50973245
       -231.49812652        -99.47547499       -106.85239960        834.80608345
    -235402.18082293     -19975.20704364       -615.81583014      30985.32672088
       1490.85402767       6815.38888039        100.80290504         57.52567716
        167.17265790     -26152.33103635      -4933.64846199      -1322.49602680
       2473.95098929       1220.22884447        354.71991590
 Electronic spatial extent (au):  <R**2>=           4948.1715
 DipInt: DoE/N= F T RetVal/Mat= T F Init=T NMatP=  1 IDeriv=0 Min/MaxMlt=  0  4
 Nuclear    moments (au):
        112.00000000        173.68270098        132.41293333         14.22522977
       3716.33303357        949.02374778         54.28149164       -499.95295447
        -53.71028176        -40.94788427      13856.61632175       2637.54972971
         15.76165780        -45.02702566       1130.43558631        513.62940839
        178.24256782         47.55539558         81.57644118       -840.12924462
     222548.48393986      15677.31454237         92.04880405     -31221.38983409
      -1234.50167890      -5959.45037679       -129.91832313         29.09167626
       -125.45173955      23285.81484817       2508.53952316        537.73043963
      -2507.03180761      -1241.12215902       -201.26182548
 Total      moments (au):
          0.00000000          0.54747566         -0.86203197         -0.07688052
        -65.58892798        -82.80519004        -80.13908500          0.78971478
          0.57023581         -2.15127051       -138.45781214       -203.08801022
        -10.63470265         -8.71083561        -90.73061784         12.11967594
        -53.25555871        -51.92007942        -25.27595841         -5.32316117
     -12853.69688307      -4297.89250127       -523.76702609       -236.06311321
        256.35234876        855.93850360        -29.11541809         86.61735342
         41.72091836      -2866.51618818      -2425.10893883       -784.76558717
        -33.08081832        -20.89331455        153.45809041
 Traceless Quadrup. (au):
         10.58880636         -6.62745570         -3.96135066          0.78971478
          0.57023581         -2.15127051
 Charge=              0.0000 electrons
 Dipole moment (field-independent basis, Debye):
    X=              1.3915    Y=             -2.1911    Z=             -0.1954  Tot=              2.6030
 Quadrupole moment (field-independent basis, Debye-Ang):
   XX=            -88.2193   YY=           -111.3758   ZZ=           -107.7898
   XY=              1.0622   XZ=              0.7670   YZ=             -2.8935
 Traceless Quadrupole moment (field-independent basis, Debye-Ang):
   XX=             14.2423   YY=             -8.9142   ZZ=             -5.3282
   XY=              1.0622   XZ=              0.7670   YZ=             -2.8935
 Octapole moment (field-independent basis, Debye-Ang**2):
  XXX=            -98.5489  YYY=           -144.5502  ZZZ=             -7.5694  XYY=             -6.2000
  XXY=            -64.5786  XXZ=              8.6263  XZZ=            -37.9053  YZZ=            -36.9547
  YYZ=            -17.9905  XYZ=             -3.7888
 Hexadecapole moment (field-independent basis, Debye-Ang**3):
 XXXX=          -4841.3183 YYYY=          -1618.7923 ZZZZ=           -197.2758 XXXY=            -88.9127
 XXXZ=             96.5546 YYYX=            322.3875 YYYZ=            -10.9663 ZZZX=             32.6242
 ZZZY=             15.7141 XXYY=          -1079.6674 XXZZ=           -913.4123 YYZZ=           -295.5803
 XXYZ=            -12.4598 YYXZ=             -7.8694 ZZXY=             57.7997
 N-N= 9.924657722285D+02 E-N=-3.645947618968D+03  KE= 7.022874608941D+02
 Entering OneElI...
 OneElI was handed   235805947 working-precision words.
 Calculate electrostatic properties
    NBasis =   234  MinDer = 0  MaxDer = 0
    NGrid  =    24  NMatD  =   1
 Requested accuracy = 0.1000D-12
 PrtBox:  NBox=     1 Levels=  1 BoxLen=   37.65 SMaxX=       19.24
          Shift=            8.911355            3.622297            1.751523
 Box      1 Number                   0 centers from      1 to     80:
 ShPair: Thresh= 1.00D-13 NBox=     1 BxSize= 3.77D+01 RnKept= 1.79D+01
         NSMCal=                 3240 NSMKep=                2361
 PrsmSu:  NPrtUS=   1 ThrOK=F IAlg=1 NPAlg=1 LenDen=           0.
 Prism:   IPart=     0 DynPar=F LinDyn=F Incr=         512.
 PRISM was handed   235577982 working-precision words and  2361 shell-pairs
 IPart=  0 NShTot=       56664 NBatch=        2361 AvBLen=        24.0
 PrSmSu:  NxtVal=            513.
 --------------------------------------------------------
       Center         ----      EFG at Nuclei      ----
                      3XX-RR        3YY-RR        3ZZ-RR
 --------------------------------------------------------
     1   Atom       -0.105919      0.068772      0.037147
     2   Atom        0.248774      0.137048     -0.385821
     3   Atom        0.154159     -0.279218      0.125059
     4   Atom        0.373636     -0.093161     -0.280476
     5   Atom       -1.053143     -0.208558      1.261701
     6   Atom       -1.183597      1.055740      0.127856
     7   Atom        0.005720      0.125746     -0.131466
     8   Atom        0.162029      0.121550     -0.283579
     9   Atom        0.144420      0.054418     -0.198838
    10   Atom       -0.173096      0.311362     -0.138266
    11   Atom        0.251983     -0.139472     -0.112511
    12   Atom        0.117133      0.106387     -0.223520
    13   Atom       -1.627235     -0.055806      1.683041
    14   Atom       -0.158371     -0.178892      0.337263
    15   Atom       -0.530954     -0.907432      1.438386
    16   Atom        0.041683     -0.088041      0.046358
    17   Atom        0.096513      0.064472     -0.160985
    18   Atom        0.109805      0.000654     -0.110459
    19   Atom        0.042384     -0.194016      0.151632
    20   Atom        0.076649     -0.210037      0.133389
    21   Atom       -0.022587     -0.093659      0.116246
    22   Atom       -0.013872     -0.096748      0.110620
    23   Atom        0.030276      0.135629     -0.165905
    24   Atom        0.071976     -0.030731     -0.041245
 --------------------------------------------------------
                        XY            XZ            YZ
 --------------------------------------------------------
     1   Atom       -0.019617      0.003254      0.003618
     2   Atom        0.020756     -0.020374      0.044138
     3   Atom       -0.043698     -0.015623     -0.051233
     4   Atom        0.115246     -0.015413      0.016871
     5   Atom        1.066153      0.192217     -0.166314
     6   Atom       -0.243021      0.030448      0.091830
     7   Atom        0.028610     -0.035248     -0.098314
     8   Atom       -0.037031     -0.058385     -0.158762
     9   Atom       -0.001573     -0.050604     -0.102105
    10   Atom        0.089526     -0.032483     -0.188628
    11   Atom        0.187291     -0.116776     -0.025859
    12   Atom       -0.000567     -0.051354     -0.134775
    13   Atom        0.642445      0.123669      0.542162
    14   Atom       -0.171493      0.109433      0.263412
    15   Atom        0.926795      0.002787      0.927847
    16   Atom       -0.022420     -0.003289     -0.017113
    17   Atom       -0.061788     -0.113704     -0.168403
    18   Atom       -0.066754      0.087001      0.201924
    19   Atom        0.182561      0.019272     -0.035700
    20   Atom        0.150931     -0.042086      0.109532
    21   Atom       -0.198909      0.093436      0.116282
    22   Atom       -0.192602      0.094092      0.123835
    23   Atom        0.001339     -0.179695      0.012819
    24   Atom        0.101662      0.114049     -0.172944
 --------------------------------------------------------


 ---------------------------------------------------------------------------------
              Nuclear Quadrupole Coupling Constant in Principal Axis System
 ---------------------------------------------------------------------------------

       Atom             a.u.   MegaHertz   Gauss  10(-4) cm-1        Axes

              Baa    -1.2109     5.815     2.075     1.940  0.9937  0.1078 -0.0300
     6 N(14)  Bbb     0.1210    -0.581    -0.207    -0.194  0.0395 -0.0875  0.9954
              Bcc     1.0899    -5.234    -1.868    -1.746 -0.1046  0.9903  0.0912
 
              Baa    -0.0940   -15.676    -5.594    -5.229  0.1647  0.9786  0.1232
    16 I(127) Bbb     0.0454     7.573     2.702     2.526  0.9753 -0.1803  0.1277
              Bcc     0.0486     8.103     2.891     2.703 -0.1472 -0.0991  0.9841
 

 ---------------------------------------------------------------------------------

 No NMR shielding tensors so no spin-rotation constants.
 Leave Link  601 at Fri Jan 17 11:57:31 2014, MaxMem=   235929600 cpu:         0.3
 FitSet:  NAtFit=    24 NAtPot=    24 NAtFrz=     0 MDM=    28 TotChg=   0.00000
 Merz-Kollman atomic radii used.
 Read replacement radii for each type of atom:
 Rad(53) =   2.700000000000D+00
 Atom Element Radius
    1     6    1.50
    2     6    1.50
    3     6    1.50
    4     6    1.50
    5     8    1.40
    6     7    1.50
    7     6    1.50
    8     6    1.50
    9     6    1.50
   10     6    1.50
   11     6    1.50
   12     6    1.50
   13     8    1.40
   14     6    1.50
   15     8    1.40
   16    53    2.70
   17     1    1.20
   18     1    1.20
   19     1    1.20
   20     1    1.20
   21     1    1.20
   22     1    1.20
   23     1    1.20
   24     1    1.20
 Generate VDW surfaces: Layer= 5 Dens= 2 Start= 1.400 Inc= 0.179

 **********************************************************************

            Electrostatic Properties Using The SCF Density

 **********************************************************************

       Atomic Center    1 is at  -4.204810  1.289421  0.234923
       Atomic Center    2 is at  -2.725708  1.506461  0.204836
       Atomic Center    3 is at  -1.678853  0.542366  0.087961
       Atomic Center    4 is at  -0.510761  1.266422  0.101518
       Atomic Center    5 is at  -0.843287  2.576179  0.225026
       Atomic Center    6 is at  -2.232751  2.721381  0.285172
       Atomic Center    7 is at   0.920443  0.981643 -0.001813
       Atomic Center    8 is at   1.779934  1.996516 -0.458286
       Atomic Center    9 is at   3.163272  1.797932 -0.570884
       Atomic Center   10 is at   3.649471  0.555374 -0.210594
       Atomic Center   11 is at   2.805642 -0.455047  0.247678
       Atomic Center   12 is at   1.445104 -0.281820  0.368640
       Atomic Center   13 is at   3.543351 -1.577035  0.535609
       Atomic Center   14 is at   4.910603 -1.225340  0.299284
       Atomic Center   15 is at   4.942536  0.107174 -0.232014
       Atomic Center   16 is at  -1.998020 -1.523259 -0.163645
       Atomic Center   17 is at  -4.547157  0.798505 -0.682872
       Atomic Center   18 is at  -4.489603  0.648020  1.076305
       Atomic Center   19 is at  -4.715686  2.250128  0.333410
       Atomic Center   20 is at   1.359480  2.957327 -0.731332
       Atomic Center   21 is at   3.822382  2.581810 -0.926866
       Atomic Center   22 is at   0.815757 -1.077283  0.744786
       Atomic Center   23 is at   5.466420 -1.252734  1.244908
       Atomic Center   24 is at   5.345915 -1.916837 -0.429913
      ESP Fit Center   25 is at  -3.845689  1.911437  2.208278
      ESP Fit Center   26 is at  -4.563931  1.911437  2.208278
      ESP Fit Center   27 is at  -3.644060  2.517292  1.843616
      ESP Fit Center   28 is at  -5.983721  1.667541  1.284923
      ESP Fit Center   29 is at  -6.237693  0.909410  0.599584
      ESP Fit Center   30 is at  -6.237693  1.669433 -0.129738
      ESP Fit Center   31 is at  -6.237693  0.909410 -0.129738
      ESP Fit Center   32 is at  -5.983721  1.667541 -0.815077
      ESP Fit Center   33 is at  -4.396914  2.625536 -1.373770
      ESP Fit Center   34 is at  -5.088776  2.309573 -1.373770
      ESP Fit Center   35 is at  -3.845689  1.911437 -1.738431
      ESP Fit Center   36 is at  -2.725708  1.506461  2.304836
      ESP Fit Center   37 is at  -2.007466  1.506461  2.178191
      ESP Fit Center   38 is at  -3.084829  2.128477  2.178191
      ESP Fit Center   39 is at  -3.609674  2.526613 -1.403857
      ESP Fit Center   40 is at  -2.366587  2.128477 -1.768518
      ESP Fit Center   41 is at  -3.084829  2.128477 -1.768518
      ESP Fit Center   42 is at  -0.510761  1.266422  2.201518
      ESP Fit Center   43 is at   0.207481  1.266422  2.074873
      ESP Fit Center   44 is at  -0.151640  1.888438  2.074873
      ESP Fit Center   45 is at  -0.869882  1.888438  2.074873
      ESP Fit Center   46 is at  -0.151640  1.888438 -1.871836
      ESP Fit Center   47 is at  -0.869882  1.888438 -1.871836
      ESP Fit Center   48 is at  -0.843287  2.576179  2.185026
      ESP Fit Center   49 is at  -0.093227  2.576179  2.035830
      ESP Fit Center   50 is at  -0.468257  3.225750  2.035830
      ESP Fit Center   51 is at  -1.218317  1.926609  2.035830
      ESP Fit Center   52 is at   0.542642  2.576179  1.610955
      ESP Fit Center   53 is at   0.356963  3.269144  1.610955
      ESP Fit Center   54 is at  -0.150322  3.776429  1.610955
      ESP Fit Center   55 is at  -0.843287  3.962108  1.610955
      ESP Fit Center   56 is at   0.810965  3.312699  0.975086
      ESP Fit Center   57 is at   0.368377  3.921869  0.975086
      ESP Fit Center   58 is at  -0.283718  4.298356  0.975086
      ESP Fit Center   59 is at  -1.032568  4.377063  0.975086
      ESP Fit Center   60 is at   0.030360  4.330699  0.225026
      ESP Fit Center   61 is at  -0.662441  4.527818  0.225026
      ESP Fit Center   62 is at  -0.283718  4.298356 -0.525033
      ESP Fit Center   63 is at  -1.032568  4.377063 -0.525033
      ESP Fit Center   64 is at  -0.150322  3.776429 -1.160903
      ESP Fit Center   65 is at  -0.843287  3.962108 -1.160903
      ESP Fit Center   66 is at  -0.093227  2.576179 -1.585778
      ESP Fit Center   67 is at  -0.468257  3.225750 -1.585778
      ESP Fit Center   68 is at  -1.218317  3.225750 -1.585778
      ESP Fit Center   69 is at  -0.843287  2.576179 -1.734974
      ESP Fit Center   70 is at  -2.232751  2.721381  2.385172
      ESP Fit Center   71 is at  -1.514509  2.721381  2.258527
      ESP Fit Center   72 is at  -1.873630  3.343397  2.258527
      ESP Fit Center   73 is at  -2.591872  3.343397  2.258527
      ESP Fit Center   74 is at  -2.950993  2.721381  2.258527
      ESP Fit Center   75 is at  -2.591872  2.099365  2.258527
      ESP Fit Center   76 is at  -1.873630  2.099365  2.258527
      ESP Fit Center   77 is at  -1.672001  3.949252  1.893865
      ESP Fit Center   78 is at  -2.424855  4.057496  1.893865
      ESP Fit Center   79 is at  -3.116717  3.741533  1.893865
      ESP Fit Center   80 is at  -3.527926  3.101679  1.893865
      ESP Fit Center   81 is at  -1.670756  4.451023  1.335172
      ESP Fit Center   82 is at  -2.422852  4.530072  1.335172
      ESP Fit Center   83 is at  -3.142078  4.296381  1.335172
      ESP Fit Center   84 is at  -3.704072  3.790359  1.335172
      ESP Fit Center   85 is at  -1.310921  4.572665  0.649833
      ESP Fit Center   86 is at  -2.041931  4.780655  0.649833
      ESP Fit Center   87 is at  -2.798712  4.710529  0.649833
      ESP Fit Center   88 is at  -3.479057  4.371758  0.649833
      ESP Fit Center   89 is at  -3.991082  3.810094  0.649833
      ESP Fit Center   90 is at  -1.310921  4.572665 -0.079489
      ESP Fit Center   91 is at  -2.041931  4.780655 -0.079489
      ESP Fit Center   92 is at  -2.798712  4.710529 -0.079489
      ESP Fit Center   93 is at  -3.479057  4.371758 -0.079489
      ESP Fit Center   94 is at  -3.991082  3.810094 -0.079489
      ESP Fit Center   95 is at  -1.670756  4.451023 -0.764828
      ESP Fit Center   96 is at  -2.422852  4.530072 -0.764828
      ESP Fit Center   97 is at  -3.142078  4.296381 -0.764828
      ESP Fit Center   98 is at  -3.704072  3.790359 -0.764828
      ESP Fit Center   99 is at  -1.672001  3.949252 -1.323521
      ESP Fit Center  100 is at  -2.424855  4.057496 -1.323521
      ESP Fit Center  101 is at  -3.116717  3.741533 -1.323521
      ESP Fit Center  102 is at  -3.527926  3.101679 -1.323521
      ESP Fit Center  103 is at  -1.514509  2.721381 -1.688182
      ESP Fit Center  104 is at  -1.873630  3.343397 -1.688182
      ESP Fit Center  105 is at  -2.591872  3.343397 -1.688182
      ESP Fit Center  106 is at  -2.950993  2.721381 -1.688182
      ESP Fit Center  107 is at  -1.873630  2.099365 -1.688182
      ESP Fit Center  108 is at  -2.232751  2.721381 -1.814828
      ESP Fit Center  109 is at   0.920443  0.981643  2.098187
      ESP Fit Center  110 is at   1.279564  1.603659  1.971542
      ESP Fit Center  111 is at   0.561322  1.603659  1.971542
      ESP Fit Center  112 is at   2.056012  1.711429  1.606880
      ESP Fit Center  113 is at   0.728339  2.317757  1.606880
      ESP Fit Center  114 is at   2.056012  0.251857 -1.610506
      ESP Fit Center  115 is at   0.202201  0.981643 -1.975167
      ESP Fit Center  116 is at   1.279564  0.359627 -1.975167
      ESP Fit Center  117 is at   0.920443  0.981643 -2.101813
      ESP Fit Center  118 is at   1.779934  1.996516  1.641714
      ESP Fit Center  119 is at   2.498176  1.996516  1.515069
      ESP Fit Center  120 is at   2.139055  2.618532  1.515069
      ESP Fit Center  121 is at   1.420813  2.618532  1.515069
      ESP Fit Center  122 is at   2.340684  3.224386  1.150407
      ESP Fit Center  123 is at   1.587830  3.332630  1.150407
      ESP Fit Center  124 is at   0.895968  3.016668  1.150407
      ESP Fit Center  125 is at   2.341929  3.726158  0.591714
      ESP Fit Center  126 is at   2.701764  3.847800 -0.093625
      ESP Fit Center  127 is at   0.484759  2.376814 -2.066979
      ESP Fit Center  128 is at   0.484759  1.616218 -2.066979
      ESP Fit Center  129 is at   1.587830  0.660402 -2.066979
      ESP Fit Center  130 is at   2.139055  2.618532 -2.431640
      ESP Fit Center  131 is at   1.420813  2.618532 -2.431640
      ESP Fit Center  132 is at   1.061692  1.996516 -2.431640
      ESP Fit Center  133 is at   1.420813  1.374500 -2.431640
      ESP Fit Center  134 is at   2.139055  1.374500 -2.431640
      ESP Fit Center  135 is at   1.779934  1.996516 -2.558286
      ESP Fit Center  136 is at   3.163272  1.797932  1.529116
      ESP Fit Center  137 is at   3.522393  2.419948  1.402471
      ESP Fit Center  138 is at   2.804151  2.419948  1.402471
      ESP Fit Center  139 is at   4.298841  2.527718  1.037809
      ESP Fit Center  140 is at   3.724022  3.025802  1.037809
      ESP Fit Center  141 is at   2.971168  3.134046  1.037809
      ESP Fit Center  142 is at   4.824695  2.537645  0.479116
      ESP Fit Center  143 is at   3.725267  3.527574  0.479116
      ESP Fit Center  144 is at   2.973171  3.606623  0.479116
      ESP Fit Center  145 is at   2.279306  0.777780 -2.179577
      ESP Fit Center  146 is at   4.298841  1.068146 -2.179577
      ESP Fit Center  147 is at   3.881514  1.797932 -2.544238
      ESP Fit Center  148 is at   2.804151  2.419948 -2.544238
      ESP Fit Center  149 is at   2.445030  1.797932 -2.544238
      ESP Fit Center  150 is at   2.804151  1.175916 -2.544238
      ESP Fit Center  151 is at   3.522393  1.175916 -2.544238
      ESP Fit Center  152 is at   3.163272  1.797932 -2.670884
      ESP Fit Center  153 is at   3.649471  0.555374  1.889406
      ESP Fit Center  154 is at   4.367713  0.555374  1.762761
      ESP Fit Center  155 is at   4.008592  1.177390  1.762761
      ESP Fit Center  156 is at   3.290350  1.177390  1.762761
      ESP Fit Center  157 is at   4.785040  1.285160  1.398099
      ESP Fit Center  158 is at   4.210221  1.783244  1.398099
      ESP Fit Center  159 is at   4.866388  1.906897  0.839406
      ESP Fit Center  160 is at   4.785040  1.285160 -1.819287
      ESP Fit Center  161 is at   2.354296  0.175076 -1.819287
      ESP Fit Center  162 is at   3.457367 -0.780740 -1.819287
      ESP Fit Center  163 is at   4.367713  0.555374 -2.183948
      ESP Fit Center  164 is at   3.290350 -0.066642 -2.183948
      ESP Fit Center  165 is at   4.008592 -0.066642 -2.183948
      ESP Fit Center  166 is at   3.649471  0.555374 -2.310594
      ESP Fit Center  167 is at   2.805642 -0.455047  2.347678
      ESP Fit Center  168 is at   3.523884 -0.455047  2.221033
      ESP Fit Center  169 is at   3.164763  0.166969  2.221033
      ESP Fit Center  170 is at   2.446521  0.166969  2.221033
      ESP Fit Center  171 is at   2.446521 -1.077063  2.221033
      ESP Fit Center  172 is at   3.941211  0.274739  1.856371
      ESP Fit Center  173 is at   2.613538  0.881067  1.856371
      ESP Fit Center  174 is at   1.896315 -2.030047 -0.802322
      ESP Fit Center  175 is at   1.921676 -1.475199 -1.361015
      ESP Fit Center  176 is at   2.613538 -1.791161 -1.361015
      ESP Fit Center  177 is at   2.087400 -0.455047 -1.725676
      ESP Fit Center  178 is at   2.446521 -1.077063 -1.725676
      ESP Fit Center  179 is at   3.164763 -1.077063 -1.725676
      ESP Fit Center  180 is at   2.805642 -0.455047 -1.852322
      ESP Fit Center  181 is at   1.445104 -0.281820  2.468640
      ESP Fit Center  182 is at   2.163346 -0.281820  2.341995
      ESP Fit Center  183 is at   1.804225  0.340196  2.341995
      ESP Fit Center  184 is at   1.085983  0.340196  2.341995
      ESP Fit Center  185 is at   0.726862 -0.281820  2.341995
      ESP Fit Center  186 is at   1.804225 -0.903836  2.341995
      ESP Fit Center  187 is at   2.005854  0.946050  1.977333
      ESP Fit Center  188 is at   2.005854 -1.509690  1.977333
      ESP Fit Center  189 is at   1.804225 -0.903836 -1.604714
      ESP Fit Center  190 is at   1.445104 -0.281820 -1.731360
      ESP Fit Center  191 is at   3.543351 -1.577035  2.495609
      ESP Fit Center  192 is at   3.918381 -0.927464  2.346413
      ESP Fit Center  193 is at   3.168321 -0.927464  2.346413
      ESP Fit Center  194 is at   2.793291 -1.577035  2.346413
      ESP Fit Center  195 is at   3.168321 -2.226606  2.346413
      ESP Fit Center  196 is at   3.918381 -2.226606  2.346413
      ESP Fit Center  197 is at   2.157422 -1.577035  1.921538
      ESP Fit Center  198 is at   2.343101 -2.270000  1.921538
      ESP Fit Center  199 is at   2.850386 -2.777285  1.921538
      ESP Fit Center  200 is at   3.543351 -2.962964  1.921538
      ESP Fit Center  201 is at   4.236315 -2.777285  1.921538
      ESP Fit Center  202 is at   2.078380 -2.641399  1.285669
      ESP Fit Center  203 is at   2.637949 -3.145237  1.285669
      ESP Fit Center  204 is at   3.354070 -3.377919  1.285669
      ESP Fit Center  205 is at   4.102920 -3.299212  1.285669
      ESP Fit Center  206 is at   1.876925 -2.608842  0.535609
      ESP Fit Center  207 is at   2.362187 -3.141149  0.535609
      ESP Fit Center  208 is at   3.006971 -3.462213  0.535609
      ESP Fit Center  209 is at   3.724197 -3.528674  0.535609
      ESP Fit Center  210 is at   4.416998 -3.331555  0.535609
      ESP Fit Center  211 is at   2.078380 -2.641399 -0.214450
      ESP Fit Center  212 is at   2.637949 -3.145237 -0.214450
      ESP Fit Center  213 is at   3.354070 -3.377919 -0.214450
      ESP Fit Center  214 is at   4.102920 -3.299212 -0.214450
      ESP Fit Center  215 is at   2.343101 -2.270000 -0.850320
      ESP Fit Center  216 is at   2.850386 -2.777285 -0.850320
      ESP Fit Center  217 is at   3.543351 -2.962964 -0.850320
      ESP Fit Center  218 is at   3.168321 -2.226606 -1.275195
      ESP Fit Center  219 is at   3.918381 -2.226606 -1.275195
      ESP Fit Center  220 is at   3.543351 -1.577035 -1.424391
      ESP Fit Center  221 is at   4.718499  0.110774  1.907977
      ESP Fit Center  222 is at   4.720502 -3.034031  1.349284
      ESP Fit Center  223 is at   5.472598 -2.954982  1.349284
      ESP Fit Center  224 is at   5.101423 -3.284614  0.663945
      ESP Fit Center  225 is at   6.438944 -2.618608  0.663945
      ESP Fit Center  226 is at   6.978699 -1.225340 -0.065377
      ESP Fit Center  227 is at   6.839045 -0.478258 -0.065377
      ESP Fit Center  228 is at   4.192361 -1.225340 -1.674070
      ESP Fit Center  229 is at   5.317566  0.756744  1.578790
      ESP Fit Center  230 is at   6.142786  0.800139  1.153915
      ESP Fit Center  231 is at   5.635501  1.307424  1.153915
      ESP Fit Center  232 is at   4.942536  1.493103  1.153915
      ESP Fit Center  233 is at   6.753340  0.107174  0.518046
      ESP Fit Center  234 is at   6.596788  0.843694  0.518046
      ESP Fit Center  235 is at   6.154200  1.452863  0.518046
      ESP Fit Center  236 is at   5.502105  1.829351  0.518046
      ESP Fit Center  237 is at   6.902536  0.107174 -0.232014
      ESP Fit Center  238 is at   6.770181  0.815208 -0.232014
      ESP Fit Center  239 is at   6.390993  1.427617 -0.232014
      ESP Fit Center  240 is at   5.816183  1.861694 -0.232014
      ESP Fit Center  241 is at   6.753340  0.107174 -0.982073
      ESP Fit Center  242 is at   6.596788  0.843694 -0.982073
      ESP Fit Center  243 is at   6.154200  1.452863 -0.982073
      ESP Fit Center  244 is at   5.502105  1.829351 -0.982073
      ESP Fit Center  245 is at   6.596788 -0.629346 -0.982073
      ESP Fit Center  246 is at   6.328465  0.107174 -1.617943
      ESP Fit Center  247 is at   6.142786  0.800139 -1.617943
      ESP Fit Center  248 is at   5.635501  1.307424 -1.617943
      ESP Fit Center  249 is at   6.142786 -0.585791 -1.617943
      ESP Fit Center  250 is at   5.692595  0.107174 -2.042818
      ESP Fit Center  251 is at   5.317566  0.756744 -2.042818
      ESP Fit Center  252 is at   4.567506 -0.542397 -2.042818
      ESP Fit Center  253 is at   5.317566 -0.542397 -2.042818
      ESP Fit Center  254 is at   4.942536  0.107174 -2.192014
      ESP Fit Center  255 is at  -1.998020 -1.523259  3.616355
      ESP Fit Center  256 is at  -1.260579 -1.523259  3.543723
      ESP Fit Center  257 is at  -1.629299 -0.884616  3.543723
      ESP Fit Center  258 is at  -2.366741 -0.884616  3.543723
      ESP Fit Center  259 is at  -2.735462 -1.523259  3.543723
      ESP Fit Center  260 is at  -2.366741 -2.161902  3.543723
      ESP Fit Center  261 is at  -1.629299 -2.161902  3.543723
      ESP Fit Center  262 is at  -0.551477 -1.523259  3.328620
      ESP Fit Center  263 is at  -0.745277 -0.799987  3.328620
      ESP Fit Center  264 is at  -1.274748 -0.270516  3.328620
      ESP Fit Center  265 is at  -1.998020 -0.076715  3.328620
      ESP Fit Center  266 is at  -2.721292 -0.270516  3.328620
      ESP Fit Center  267 is at  -3.250763 -0.799987  3.328620
      ESP Fit Center  268 is at  -3.444564 -1.523259  3.328620
      ESP Fit Center  269 is at  -3.250763 -2.246531  3.328620
      ESP Fit Center  270 is at  -2.721292 -2.776002  3.328620
      ESP Fit Center  271 is at  -1.998020 -2.969802  3.328620
      ESP Fit Center  272 is at  -1.274748 -2.776002  3.328620
      ESP Fit Center  273 is at  -0.745277 -2.246531  3.328620
      ESP Fit Center  274 is at   0.102035 -1.523259  2.979310
      ESP Fit Center  275 is at  -0.024614 -0.804998  2.979310
      ESP Fit Center  276 is at  -0.389284 -0.173369  2.979310
      ESP Fit Center  277 is at  -0.947992  0.295443  2.979310
      ESP Fit Center  278 is at  -1.633349  0.544892  2.979310
      ESP Fit Center  279 is at  -2.362691  0.544892  2.979310
      ESP Fit Center  280 is at  -3.048048  0.295443  2.979310
      ESP Fit Center  281 is at  -3.606756 -0.173369  2.979310
      ESP Fit Center  282 is at  -3.971427 -0.804998  2.979310
      ESP Fit Center  283 is at  -4.098076 -1.523259  2.979310
      ESP Fit Center  284 is at  -3.971427 -2.241520  2.979310
      ESP Fit Center  285 is at  -3.606756 -2.873148  2.979310
      ESP Fit Center  286 is at  -3.048048 -3.341960  2.979310
      ESP Fit Center  287 is at  -2.362691 -3.591410  2.979310
      ESP Fit Center  288 is at  -1.633349 -3.591410  2.979310
      ESP Fit Center  289 is at  -0.947992 -3.341960  2.979310
      ESP Fit Center  290 is at  -0.389284 -2.873148  2.979310
      ESP Fit Center  291 is at  -0.024614 -2.241520  2.979310
      ESP Fit Center  292 is at   0.674843 -1.523259  2.509219
      ESP Fit Center  293 is at   0.575726 -0.802129  2.509219
      ESP Fit Center  294 is at   0.285726 -0.134482  2.509219
      ESP Fit Center  295 is at  -0.173649  0.430166  2.509219
      ESP Fit Center  296 is at  -0.768329  0.849937  2.509219
      ESP Fit Center  297 is at  -1.454210  1.093699  2.509219
      ESP Fit Center  298 is at  -2.180423  1.143374  2.509219
      ESP Fit Center  299 is at  -2.893108  0.995276  2.509219
      ESP Fit Center  300 is at  -3.539408  0.660390  2.509219
      ESP Fit Center  301 is at  -4.449601 -0.458387  2.509219
      ESP Fit Center  302 is at  -4.645989 -1.159304  2.509219
      ESP Fit Center  303 is at  -4.645989 -1.887214  2.509219
      ESP Fit Center  304 is at  -4.449601 -2.588131  2.509219
      ESP Fit Center  305 is at  -4.071391 -3.210071  2.509219
      ESP Fit Center  306 is at  -3.539408 -3.706908  2.509219
      ESP Fit Center  307 is at  -2.893108 -4.041794  2.509219
      ESP Fit Center  308 is at  -2.180423 -4.189891  2.509219
      ESP Fit Center  309 is at  -1.454210 -4.140217  2.509219
      ESP Fit Center  310 is at  -0.768329 -3.896455  2.509219
      ESP Fit Center  311 is at  -0.173649 -3.476684  2.509219
      ESP Fit Center  312 is at   0.285726 -2.912036  2.509219
      ESP Fit Center  313 is at   0.575726 -2.244389  2.509219
      ESP Fit Center  314 is at  -5.119724 -1.158384  1.936411
      ESP Fit Center  315 is at  -5.119724 -1.888134  1.936411
      ESP Fit Center  316 is at  -4.951432 -2.598213  1.936411
      ESP Fit Center  317 is at  -4.623921 -3.250341  1.936411
      ESP Fit Center  318 is at  -4.154847 -3.809362  1.936411
      ESP Fit Center  319 is at  -3.569498 -4.245138  1.936411
      ESP Fit Center  320 is at  -2.899430 -4.534177  1.936411
      ESP Fit Center  321 is at  -2.180767 -4.660897  1.936411
      ESP Fit Center  322 is at  -1.452252 -4.618465  1.936411
      ESP Fit Center  323 is at  -0.753159 -4.409171  1.936411
      ESP Fit Center  324 is at  -0.121177 -4.044296  1.936411
      ESP Fit Center  325 is at   0.409623 -3.543511  1.936411
      ESP Fit Center  326 is at   0.810627 -2.933815  1.936411
      ESP Fit Center  327 is at   1.060216 -2.248074  1.936411
      ESP Fit Center  328 is at  -5.413970 -0.797176  1.282898
      ESP Fit Center  329 is at  -5.490285 -1.523259  1.282898
      ESP Fit Center  330 is at  -5.413970 -2.249341  1.282898
      ESP Fit Center  331 is at  -5.188363 -2.943691  1.282898
      ESP Fit Center  332 is at  -4.823322 -3.575960  1.282898
      ESP Fit Center  333 is at  -4.334801 -4.118517  1.282898
      ESP Fit Center  334 is at  -3.744152 -4.547649  1.282898
      ESP Fit Center  335 is at  -3.077189 -4.844600  1.282898
      ESP Fit Center  336 is at  -2.363061 -4.996392  1.282898
      ESP Fit Center  337 is at  -1.632979 -4.996392  1.282898
      ESP Fit Center  338 is at  -0.918851 -4.844600  1.282898
      ESP Fit Center  339 is at  -0.251888 -4.547649  1.282898
      ESP Fit Center  340 is at   0.338761 -4.118517  1.282898
      ESP Fit Center  341 is at   0.827281 -3.575960  1.282898
      ESP Fit Center  342 is at   1.192322 -2.943691  1.282898
      ESP Fit Center  343 is at  -5.634152 -0.799987  0.573796
      ESP Fit Center  344 is at  -5.705389 -1.523259  0.573796
      ESP Fit Center  345 is at  -5.634152 -2.246531  0.573796
      ESP Fit Center  346 is at  -5.423182 -2.942007  0.573796
      ESP Fit Center  347 is at  -5.080584 -3.582962  0.573796
      ESP Fit Center  348 is at  -4.619525 -4.144764  0.573796
      ESP Fit Center  349 is at  -4.057724 -4.605823  0.573796
      ESP Fit Center  350 is at  -3.416769 -4.948421  0.573796
      ESP Fit Center  351 is at  -2.721292 -5.159391  0.573796
      ESP Fit Center  352 is at  -1.998020 -5.230627  0.573796
      ESP Fit Center  353 is at  -1.274748 -5.159391  0.573796
      ESP Fit Center  354 is at  -0.579272 -4.948421  0.573796
      ESP Fit Center  355 is at   0.061683 -4.605823  0.573796
      ESP Fit Center  356 is at   0.623485 -4.144764  0.573796
      ESP Fit Center  357 is at   1.084544 -3.582962  0.573796
      ESP Fit Center  358 is at   1.427142 -2.942007  0.573796
      ESP Fit Center  359 is at  -5.624904 -0.458310 -0.163645
      ESP Fit Center  360 is at  -5.760904 -1.163947 -0.163645
      ESP Fit Center  361 is at  -5.760904 -1.882571 -0.163645
      ESP Fit Center  362 is at  -5.624904 -2.588208 -0.163645
      ESP Fit Center  363 is at  -5.357818 -3.255355 -0.163645
      ESP Fit Center  364 is at  -4.969301 -3.859900 -0.163645
      ESP Fit Center  365 is at  -4.473394 -4.379992 -0.163645
      ESP Fit Center  366 is at  -3.888020 -4.796835 -0.163645
      ESP Fit Center  367 is at  -3.234337 -5.095362 -0.163645
      ESP Fit Center  368 is at  -2.535970 -5.264784 -0.163645
      ESP Fit Center  369 is at  -1.818161 -5.298977 -0.163645
      ESP Fit Center  370 is at  -1.106851 -5.196707 -0.163645
      ESP Fit Center  371 is at  -0.427751 -4.961668 -0.163645
      ESP Fit Center  372 is at   0.194595 -4.602356 -0.163645
      ESP Fit Center  373 is at   0.737695 -4.131757 -0.163645
      ESP Fit Center  374 is at   1.181918 -3.566881 -0.163645
      ESP Fit Center  375 is at   1.511211 -2.928143 -0.163645
      ESP Fit Center  376 is at  -5.634152 -0.799987 -0.901086
      ESP Fit Center  377 is at  -5.705389 -1.523259 -0.901086
      ESP Fit Center  378 is at  -5.634152 -2.246531 -0.901086
      ESP Fit Center  379 is at  -5.423182 -2.942007 -0.901086
      ESP Fit Center  380 is at  -5.080584 -3.582962 -0.901086
      ESP Fit Center  381 is at  -4.619525 -4.144764 -0.901086
      ESP Fit Center  382 is at  -4.057724 -4.605823 -0.901086
      ESP Fit Center  383 is at  -3.416769 -4.948421 -0.901086
      ESP Fit Center  384 is at  -2.721292 -5.159391 -0.901086
      ESP Fit Center  385 is at  -1.998020 -5.230627 -0.901086
      ESP Fit Center  386 is at  -1.274748 -5.159391 -0.901086
      ESP Fit Center  387 is at  -0.579272 -4.948421 -0.901086
      ESP Fit Center  388 is at   0.061683 -4.605823 -0.901086
      ESP Fit Center  389 is at   0.623485 -4.144764 -0.901086
      ESP Fit Center  390 is at   1.084544 -3.582962 -0.901086
      ESP Fit Center  391 is at   1.427142 -2.942007 -0.901086
      ESP Fit Center  392 is at   1.638112 -2.246531 -0.901086
      ESP Fit Center  393 is at   1.494244 -1.523259 -1.610188
      ESP Fit Center  394 is at  -1.632979  1.949875 -1.610188
      ESP Fit Center  395 is at  -5.413970 -0.797176 -1.610188
      ESP Fit Center  396 is at  -5.490285 -1.523259 -1.610188
      ESP Fit Center  397 is at  -5.413970 -2.249341 -1.610188
      ESP Fit Center  398 is at  -5.188363 -2.943691 -1.610188
      ESP Fit Center  399 is at  -4.823322 -3.575960 -1.610188
      ESP Fit Center  400 is at  -4.334801 -4.118517 -1.610188
      ESP Fit Center  401 is at  -3.744152 -4.547649 -1.610188
      ESP Fit Center  402 is at  -3.077189 -4.844600 -1.610188
      ESP Fit Center  403 is at  -2.363061 -4.996392 -1.610188
      ESP Fit Center  404 is at  -1.632979 -4.996392 -1.610188
      ESP Fit Center  405 is at  -0.918851 -4.844600 -1.610188
      ESP Fit Center  406 is at  -0.251888 -4.547649 -1.610188
      ESP Fit Center  407 is at   0.338761 -4.118517 -1.610188
      ESP Fit Center  408 is at   0.827281 -3.575960 -1.610188
      ESP Fit Center  409 is at   1.192322 -2.943691 -1.610188
      ESP Fit Center  410 is at   1.417930 -2.249341 -1.610188
      ESP Fit Center  411 is at   1.144935 -1.523259 -2.263700
      ESP Fit Center  412 is at   1.060216 -0.798444 -2.263700
      ESP Fit Center  413 is at   0.810627 -0.112703 -2.263700
      ESP Fit Center  414 is at   0.409623  0.496994 -2.263700
      ESP Fit Center  415 is at  -0.121177  0.997778 -2.263700
      ESP Fit Center  416 is at  -0.753159  1.362653 -2.263700
      ESP Fit Center  417 is at  -1.452252  1.571948 -2.263700
      ESP Fit Center  418 is at  -2.180767  1.614379 -2.263700
      ESP Fit Center  419 is at  -2.899430  1.487659 -2.263700
      ESP Fit Center  420 is at  -3.569498  1.198620 -2.263700
      ESP Fit Center  421 is at  -4.623921  0.203823 -2.263700
      ESP Fit Center  422 is at  -4.951432 -0.448305 -2.263700
      ESP Fit Center  423 is at  -5.119724 -1.158384 -2.263700
      ESP Fit Center  424 is at  -5.119724 -1.888134 -2.263700
      ESP Fit Center  425 is at  -4.951432 -2.598213 -2.263700
      ESP Fit Center  426 is at  -4.623921 -3.250341 -2.263700
      ESP Fit Center  427 is at  -4.154847 -3.809362 -2.263700
      ESP Fit Center  428 is at  -3.569498 -4.245138 -2.263700
      ESP Fit Center  429 is at  -2.899430 -4.534177 -2.263700
      ESP Fit Center  430 is at  -2.180767 -4.660897 -2.263700
      ESP Fit Center  431 is at  -1.452252 -4.618465 -2.263700
      ESP Fit Center  432 is at  -0.753159 -4.409171 -2.263700
      ESP Fit Center  433 is at  -0.121177 -4.044296 -2.263700
      ESP Fit Center  434 is at   0.409623 -3.543511 -2.263700
      ESP Fit Center  435 is at   0.810627 -2.933815 -2.263700
      ESP Fit Center  436 is at   1.060216 -2.248074 -2.263700
      ESP Fit Center  437 is at   0.674843 -1.523259 -2.836509
      ESP Fit Center  438 is at   0.575726 -0.802129 -2.836509
      ESP Fit Center  439 is at   0.285726 -0.134482 -2.836509
      ESP Fit Center  440 is at  -0.173649  0.430166 -2.836509
      ESP Fit Center  441 is at  -0.768329  0.849937 -2.836509
      ESP Fit Center  442 is at  -1.454210  1.093699 -2.836509
      ESP Fit Center  443 is at  -2.180423  1.143374 -2.836509
      ESP Fit Center  444 is at  -2.893108  0.995276 -2.836509
      ESP Fit Center  445 is at  -3.539408  0.660390 -2.836509
      ESP Fit Center  446 is at  -4.071391  0.163553 -2.836509
      ESP Fit Center  447 is at  -4.449601 -0.458387 -2.836509
      ESP Fit Center  448 is at  -4.645989 -1.159304 -2.836509
      ESP Fit Center  449 is at  -4.645989 -1.887214 -2.836509
      ESP Fit Center  450 is at  -4.449601 -2.588131 -2.836509
      ESP Fit Center  451 is at  -4.071391 -3.210071 -2.836509
      ESP Fit Center  452 is at  -3.539408 -3.706908 -2.836509
      ESP Fit Center  453 is at  -2.893108 -4.041794 -2.836509
      ESP Fit Center  454 is at  -2.180423 -4.189891 -2.836509
      ESP Fit Center  455 is at  -1.454210 -4.140217 -2.836509
      ESP Fit Center  456 is at  -0.768329 -3.896455 -2.836509
      ESP Fit Center  457 is at  -0.173649 -3.476684 -2.836509
      ESP Fit Center  458 is at   0.285726 -2.912036 -2.836509
      ESP Fit Center  459 is at   0.575726 -2.244389 -2.836509
      ESP Fit Center  460 is at   0.102035 -1.523259 -3.306600
      ESP Fit Center  461 is at  -0.024614 -0.804998 -3.306600
      ESP Fit Center  462 is at  -0.389284 -0.173369 -3.306600
      ESP Fit Center  463 is at  -0.947992  0.295443 -3.306600
      ESP Fit Center  464 is at  -1.633349  0.544892 -3.306600
      ESP Fit Center  465 is at  -2.362691  0.544892 -3.306600
      ESP Fit Center  466 is at  -3.048048  0.295443 -3.306600
      ESP Fit Center  467 is at  -3.606756 -0.173369 -3.306600
      ESP Fit Center  468 is at  -3.971427 -0.804998 -3.306600
      ESP Fit Center  469 is at  -4.098076 -1.523259 -3.306600
      ESP Fit Center  470 is at  -3.971427 -2.241520 -3.306600
      ESP Fit Center  471 is at  -3.606756 -2.873148 -3.306600
      ESP Fit Center  472 is at  -3.048048 -3.341960 -3.306600
      ESP Fit Center  473 is at  -2.362691 -3.591410 -3.306600
      ESP Fit Center  474 is at  -1.633349 -3.591410 -3.306600
      ESP Fit Center  475 is at  -0.947992 -3.341960 -3.306600
      ESP Fit Center  476 is at  -0.389284 -2.873148 -3.306600
      ESP Fit Center  477 is at  -0.024614 -2.241520 -3.306600
      ESP Fit Center  478 is at  -0.551477 -1.523259 -3.655910
      ESP Fit Center  479 is at  -0.745277 -0.799987 -3.655910
      ESP Fit Center  480 is at  -1.274748 -0.270516 -3.655910
      ESP Fit Center  481 is at  -1.998020 -0.076715 -3.655910
      ESP Fit Center  482 is at  -2.721292 -0.270516 -3.655910
      ESP Fit Center  483 is at  -3.250763 -0.799987 -3.655910
      ESP Fit Center  484 is at  -3.444564 -1.523259 -3.655910
      ESP Fit Center  485 is at  -3.250763 -2.246531 -3.655910
      ESP Fit Center  486 is at  -2.721292 -2.776002 -3.655910
      ESP Fit Center  487 is at  -1.998020 -2.969802 -3.655910
      ESP Fit Center  488 is at  -1.274748 -2.776002 -3.655910
      ESP Fit Center  489 is at  -0.745277 -2.246531 -3.655910
      ESP Fit Center  490 is at  -1.260579 -1.523259 -3.871013
      ESP Fit Center  491 is at  -1.629299 -0.884616 -3.871013
      ESP Fit Center  492 is at  -2.366741 -0.884616 -3.871013
      ESP Fit Center  493 is at  -2.735462 -1.523259 -3.871013
      ESP Fit Center  494 is at  -2.366741 -2.161902 -3.871013
      ESP Fit Center  495 is at  -1.629299 -2.161902 -3.871013
      ESP Fit Center  496 is at  -1.998020 -1.523259 -3.943645
      ESP Fit Center  497 is at  -6.137442  0.406535 -0.309037
      ESP Fit Center  498 is at  -5.773127 -0.287609 -0.309037
      ESP Fit Center  499 is at  -5.773127  1.884620 -1.056707
      ESP Fit Center  500 is at  -6.137442  1.190475 -1.056707
      ESP Fit Center  501 is at  -6.137442  0.406535 -1.056707
      ESP Fit Center  502 is at  -5.773127 -0.287609 -1.056707
      ESP Fit Center  503 is at  -4.141270  2.047696 -1.730335
      ESP Fit Center  504 is at  -4.953044  2.047696 -1.730335
      ESP Fit Center  505 is at  -5.609782  1.570548 -1.730335
      ESP Fit Center  506 is at  -5.860634  0.798505 -1.730335
      ESP Fit Center  507 is at  -5.609782  0.026463 -1.730335
      ESP Fit Center  508 is at  -4.182695  1.429773 -2.196500
      ESP Fit Center  509 is at  -4.911619  1.429773 -2.196500
      ESP Fit Center  510 is at  -5.276082  0.798505 -2.196500
      ESP Fit Center  511 is at  -4.911619  0.167238 -2.196500
      ESP Fit Center  512 is at  -4.547157  0.798505 -2.362872
      ESP Fit Center  513 is at  -4.489603  0.648020  2.756305
      ESP Fit Center  514 is at  -3.760678  0.648020  2.589933
      ESP Fit Center  515 is at  -4.125141  1.279288  2.589933
      ESP Fit Center  516 is at  -4.854065  1.279288  2.589933
      ESP Fit Center  517 is at  -5.218528  0.648020  2.589933
      ESP Fit Center  518 is at  -4.854065  0.016753  2.589933
      ESP Fit Center  519 is at  -4.125141  0.016753  2.589933
      ESP Fit Center  520 is at  -4.895490  1.897211  2.123768
      ESP Fit Center  521 is at  -5.552228  1.420063  2.123768
      ESP Fit Center  522 is at  -5.803080  0.648020  2.123768
      ESP Fit Center  523 is at  -5.552228 -0.124022  2.123768
      ESP Fit Center  524 is at  -4.895490 -0.601170  2.123768
      ESP Fit Center  525 is at  -6.079888  1.039990  1.450140
      ESP Fit Center  526 is at  -6.079888  0.256050  1.450140
      ESP Fit Center  527 is at  -5.715573 -0.438094  1.450140
      ESP Fit Center  528 is at  -6.079888  0.256050  0.702470
      ESP Fit Center  529 is at  -5.715573 -0.438094  0.702470
      ESP Fit Center  530 is at  -4.351224  2.881396  1.847038
[...]
 3462 Fit      -0.003243
 3463 Fit      -0.004021
 3464 Fit      -0.004446
 3465 Fit      -0.004237
 3466 Fit      -0.003317
 3467 Fit      -0.001977
 3468 Fit      -0.000712
 3469 Fit       0.000105
 3470 Fit       0.000409
 3471 Fit       0.000372
 3472 Fit       0.000211
 3473 Fit       0.000060
 3474 Fit      -0.000034
 3475 Fit      -0.000083
 3476 Fit      -0.000116
 3477 Fit      -0.000161
 3478 Fit      -0.000229
 3479 Fit      -0.000324
 3480 Fit      -0.000440
 3481 Fit      -0.000582
 3482 Fit      -0.000774
 3483 Fit      -0.001063
 3484 Fit      -0.001565
 3485 Fit      -0.002383
 3486 Fit      -0.003412
 3487 Fit      -0.004519
 3488 Fit      -0.005572
 3489 Fit      -0.006299
 3490 Fit      -0.006310
 3491 Fit      -0.005354
 3492 Fit      -0.003595
 3493 Fit      -0.001600
 3494 Fit       0.000042
 3495 Fit       0.001000
 3496 Fit       0.001283
 3497 Fit       0.001136
 3498 Fit       0.000836
 3499 Fit       0.000555
 3500 Fit       0.000362
 3501 Fit       0.000259
 3502 Fit       0.000218
 3503 Fit       0.000202
 3504 Fit       0.000178
 3505 Fit       0.000125
 3506 Fit       0.000037
 3507 Fit      -0.000085
 3508 Fit      -0.000236
 3509 Fit      -0.000413
 3510 Fit      -0.000602
 3511 Fit      -0.000797
 3512 Fit      -0.001372
 3513 Fit      -0.001708
 3514 Fit      -0.002523
 3515 Fit      -0.003665
 3516 Fit      -0.004918
 3517 Fit      -0.006281
 3518 Fit      -0.007736
 3519 Fit      -0.008965
 3520 Fit      -0.009430
 3521 Fit      -0.008642
 3522 Fit      -0.006513
 3523 Fit      -0.003652
 3524 Fit      -0.000928
 3525 Fit       0.001089
 3526 Fit       0.002167
 3527 Fit       0.002389
 3528 Fit       0.002088
 3529 Fit       0.001610
 3530 Fit       0.001164
 3531 Fit       0.000837
 3532 Fit       0.000638
 3533 Fit       0.000546
 3534 Fit       0.000523
 3535 Fit       0.000528
 3536 Fit       0.000528
 3537 Fit       0.000500
 3538 Fit       0.000429
 3539 Fit       0.000312
 3540 Fit       0.000148
 3541 Fit      -0.000066
 3542 Fit      -0.000339
 3543 Fit      -0.000672
 3544 Fit      -0.001013
 3545 Fit      -0.001246
 3546 Fit      -0.002561
 3547 Fit      -0.002269
 3548 Fit      -0.002975
 3549 Fit      -0.004346
 3550 Fit      -0.005760
 3551 Fit      -0.007198
 3552 Fit      -0.009003
 3553 Fit      -0.011224
 3554 Fit      -0.013229
 3555 Fit      -0.014260
 3556 Fit      -0.013532
 3557 Fit      -0.010546
 3558 Fit      -0.006215
 3559 Fit      -0.002090
 3560 Fit       0.001033
 3561 Fit       0.002963
 3562 Fit       0.003679
 3563 Fit       0.003477
 3564 Fit       0.002847
 3565 Fit       0.002160
 3566 Fit       0.001589
 3567 Fit       0.001187
 3568 Fit       0.000946
 3569 Fit       0.000835
 3570 Fit       0.000813
 3571 Fit       0.000837
 3572 Fit       0.000870
 3573 Fit       0.000881
 3574 Fit       0.000850
 3575 Fit       0.000766
 3576 Fit       0.000624
 3577 Fit       0.000422
 3578 Fit       0.000145
 3579 Fit      -0.000237
 3580 Fit      -0.000781
 3581 Fit      -0.001524
 3582 Fit      -0.002353
 3583 Fit      -0.002827
 3584 Fit       0.004900
 3585 Fit       0.004281
 3586 Fit       0.003402
 3587 Fit       0.002580
 3588 Fit       0.001934
 3589 Fit       0.001486
 3590 Fit       0.001218
 3591 Fit       0.001092
 3592 Fit       0.001070
 3593 Fit       0.001108
 3594 Fit       0.001169
 3595 Fit       0.001220
 3596 Fit       0.001236
 3597 Fit       0.001200
 3598 Fit       0.001103
 3599 Fit       0.000942
 3600 Fit       0.000710
 3601 Fit       0.000389
 3602 Fit      -0.000066
 3603 Fit      -0.000759
 3604 Fit      -0.001868
 3605 Fit      -0.003615
 3606 Fit       0.005188
 3607 Fit       0.004207
 3608 Fit       0.003252
 3609 Fit       0.002474
 3610 Fit       0.001908
 3611 Fit       0.001542
 3612 Fit       0.001346
 3613 Fit       0.001280
 3614 Fit       0.001305
 3615 Fit       0.001379
 3616 Fit       0.001468
 3617 Fit       0.001541
 3618 Fit       0.001572
 3619 Fit       0.001547
 3620 Fit       0.001455
 3621 Fit       0.001293
 3622 Fit       0.001055
 3623 Fit       0.000728
 3624 Fit       0.000268
 3625 Fit      -0.000428
 3626 Fit      -0.001591
 3627 Fit      -0.003696
 3628 Fit       0.005315
 3629 Fit       0.004297
 3630 Fit       0.003352
 3631 Fit       0.002588
 3632 Fit       0.002033
 3633 Fit       0.001676
 3634 Fit       0.001490
 3635 Fit       0.001438
 3636 Fit       0.001479
 3637 Fit       0.001576
 3638 Fit       0.001691
 3639 Fit       0.001792
 3640 Fit       0.001855
 3641 Fit       0.001859
 3642 Fit       0.001794
 3643 Fit       0.001655
 3644 Fit       0.001438
 3645 Fit       0.001136
 3646 Fit       0.000725
 3647 Fit       0.000135
 3648 Fit      -0.000799
 3649 Fit      -0.002475
 3650 Fit      -0.005855
 3651 Fit       0.005189
 3652 Fit       0.004210
 3653 Fit       0.003326
 3654 Fit       0.002611
 3655 Fit       0.002088
 3656 Fit       0.001753
 3657 Fit       0.001582
 3658 Fit       0.001541
 3659 Fit       0.001595
 3660 Fit       0.001707
 3661 Fit       0.001842
 3662 Fit       0.001967
 3663 Fit       0.002057
 3664 Fit       0.002093
 3665 Fit       0.002060
 3666 Fit       0.001952
 3667 Fit       0.001766
 3668 Fit       0.001501
 3669 Fit       0.001145
 3670 Fit       0.000668
 3671 Fit      -0.000018
 3672 Fit      -0.001127
 3673 Fit      -0.003186
 3674 Fit       0.005088
 3675 Fit       0.004116
 3676 Fit       0.003253
 3677 Fit       0.002562
 3678 Fit       0.002064
 3679 Fit       0.001754
 3680 Fit       0.001608
 3681 Fit       0.001593
 3682 Fit       0.001671
 3683 Fit       0.001805
 3684 Fit       0.001957
 3685 Fit       0.002097
 3686 Fit       0.002197
 3687 Fit       0.002236
 3688 Fit       0.002202
 3689 Fit       0.002087
 3690 Fit       0.001891
 3691 Fit       0.001613
 3692 Fit       0.001247
 3693 Fit       0.000770
 3694 Fit       0.000108
 3695 Fit      -0.000918
 3696 Fit      -0.002761
 3697 Fit       0.004958
 3698 Fit       0.003989
 3699 Fit       0.003138
 3700 Fit       0.002467
 3701 Fit       0.001995
 3702 Fit       0.001709
 3703 Fit       0.001585
 3704 Fit       0.001589
 3705 Fit       0.001683
 3706 Fit       0.001829
 3707 Fit       0.001992
 3708 Fit       0.002139
 3709 Fit       0.002242
 3710 Fit       0.002282
 3711 Fit       0.002246
 3712 Fit       0.002128
 3713 Fit       0.001929
 3714 Fit       0.001650
 3715 Fit       0.001291
 3716 Fit       0.000842
 3717 Fit       0.000258
 3718 Fit      -0.000570
 3719 Fit      -0.001905
 3720 Fit      -0.004378
 3721 Fit       0.005596
 3722 Fit       0.004726
 3723 Fit       0.003783
 3724 Fit       0.002958
 3725 Fit       0.002318
 3726 Fit       0.001876
 3727 Fit       0.001615
 3728 Fit       0.001510
 3729 Fit       0.001526
 3730 Fit       0.001627
 3731 Fit       0.001776
 3732 Fit       0.001939
 3733 Fit       0.002084
 3734 Fit       0.002185
 3735 Fit       0.002223
 3736 Fit       0.002186
 3737 Fit       0.002068
 3738 Fit       0.001872
 3739 Fit       0.001602
 3740 Fit       0.001264
 3741 Fit       0.000859
 3742 Fit       0.000375
 3743 Fit      -0.000228
 3744 Fit      -0.001032
 3745 Fit      -0.002175
 3746 Fit       0.005070
 3747 Fit       0.004350
 3748 Fit       0.003474
 3749 Fit       0.002689
 3750 Fit       0.002085
 3751 Fit       0.001678
 3752 Fit       0.001451
 3753 Fit       0.001375
 3754 Fit       0.001415
 3755 Fit       0.001532
 3756 Fit       0.001687
 3757 Fit       0.001845
 3758 Fit       0.001973
 3759 Fit       0.002048
 3760 Fit       0.002052
 3761 Fit       0.001974
 3762 Fit       0.001815
 3763 Fit       0.001580
 3764 Fit       0.001280
 3765 Fit       0.000926
 3766 Fit       0.000529
 3767 Fit       0.000098
 3768 Fit      -0.000358
 3769 Fit      -0.000796
 3770 Fit      -0.001042
 3771 Fit      -0.007097
 3772 Fit      -0.011714
 3773 Fit      -0.007429
 3774 Fit      -0.003056
 3775 Fit       0.000374
 3776 Fit       0.002708
 3777 Fit       0.003924
 3778 Fit       0.004116
 3779 Fit       0.003655
 3780 Fit       0.002959
 3781 Fit       0.002292
 3782 Fit       0.001768
 3783 Fit       0.001419
 3784 Fit       0.001234
 3785 Fit       0.001188
 3786 Fit       0.001245
 3787 Fit       0.001367
 3788 Fit       0.001516
 3789 Fit       0.001656
 3790 Fit       0.001758
 3791 Fit       0.001798
 3792 Fit       0.001762
 3793 Fit       0.001645
 3794 Fit       0.001451
 3795 Fit       0.001189
 3796 Fit       0.000877
 3797 Fit       0.000535
 3798 Fit       0.000188
 3799 Fit      -0.000130
 3800 Fit      -0.000361
 3801 Fit      -0.000402
 3802 Fit      -0.000120
 3803 Fit       0.000421
 3804 Fit      -0.001205
 3805 Fit      -0.002468
 3806 Fit      -0.004218
 3807 Fit      -0.004642
 3808 Fit      -0.007143
 3809 Fit      -0.008911
 3810 Fit      -0.009217
 3811 Fit      -0.007853
 3812 Fit      -0.005292
 3813 Fit      -0.002422
 3814 Fit       0.000064
 3815 Fit       0.001827
 3816 Fit       0.002731
 3817 Fit       0.002867
 3818 Fit       0.002529
 3819 Fit       0.002028
 3820 Fit       0.001559
 3821 Fit       0.001213
 3822 Fit       0.001011
 3823 Fit       0.000943
 3824 Fit       0.000979
 3825 Fit       0.001084
 3826 Fit       0.001217
 3827 Fit       0.001343
 3828 Fit       0.001429
 3829 Fit       0.001451
 3830 Fit       0.001397
 3831 Fit       0.001261
 3832 Fit       0.001050
 3833 Fit       0.000781
 3834 Fit       0.000474
 3835 Fit       0.000157
 3836 Fit      -0.000137
 3837 Fit      -0.000368
 3838 Fit      -0.000502
 3839 Fit      -0.000546
 3840 Fit      -0.000659
 3841 Fit      -0.001875
 3842 Fit      -0.002749
 3843 Fit      -0.003696
 3844 Fit      -0.004297
 3845 Fit      -0.004213
 3846 Fit      -0.003667
 3847 Fit      -0.003458
 3848 Fit      -0.004110
 3849 Fit      -0.005268
 3850 Fit      -0.006138
 3851 Fit      -0.006132
 3852 Fit      -0.005099
 3853 Fit      -0.003348
 3854 Fit      -0.001425
 3855 Fit       0.000200
 3856 Fit       0.001255
 3857 Fit       0.001684
 3858 Fit       0.001638
 3859 Fit       0.001359
 3860 Fit       0.001042
 3861 Fit       0.000799
 3862 Fit       0.000669
 3863 Fit       0.000648
 3864 Fit       0.000711
 3865 Fit       0.000819
 3866 Fit       0.000934
 3867 Fit       0.001017
 3868 Fit       0.001041
 3869 Fit       0.000987
 3870 Fit       0.000851
 3871 Fit       0.000639
 3872 Fit       0.000370
 3873 Fit       0.000069
 3874 Fit      -0.000234
 3875 Fit      -0.000512
 3876 Fit      -0.000749
 3877 Fit      -0.000976
 3878 Fit      -0.001298
 3879 Fit      -0.002152
 3880 Fit      -0.002751
 3881 Fit      -0.003291
 3882 Fit      -0.003572
 3883 Fit      -0.003562
 3884 Fit      -0.003523
 3885 Fit      -0.003766
 3886 Fit      -0.004250
 3887 Fit      -0.004590
 3888 Fit      -0.004405
 3889 Fit      -0.003591
 3890 Fit      -0.002358
 3891 Fit      -0.001069
 3892 Fit      -0.000048
 3893 Fit       0.000542
 3894 Fit       0.000728
 3895 Fit       0.000657
 3896 Fit       0.000497
 3897 Fit       0.000362
 3898 Fit       0.000302
 3899 Fit       0.000322
 3900 Fit       0.000398
 3901 Fit       0.000492
 3902 Fit       0.000567
 3903 Fit       0.000588
 3904 Fit       0.000534
 3905 Fit       0.000398
 3906 Fit       0.000187
 3907 Fit      -0.000081
 3908 Fit      -0.000379
 3909 Fit      -0.000681
 3910 Fit      -0.000977
 3911 Fit      -0.001283
 3912 Fit      -0.001654
 3913 Fit      -0.002267
 3914 Fit      -0.002710
 3915 Fit      -0.003063
 3916 Fit      -0.003252
 3917 Fit      -0.003344
 3918 Fit      -0.003484
 3919 Fit      -0.003663
 3920 Fit      -0.003668
 3921 Fit      -0.003290
 3922 Fit      -0.002531
 3923 Fit      -0.001607
 3924 Fit      -0.000795
 3925 Fit      -0.000271
 3926 Fit      -0.000049
 3927 Fit      -0.000023
 3928 Fit      -0.000063
 3929 Fit      -0.000084
 3930 Fit      -0.000054
 3931 Fit       0.000013
 3932 Fit       0.000084
 3933 Fit       0.000119
 3934 Fit       0.000085
 3935 Fit      -0.000033
 3936 Fit      -0.000234
 3937 Fit      -0.000499
 3938 Fit      -0.000804
 3939 Fit      -0.001126
 3940 Fit      -0.001464
 3941 Fit      -0.001838
 3942 Fit      -0.002306
 3943 Fit      -0.002657
 3944 Fit      -0.002920
 3945 Fit      -0.003079
 3946 Fit      -0.003177
 3947 Fit      -0.003205
 3948 Fit      -0.003046
 3949 Fit      -0.002610
 3950 Fit      -0.001972
 3951 Fit      -0.001337
 3952 Fit      -0.000879
 3953 Fit      -0.000638
 3954 Fit      -0.000544
 3955 Fit      -0.000501
 3956 Fit      -0.000451
 3957 Fit      -0.000390
 3958 Fit      -0.000348
 3959 Fit      -0.000363
 3960 Fit      -0.000462
 3961 Fit      -0.000651
 3962 Fit      -0.000914
 3963 Fit      -0.001226
 3964 Fit      -0.001566
 3965 Fit      -0.001929
 3966 Fit      -0.002295
 3967 Fit      -0.002599
 3968 Fit      -0.002799
 3969 Fit      -0.002878
 3970 Fit      -0.002805
 3971 Fit      -0.002511
 3972 Fit      -0.002031
 3973 Fit      -0.001538
 3974 Fit      -0.001187
 3975 Fit      -0.000994
 3976 Fit      -0.000887
 3977 Fit      -0.000816
 3978 Fit      -0.000787
 3979 Fit      -0.000838
 3980 Fit      -0.000996
 3981 Fit      -0.001253
 3982 Fit      -0.001578
 3983 Fit      -0.001937
 3984 Fit      -0.002234
 3985 Fit      -0.002493
 3986 Fit      -0.002576
 3987 Fit      -0.002426
 3988 Fit      -0.002058
 3989 Fit      -0.001654
 3990 Fit      -0.001379
 3991 Fit      -0.001237
 3992 Fit      -0.001202
 3993 Fit      -0.001301
 3994 Fit      -0.001545
 3995 Fit      -0.001884
 3996 Fit      -0.002118
 3997 Fit      -0.002266
 3998 Fit      -0.002032
 3999 Fit      -0.001694
 4000 Fit      -0.001587
 4001 Fit      -0.001777
 4002 Fit      -0.001940
 4003 Fit       0.004987
 4004 Fit       0.003042
 4005 Fit       0.004409
 4006 Fit       0.002391
 4007 Fit       0.004320
 4008 Fit       0.005586
 4009 Fit      -0.005347
 4010 Fit      -0.000834
 4011 Fit       0.001961
 4012 Fit      -0.009228
 4013 Fit      -0.003387
 4014 Fit       0.000205
 4015 Fit       0.002411
 4016 Fit      -0.011055
 4017 Fit      -0.004593
 4018 Fit      -0.000632
 4019 Fit       0.001831
 4020 Fit       0.003394
 4021 Fit       0.004524
 4022 Fit      -0.006359
 4023 Fit      -0.001573
 4024 Fit       0.001348
 4025 Fit       0.003154
 4026 Fit       0.004335
 4027 Fit      -0.006287
 4028 Fit      -0.001533
 4029 Fit       0.001373
 4030 Fit       0.003179
 4031 Fit       0.004377
 4032 Fit      -0.010723
 4033 Fit      -0.004392
 4034 Fit      -0.000508
 4035 Fit       0.001930
 4036 Fit       0.003520
 4037 Fit      -0.008626
 4038 Fit      -0.003018
 4039 Fit       0.000474
 4040 Fit       0.002711
 4041 Fit      -0.000230
 4042 Fit      -0.008496
 4043 Fit      -0.000918
 4044 Fit      -0.005258
 4045 Fit      -0.012010
 4046 Fit       0.002790
 4047 Fit      -0.001170
 4048 Fit      -0.006560
 4049 Fit       0.004849
 4050 Fit       0.001069
 4051 Fit      -0.003606
 4052 Fit      -0.010190
 4053 Fit       0.008777
 4054 Fit       0.005142
 4055 Fit       0.001679
 4056 Fit      -0.002475
 4057 Fit      -0.007802
 4058 Fit       0.005744
 4059 Fit       0.002549
 4060 Fit      -0.001153
 4061 Fit      -0.005297
 4062 Fit       0.004640
 4063 Fit       0.001804
 4064 Fit      -0.001439
 4065 Fit      -0.003636
 4066 Fit       0.000462
 4067 Fit       0.003238
 4068 Fit       0.003338
 4069 Fit       0.002580
 4070 Fit       0.004706
 4071 Fit       0.005543
 4072 Fit       0.005581
 4073 Fit       0.005130
 4074 Fit       0.003622
 4075 Fit       0.005947
 4076 Fit       0.007001
 4077 Fit       0.007293
 4078 Fit       0.007176
 4079 Fit       0.007150
 4080 Fit       0.000487
 4081 Fit       0.004661
 4082 Fit       0.006846
 4083 Fit       0.007917
 4084 Fit       0.008301
 4085 Fit       0.008342
 4086 Fit       0.008562
 4087 Fit       0.002284
 4088 Fit       0.005499
 4089 Fit       0.007354
 4090 Fit       0.008305
 4091 Fit       0.008660
 4092 Fit       0.008738
 4093 Fit       0.009030
 4094 Fit       0.003571
 4095 Fit       0.006149
 4096 Fit       0.007623
 4097 Fit       0.008239
 4098 Fit       0.008315
 4099 Fit       0.008242
 4100 Fit       0.004085
 4101 Fit       0.006223
 4102 Fit       0.007151
 4103 Fit       0.007029
 4104 Fit       0.003821
 4105 Fit       0.005362
 4106 Fit       0.008978
 4107 Fit       0.010528
 4108 Fit       0.009319
 4109 Fit       0.007793
 4110 Fit       0.006677
 4111 Fit       0.007925
 4112 Fit       0.010144
 4113 Fit       0.011562
 4114 Fit       0.010273
 4115 Fit       0.008681
 4116 Fit       0.007411
 4117 Fit       0.006193
 4118 Fit       0.004143
 4119 Fit       0.004869
 4120 Fit       0.008513
 4121 Fit       0.011026
 4122 Fit       0.011946
 4123 Fit       0.012224
 4124 Fit       0.010780
 4125 Fit       0.008920
 4126 Fit       0.007141
 4127 Fit       0.006090
 4128 Fit       0.005289
 4129 Fit       0.009585
 4130 Fit       0.011990
 4131 Fit       0.013004
 4132 Fit       0.013013
 4133 Fit       0.012647
 4134 Fit       0.010919
 4135 Fit       0.008625
 4136 Fit       0.006010
 4137 Fit       0.012938
 4138 Fit       0.014062
 4139 Fit       0.014261
 4140 Fit       0.013765
 4141 Fit       0.012995
 4142 Fit       0.010609
 4143 Fit       0.007257
 4144 Fit       0.015759
 4145 Fit       0.015510
 4146 Fit       0.014588
 4147 Fit       0.011131
 4148 Fit       0.013436
 4149 Fit       0.014798
 4150 Fit       0.015507
 4151 Fit       0.015664
 4152 Fit       0.013039
 4153 Fit       0.007725
 4154 Fit       0.010879
 4155 Fit       0.012820
 4156 Fit       0.013915
 4157 Fit       0.014333
 4158 Fit       0.014100
 4159 Fit       0.011393
 4160 Fit       0.008469
 4161 Fit       0.003567
 4162 Fit       0.007457
 4163 Fit       0.010207
 4164 Fit       0.011989
 4165 Fit       0.012974
 4166 Fit       0.013249
 4167 Fit       0.012790
 4168 Fit       0.010051
 4169 Fit       0.006570
 4170 Fit       0.004795
 4171 Fit       0.007704
 4172 Fit       0.010063
 4173 Fit       0.011544
 4174 Fit       0.012105
 4175 Fit       0.011687
 4176 Fit       0.008912
 4177 Fit       0.005066
 4178 Fit       0.005392
 4179 Fit       0.007041
 4180 Fit       0.009176
 4181 Fit       0.010547
 4182 Fit       0.010582
 4183 Fit       0.007919
 4184 Fit       0.004766
 4185 Fit       0.006178
 4186 Fit       0.007924
 4187 Fit       0.009092
 4188 Fit       0.007036
 -----------------------------------------------------------------
 Leave Link  602 at Fri Jan 17 11:57:32 2014, MaxMem=   235929600 cpu:         1.6

 Test job not archived.
 1\1\GINC-G42\SP\RHF\Gen\C11H8I1N1O3\KOLAR\17-Jan-2014\0\\# hf/gen pseu
 do=read pop=(mk, readradii) iop(6/33=2,6/41=5,6/42=2)\\na resp\\0,1\C,
 0,4.20481,1.289421,-0.234923\C,0,2.725708,1.506461,-0.204836\C,0,1.678
 853,0.542366,-0.087961\C,0,0.510761,1.266422,-0.101518\O,0,0.843287,2.
 576179,-0.225026\N,0,2.232751,2.721381,-0.285172\C,0,-0.920443,0.98164
 3,0.001813\C,0,-1.779934,1.996516,0.458286\C,0,-3.163272,1.797932,0.57
 0884\C,0,-3.649471,0.555374,0.210594\C,0,-2.805642,-0.455047,-0.247678
 \C,0,-1.445104,-0.28182,-0.36864\O,0,-3.543351,-1.577035,-0.535609\C,0
 ,-4.910603,-1.22534,-0.299284\O,0,-4.942536,0.107174,0.232014\I,0,1.99
 802,-1.523259,0.163645\H,0,4.547157,0.798505,0.682872\H,0,4.489603,0.6
 4802,-1.076305\H,0,4.715686,2.250128,-0.33341\H,0,-1.35948,2.957327,0.
 731332\H,0,-3.822382,2.58181,0.926866\H,0,-0.815757,-1.077283,-0.74478
 6\H,0,-5.46642,-1.252734,-1.244908\H,0,-5.345915,-1.916837,0.429913\\V
 ersion=AM64L-G09RevD.01\State=1-A\HF=-711.3119286\RMSD=9.714e-09\Dipol
 e=-0.5474757,-0.8620319,0.0768805\Quadrupole=10.5888063,-6.6274556,-3.
 9613507,-0.7897155,0.5702359,2.1512705\PG=C01 [X(C11H8I1N1O3)]\\@


 BE CAREFUL NOT TO BECOME TOO GOOD OF A SONGBIRD OR 
 THEY'LL THROW YOU INTO A CAGE.

                                    -- SNOOPY TO WOODSTOCK
 Job cpu time:       0 days  0 hours  3 minutes  0.2 seconds.
 File lengths (MBytes):  RWF=     31 Int=      0 D2E=      0 Chk=      3 Scr=      1
 Normal termination of Gaussian 09 at Fri Jan 17 11:57:32 2014.
179.87user 0.35system 3:00.60elapsed 99%CPU (0avgtext+0avgdata 603424maxresident)k
8inputs+134328outputs (0major+171226minor)pagefaults 0swaps
