Linux g30 2.6.38.6-client #1 SMP Tue Jun 12 11:27:21 CEST 2012 x86_64 GNU/Linux
Thu Jan 16 21:46:46 CET 2014

 Entering Gaussian System, Link 0=/usr/local/programs/common/gaussian/gaussian09_d01/arch/amd64-pgi_10.4.0-acml/g09/g09
 Initial command:
 /usr/local/programs/common/gaussian/gaussian09_d01/arch/amd64-pgi_10.4.0-acml/g09/l1.exe "/scratch/kolar/g09_17350/Gau-3008.inp" -scrdir="/scratch/kolar/g09_17350/"
 Entering Link 1 = /usr/local/programs/common/gaussian/gaussian09_d01/arch/amd64-pgi_10.4.0-acml/g09/l1.exe PID=      3013.
  
 Copyright (c) 1988,1990,1992,1993,1995,1998,2003,2009,2013,
            Gaussian, Inc.  All Rights Reserved.
  
 This is part of the Gaussian(R) 09 program.  It is based on
 the Gaussian(R) 03 system (copyright 2003, Gaussian, Inc.),
 the Gaussian(R) 98 system (copyright 1998, Gaussian, Inc.),
 the Gaussian(R) 94 system (copyright 1995, Gaussian, Inc.),
 the Gaussian 92(TM) system (copyright 1992, Gaussian, Inc.),
 the Gaussian 90(TM) system (copyright 1990, Gaussian, Inc.),
 the Gaussian 88(TM) system (copyright 1988, Gaussian, Inc.),
 the Gaussian 86(TM) system (copyright 1986, Carnegie Mellon
 University), and the Gaussian 82(TM) system (copyright 1983,
 Carnegie Mellon University). Gaussian is a federally registered
 trademark of Gaussian, Inc.
  
 This software contains proprietary and confidential information,
 including trade secrets, belonging to Gaussian, Inc.
  
 This software is provided under written license and may be
 used, copied, transmitted, or stored only in accord with that
 written license.
  
 The following legend is applicable only to US Government
 contracts under FAR:
  
                    RESTRICTED RIGHTS LEGEND
  
 Use, reproduction and disclosure by the US Government is
 subject to restrictions as set forth in subparagraphs (a)
 and (c) of the Commercial Computer Software - Restricted
 Rights clause in FAR 52.227-19.
  
 Gaussian, Inc.
 340 Quinnipiac St., Bldg. 40, Wallingford CT 06492
  
  
 ---------------------------------------------------------------
 Warning -- This program may not be used in any manner that
 competes with the business of Gaussian, Inc. or will provide
 assistance to any competitor of Gaussian, Inc.  The licensee
 of this program is prohibited from giving any competitor of
 Gaussian, Inc. access to this program.  By using this program,
 the user acknowledges that Gaussian, Inc. is engaged in the
 business of creating and licensing software in the field of
 computational chemistry and represents and warrants to the
 licensee that it is not a competitor of Gaussian, Inc. and that
 it will not use this program in any manner prohibited above.
 ---------------------------------------------------------------
  

 Cite this work as:
 Gaussian 09, Revision D.01,
 M. J. Frisch, G. W. Trucks, H. B. Schlegel, G. E. Scuseria, 
 M. A. Robb, J. R. Cheeseman, G. Scalmani, V. Barone, B. Mennucci, 
 G. A. Petersson, H. Nakatsuji, M. Caricato, X. Li, H. P. Hratchian, 
 A. F. Izmaylov, J. Bloino, G. Zheng, J. L. Sonnenberg, M. Hada, 
 M. Ehara, K. Toyota, R. Fukuda, J. Hasegawa, M. Ishida, T. Nakajima, 
 Y. Honda, O. Kitao, H. Nakai, T. Vreven, J. A. Montgomery, Jr., 
 J. E. Peralta, F. Ogliaro, M. Bearpark, J. J. Heyd, E. Brothers, 
 K. N. Kudin, V. N. Staroverov, T. Keith, R. Kobayashi, J. Normand, 
 K. Raghavachari, A. Rendell, J. C. Burant, S. S. Iyengar, J. Tomasi, 
 M. Cossi, N. Rega, J. M. Millam, M. Klene, J. E. Knox, J. B. Cross, 
 V. Bakken, C. Adamo, J. Jaramillo, R. Gomperts, R. E. Stratmann, 
 O. Yazyev, A. J. Austin, R. Cammi, C. Pomelli, J. W. Ochterski, 
 R. L. Martin, K. Morokuma, V. G. Zakrzewski, G. A. Voth, 
 P. Salvador, J. J. Dannenberg, S. Dapprich, A. D. Daniels, 
 O. Farkas, J. B. Foresman, J. V. Ortiz, J. Cioslowski, 
 and D. J. Fox, Gaussian, Inc., Wallingford CT, 2013.
 
 ******************************************
 Gaussian 09:  AM64L-G09RevD.01 24-Apr-2013
                16-Jan-2014 
 ******************************************
 %mem=1800mb
 -----------------------------------------
 # hf/gen pop=mk iop(6/33=2,6/41=5,6/42=2)
 -----------------------------------------
 1/38=1/1;
 2/12=2,17=6,18=5,40=1/2;
 3/5=7,11=9,16=1,25=1,30=1/1,2,3;
 4//1;
 5/5=2,38=5/2;
 6/7=2,8=2,9=2,10=2,15=8,20=1,28=1,33=2,41=5,42=2/1,2;
 99/5=1,9=1/99;
 -------
 na resp
 -------
 Symbolic Z-matrix:
 Charge =  0 Multiplicity = 1
 6                     2.51111   1.43009  -0.22901 
 6                     3.87642   1.22832  -0.0734 
 6                     4.36604  -0.07007   0.09021 
 6                     3.50018  -1.15741   0.09894 
 6                     2.12565  -0.95515  -0.05822 
 6                     1.62542   0.34166  -0.22349 
 8                     0.30884   0.65382  -0.39063 
 6                    -0.65271  -0.3899   -0.35009 
 6                    -2.03733   0.25504  -0.47019 
 1                    -2.01179   0.94366  -1.32463 
 6                    -3.07863  -0.83674  -0.74482 
 8                    -4.40729  -0.29555  -0.84693 
 6                    -5.08832  -0.17219   0.32108 
 8                    -4.63483  -0.44125   1.42474 
 7                    -6.35901   0.24953   0.0868 
 8                    -2.34722   1.03577   0.66601 
 17                    6.09749  -0.32916   0.28748 
 1                     2.10481   2.42858  -0.35414 
 1                     4.55945   2.07112  -0.07671 
 1                     3.88947  -2.16189   0.22731 
 1                     1.46518  -1.81427  -0.04946 
 1                    -0.47543  -1.09771  -1.17577 
 1                    -0.58442  -0.93881   0.59999 
 1                    -2.89167  -1.31335  -1.71036 
 1                    -3.06481  -1.5976    0.0423 
 1                    -6.60182   0.61123  -0.82349 
 1                    -6.89051   0.56012   0.88553 
 1                    -2.88568   0.49382   1.27306 
 
                          Input orientation:                          
 ---------------------------------------------------------------------
 Center     Atomic      Atomic             Coordinates (Angstroms)
 Number     Number       Type             X           Y           Z
 ---------------------------------------------------------------------
      1          6           0        2.511107    1.430086   -0.229008
      2          6           0        3.876419    1.228324   -0.073404
      3          6           0        4.366037   -0.070071    0.090214
      4          6           0        3.500176   -1.157409    0.098943
      5          6           0        2.125648   -0.955147   -0.058217
      6          6           0        1.625422    0.341656   -0.223491
      7          8           0        0.308837    0.653816   -0.390632
      8          6           0       -0.652709   -0.389897   -0.350094
      9          6           0       -2.037326    0.255037   -0.470190
     10          1           0       -2.011785    0.943661   -1.324627
     11          6           0       -3.078632   -0.836743   -0.744820
     12          8           0       -4.407286   -0.295550   -0.846926
     13          6           0       -5.088323   -0.172187    0.321083
     14          8           0       -4.634828   -0.441245    1.424740
     15          7           0       -6.359008    0.249529    0.086804
     16          8           0       -2.347219    1.035765    0.666013
     17         17           0        6.097489   -0.329163    0.287475
     18          1           0        2.104810    2.428578   -0.354144
     19          1           0        4.559447    2.071118   -0.076708
     20          1           0        3.889473   -2.161891    0.227312
     21          1           0        1.465184   -1.814274   -0.049455
     22          1           0       -0.475425   -1.097708   -1.175768
     23          1           0       -0.584415   -0.938810    0.599991
     24          1           0       -2.891669   -1.313349   -1.710359
     25          1           0       -3.064815   -1.597603    0.042300
     26          1           0       -6.601815    0.611230   -0.823487
     27          1           0       -6.890513    0.560122    0.885525
     28          1           0       -2.885675    0.493821    1.273056
 ---------------------------------------------------------------------
                    Distance matrix (angstroms):
                    1          2          3          4          5
     1  C    0.000000
     2  C    1.388883   0.000000
     3  C    2.406894   1.397257   0.000000
     4  C    2.789434   2.421360   1.389998   0.000000
     5  C    2.422207   2.798745   2.413449   1.398190   0.000000
     6  C    1.403263   2.423983   2.789068   2.421954   1.399728
     7  O    2.340665   3.627442   4.149228   3.702008   2.449503
     8  C    3.651949   4.817489   5.048165   4.247018   2.850257
     9  C    4.703951   6.006422   6.436055   5.743069   4.354839
    10  H    4.679054   6.026403   6.611054   6.068176   4.725211
    11  C    6.053904   7.286154   7.530482   6.640443   5.250712
    12  O    7.157081   8.458150   8.826113   8.010332   6.613347
    13  C    7.785963   9.082051   9.457730   8.647677   7.266242
    14  O    7.569752   8.801887   9.106827   8.273386   6.940266
    15  N    8.953904  10.283369  10.729806   9.959073   8.570978
    16  O    4.955793   6.270366   6.828047   6.270854   4.949220
    17  Cl   4.027884   2.736631   1.761808   2.732686   4.035701
    18  H    1.085229   2.158245   3.399095   3.874485   3.396705
    19  H    2.151700   1.084823   2.156377   3.402395   3.883555
    20  H    3.874328   3.403551   2.149795   1.084903   2.156116
    21  H    3.413512   3.882271   3.387728   2.143522   1.083692
    22  H    4.025602   5.056103   5.108669   4.175387   2.834577
    23  H    3.985118   5.004895   5.051886   4.121009   2.788897
    24  H    6.237854   7.412607   7.580376   6.644816   5.294464
    25  H    6.350702   7.495331   7.586383   6.579976   5.231038
    26  H    9.168930  10.523156  11.026912  10.297047   8.899876
    27  H    9.507338  10.830183  11.302194  10.561015   9.191183
    28  H    5.679617   6.933856   7.369153   6.699567   5.383786
                    6          7          8          9         10
     6  C    0.000000
     7  O    1.363369   0.000000
     8  C    2.396055   1.419701   0.000000
     9  C    3.672068   2.381142   1.532164   0.000000
    10  H    3.847621   2.518262   2.138967   1.097688   0.000000
    11  C    4.877349   3.717817   2.498116   1.533533   2.155035
    12  O    6.098218   4.832320   3.788481   2.462070   2.739027
    13  C    6.755366   5.506192   4.491386   3.180757   3.663136
    14  O    6.520761   5.379085   4.360039   3.289770   4.044421
    15  N    7.990988   6.697130   5.758610   4.357431   4.623019
    16  O    4.129756   2.883924   2.436463   1.412985   2.020803
    17  Cl   4.550875   5.910547   6.780513   8.190883   8.365362
    18  H    2.145257   2.525199   3.943061   4.679213   4.482541
    19  H    3.408972   4.491657   5.770434   6.853495   6.783034
    20  H    3.405422   4.596848   4.909662   6.438555   6.846737
    21  H    2.168870   2.746818   2.569962   4.089822   4.617530
    22  H    2.718852   2.073485   1.101891   2.183413   2.559248
    23  H    2.683486   2.077424   1.099378   2.163679   3.047169
    24  H    5.035269   3.981791   2.777774   2.174340   2.452974
    25  H    5.082292   4.078952   2.725946   2.179600   3.071707
    26  H    8.253490   6.924326   6.051299   4.591977   4.629258
    27  H    8.590622   7.312181   6.429579   5.048214   5.369717
    28  H    4.755292   3.605324   2.898570   1.953361   2.777408
                   11         12         13         14         15
    11  C    0.000000
    12  O    1.438276   0.000000
    13  C    2.369946   1.357673   0.000000
    14  O    2.699103   2.287678   1.223155   0.000000
    15  N    3.554216   2.231184   1.359180   2.289113   0.000000
    16  O    2.455952   2.881885   3.015257   2.826726   4.128935
    17  Cl   9.247944  10.565902  11.186964  10.792987  12.471546
    18  H    6.138650   7.076094   7.678611   7.538105   8.750937
    19  H    8.200139   9.305732   9.913129   9.648886  11.070573
    20  H    7.159298   8.571664   9.196115   8.778278  10.529295
    21  H    4.699507   6.117874   6.766255   6.424065   8.092949
    22  H    2.651510   4.026304   4.937204   4.949163   6.166497
    23  H    2.835499   4.137837   4.577192   4.163367   5.917891
    24  H    1.092874   2.019536   3.202233   3.691614   4.206521
    25  H    1.094832   2.070819   2.490806   2.390240   3.776981
    26  H    3.809939   2.374607   2.052910   3.167217   1.009164
    27  H    4.374894   3.146423   2.025527   2.526184   1.008425
    28  H    2.424759   2.726303   2.490277   1.989194   3.678439
                   16         17         18         19         20
    16  O    0.000000
    17  Cl   8.562676   0.000000
    18  H    4.775061   4.894721   0.000000
    19  H    7.023220   2.873944   2.495995   0.000000
    20  H    7.022378   2.870165   4.959387   4.296470   0.000000
    21  H    4.813422   4.876200   4.301599   4.967039   2.464673
    22  H    3.383412   6.777532   4.446051   6.049738   4.706746
    23  H    2.647788   6.716932   4.413797   5.998075   4.653009
    24  H    3.385544   9.260935   6.387968   8.345212   7.103413
    25  H    2.799748   9.252938   6.564474   8.461858   6.979597
    26  H    4.527740  12.782445   8.906647  11.281078  10.902362
    27  H    4.573395  13.032141   9.270585  11.589244  11.137805
    28  H    0.975776   9.074465   5.594283   7.729138   7.351804
                   21         22         23         24         25
    21  H    0.000000
    22  H    2.355422   0.000000
    23  H    2.321438   1.786182   0.000000
    24  H    4.689530   2.484054   3.286551   0.000000
    25  H    4.536106   2.904914   2.626292   1.783982   0.000000
    26  H    8.459236   6.370026   6.374795   4.272672   4.258979
    27  H    8.736682   6.939069   6.488081   5.122427   4.472446
    28  H    5.099638   3.786688   2.793071   3.488075   2.433291
                   26         27         28
    26  H    0.000000
    27  H    1.733978   0.000000
    28  H    4.268369   4.024090   0.000000
 Stoichiometry    C10H12ClNO4
 Framework group  C1[X(C10H12ClNO4)]
 Deg. of freedom    78
 Full point group                 C1      NOp   1
 Largest Abelian subgroup         C1      NOp   1
 Largest concise Abelian subgroup C1      NOp   1
                         Standard orientation:                         
 ---------------------------------------------------------------------
 Center     Atomic      Atomic             Coordinates (Angstroms)
 Number     Number       Type             X           Y           Z
 ---------------------------------------------------------------------
      1          6           0        2.511107    1.430086   -0.229008
      2          6           0        3.876419    1.228324   -0.073404
      3          6           0        4.366037   -0.070071    0.090214
      4          6           0        3.500176   -1.157409    0.098943
      5          6           0        2.125648   -0.955147   -0.058217
      6          6           0        1.625422    0.341656   -0.223491
      7          8           0        0.308837    0.653816   -0.390632
      8          6           0       -0.652709   -0.389897   -0.350094
      9          6           0       -2.037326    0.255037   -0.470190
     10          1           0       -2.011785    0.943661   -1.324627
     11          6           0       -3.078632   -0.836743   -0.744820
     12          8           0       -4.407286   -0.295550   -0.846926
     13          6           0       -5.088323   -0.172187    0.321083
     14          8           0       -4.634828   -0.441245    1.424740
     15          7           0       -6.359008    0.249529    0.086804
     16          8           0       -2.347219    1.035765    0.666013
     17         17           0        6.097489   -0.329163    0.287475
     18          1           0        2.104810    2.428578   -0.354144
     19          1           0        4.559447    2.071118   -0.076708
     20          1           0        3.889473   -2.161891    0.227312
     21          1           0        1.465184   -1.814274   -0.049455
     22          1           0       -0.475425   -1.097708   -1.175768
     23          1           0       -0.584415   -0.938810    0.599991
     24          1           0       -2.891669   -1.313349   -1.710359
     25          1           0       -3.064815   -1.597603    0.042300
     26          1           0       -6.601815    0.611230   -0.823487
     27          1           0       -6.890513    0.560122    0.885525
     28          1           0       -2.885675    0.493821    1.273056
 ---------------------------------------------------------------------
 Rotational constants (GHZ):      2.2768133      0.1247506      0.1228568
 General basis read from cards:  (5D, 7F)
 There are   268 symmetry adapted cartesian basis functions of A   symmetry.
 There are   252 symmetry adapted basis functions of A   symmetry.
   252 basis functions,   520 primitive gaussians,   268 cartesian basis functions
    64 alpha electrons       64 beta electrons
       nuclear repulsion energy      1136.8441070278 Hartrees.
 NAtoms=   28 NActive=   28 NUniq=   28 SFac= 1.00D+00 NAtFMM=   60 NAOKFM=F Big=F
 Integral buffers will be    131072 words long.
 Raffenetti 1 integral format.
 Two-electron integral symmetry is turned on.
 One-electron integrals computed using PRISM.
 NBasis=   252 RedAO= T EigKep=  4.83D-04  NBF=   252
 NBsUse=   252 1.00D-06 EigRej= -1.00D+00 NBFU=   252
 ExpMin= 1.43D-01 ExpMax= 2.52D+04 ExpMxC= 3.78D+03 IAcc=1 IRadAn=         1 AccDes= 0.00D+00
 Harris functional with IExCor=  205 and IRadAn=       1 diagonalized for initial guess.
 HarFok:  IExCor=  205 AccDes= 0.00D+00 IRadAn=         1 IDoV= 1 UseB2=F ITyADJ=14
 ICtDFT=  3500011 ScaDFX=  1.000000  1.000000  1.000000  1.000000
 FoFCou: FMM=F IPFlag=           0 FMFlag=      100000 FMFlg1=           0
         NFxFlg=           0 DoJE=T BraDBF=F KetDBF=T FulRan=T
         wScrn=  0.000000 ICntrl=     500 IOpCl=  0 I1Cent=   200000004 NGrid=           0
         NMat0=    1 NMatS0=      1 NMatT0=    0 NMatD0=    1 NMtDS0=    0 NMtDT0=    0
 Petite list used in FoFCou.
 Requested convergence on RMS density matrix=1.00D-08 within 128 cycles.
 Requested convergence on MAX density matrix=1.00D-06.
 Requested convergence on             energy=1.00D-06.
 No special actions if energy rises.
 Integral accuracy reduced to 1.0D-05 until final iterations.
 Initial convergence to 1.0D-05 achieved.  Increase integral accuracy.
 SCF Done:  E(RHF) =  -1199.05054368     A.U. after   16 cycles
            NFock= 16  Conv=0.22D-08     -V/T= 2.0008

 **********************************************************************

            Population analysis using the SCF density.

 **********************************************************************

 Orbital symmetries:
 BldTbl:  Degeneracy threshold= 1.00D-02
       Occupied  (A) (A) (A) (A) (A) (A) (A) (A) (A) (A) (A) (A)
                 (A) (A) (A) (A) (A) (A) (A) (A) (A) (A) (A) (A)
                 (A) (A) (A) (A) (A) (A) (A) (A) (A) (A) (A) (A)
                 (A) (A) (A) (A) (A) (A) (A) (A) (A) (A) (A) (A)
                 (A) (A) (A) (A) (A) (A) (A) (A) (A) (A) (A) (A)
                 (A) (A) (A) (A)
       Virtual   (A) (A) (A) (A) (A) (A) (A) (A) (A) (A) (A) (A)
                 (A) (A) (A) (A) (A) (A) (A) (A) (A) (A) (A) (A)
                 (A) (A) (A) (A) (A) (A) (A) (A) (A) (A) (A) (A)
                 (A) (A) (A) (A) (A) (A) (A) (A) (A) (A) (A) (A)
                 (A) (A) (A) (A) (A) (A) (A) (A) (A) (A) (A) (A)
                 (A) (A) (A) (A) (A) (A) (A) (A) (A) (A) (A) (A)
                 (A) (A) (A) (A) (A) (A) (A) (A) (A) (A) (A) (A)
                 (A) (A) (A) (A) (A) (A) (A) (A) (A) (A) (A) (A)
                 (A) (A) (A) (A) (A) (A) (A) (A) (A) (A) (A) (A)
                 (A) (A) (A) (A) (A) (A) (A) (A) (A) (A) (A) (A)
                 (A) (A) (A) (A) (A) (A) (A) (A) (A) (A) (A) (A)
                 (A) (A) (A) (A) (A) (A) (A) (A) (A) (A) (A) (A)
                 (A) (A) (A) (A) (A) (A) (A) (A) (A) (A) (A) (A)
                 (A) (A) (A) (A) (A) (A) (A) (A) (A) (A) (A) (A)
                 (A) (A) (A) (A) (A) (A) (A) (A) (A) (A) (A) (A)
                 (A) (A) (A) (A) (A) (A) (A) (A)
 The electronic state is 1-A.
 Alpha  occ. eigenvalues -- -104.81393 -20.62480 -20.59412 -20.55336 -20.55145
 Alpha  occ. eigenvalues --  -15.60459 -11.43132 -11.31166 -11.30764 -11.29713
 Alpha  occ. eigenvalues --  -11.29431 -11.29414 -11.25435 -11.25235 -11.24417
 Alpha  occ. eigenvalues --  -11.23856 -10.55225  -8.02082  -8.01758  -8.01749
 Alpha  occ. eigenvalues --   -1.47946  -1.41743  -1.37097  -1.35549  -1.23345
 Alpha  occ. eigenvalues --   -1.17985  -1.10952  -1.06160  -1.03063  -0.99509
 Alpha  occ. eigenvalues --   -0.94786  -0.86837  -0.83805  -0.81414  -0.80430
 Alpha  occ. eigenvalues --   -0.76829  -0.73166  -0.72919  -0.70325  -0.68213
 Alpha  occ. eigenvalues --   -0.67899  -0.65856  -0.65005  -0.63393  -0.62429
 Alpha  occ. eigenvalues --   -0.61733  -0.60458  -0.59717  -0.57676  -0.54801
 Alpha  occ. eigenvalues --   -0.54226  -0.53225  -0.53135  -0.52241  -0.50153
 Alpha  occ. eigenvalues --   -0.49661  -0.48095  -0.45746  -0.44738  -0.44387
 Alpha  occ. eigenvalues --   -0.44270  -0.43588  -0.35001  -0.31000
 Alpha virt. eigenvalues --    0.12801   0.14520   0.19663   0.20097   0.21890
 Alpha virt. eigenvalues --    0.22769   0.25665   0.26336   0.27102   0.27270
 Alpha virt. eigenvalues --    0.28619   0.29175   0.31416   0.31571   0.31846
 Alpha virt. eigenvalues --    0.33028   0.33970   0.35787   0.37240   0.40243
 Alpha virt. eigenvalues --    0.42712   0.43423   0.45300   0.45551   0.47188
 Alpha virt. eigenvalues --    0.49486   0.50603   0.53444   0.54601   0.56504
 Alpha virt. eigenvalues --    0.61146   0.61647   0.63096   0.64370   0.68768
 Alpha virt. eigenvalues --    0.71092   0.72550   0.74304   0.74502   0.76249
 Alpha virt. eigenvalues --    0.78062   0.78967   0.79218   0.80774   0.81107
 Alpha virt. eigenvalues --    0.81259   0.82025   0.83223   0.83744   0.84738
 Alpha virt. eigenvalues --    0.85060   0.87780   0.88441   0.89796   0.90235
 Alpha virt. eigenvalues --    0.91443   0.91695   0.92513   0.96361   0.97905
 Alpha virt. eigenvalues --    1.00088   1.01335   1.02969   1.04879   1.07217
 Alpha virt. eigenvalues --    1.09844   1.10128   1.11159   1.11675   1.11970
 Alpha virt. eigenvalues --    1.13925   1.14753   1.15207   1.15922   1.16196
 Alpha virt. eigenvalues --    1.16679   1.16986   1.18425   1.19259   1.19719
 Alpha virt. eigenvalues --    1.20122   1.21725   1.23446   1.26024   1.28219
 Alpha virt. eigenvalues --    1.29163   1.30060   1.32028   1.33433   1.34754
 Alpha virt. eigenvalues --    1.36815   1.39036   1.40126   1.41046   1.41771
 Alpha virt. eigenvalues --    1.43874   1.44735   1.46909   1.49738   1.50091
 Alpha virt. eigenvalues --    1.52973   1.55632   1.59243   1.60152   1.62495
 Alpha virt. eigenvalues --    1.63363   1.65830   1.66749   1.68914   1.70233
 Alpha virt. eigenvalues --    1.70999   1.73956   1.75806   1.76723   1.77591
 Alpha virt. eigenvalues --    1.80678   1.83461   1.83668   1.90831   1.95665
 Alpha virt. eigenvalues --    1.97241   1.98585   2.01153   2.02606   2.05293
 Alpha virt. eigenvalues --    2.06895   2.10487   2.11934   2.12231   2.13528
 Alpha virt. eigenvalues --    2.15336   2.17925   2.19980   2.20913   2.24130
 Alpha virt. eigenvalues --    2.25528   2.27646   2.29253   2.30511   2.31776
 Alpha virt. eigenvalues --    2.32504   2.35348   2.36765   2.39327   2.40415
 Alpha virt. eigenvalues --    2.40825   2.41801   2.44429   2.45424   2.45858
 Alpha virt. eigenvalues --    2.47019   2.51775   2.53946   2.56617   2.56961
 Alpha virt. eigenvalues --    2.58318   2.60634   2.62106   2.62792   2.65646
 Alpha virt. eigenvalues --    2.70570   2.77818   2.79068   2.83791   2.84991
 Alpha virt. eigenvalues --    2.88501   2.90397   2.91821   2.94389   2.94594
 Alpha virt. eigenvalues --    2.98607   2.99695   3.01053   3.03061   3.06939
 Alpha virt. eigenvalues --    3.09855   3.11485   3.11892   3.14529   3.16860
 Alpha virt. eigenvalues --    3.24587   3.28989   3.31704   3.39851   3.48689
 Alpha virt. eigenvalues --    3.49042   3.57631   3.77911
          Condensed to atoms (all electrons):
               1          2          3          4          5          6
     1  C    4.957974   0.537455  -0.045405  -0.031300  -0.051944   0.573163
     2  C    0.537455   4.928234   0.519431  -0.045947  -0.030328  -0.037108
     3  C   -0.045405   0.519431   5.060853   0.541177  -0.044314  -0.029957
     4  C   -0.031300  -0.045947   0.541177   4.933932   0.495634  -0.022686
     5  C   -0.051944  -0.030328  -0.044314   0.495634   5.084015   0.528702
     6  C    0.573163  -0.037108  -0.029957  -0.022686   0.528702   4.374121
     7  O   -0.047921   0.002226  -0.000026   0.003560  -0.054297   0.242572
     8  C    0.002283  -0.000073   0.000019  -0.000159  -0.007964  -0.042618
     9  C   -0.000029   0.000002   0.000000   0.000005   0.000364   0.001432
    10  H   -0.000039   0.000000   0.000000  -0.000001  -0.000003   0.000007
    11  C    0.000000   0.000000   0.000000   0.000000  -0.000006   0.000020
    12  O    0.000000   0.000000   0.000000   0.000000   0.000000   0.000000
    13  C    0.000000   0.000000   0.000000   0.000000   0.000000   0.000000
    14  O    0.000000   0.000000   0.000000   0.000000   0.000000   0.000000
    15  N    0.000000   0.000000   0.000000   0.000000   0.000000   0.000000
    16  O   -0.000007   0.000000   0.000000   0.000000  -0.000014   0.000142
    17  Cl   0.002152  -0.062970   0.211823  -0.063947   0.002432   0.000299
    18  H    0.375946  -0.029152   0.002532  -0.000173   0.003895  -0.027331
    19  H   -0.024586   0.381328  -0.029721   0.002248   0.000067   0.001802
    20  H    0.000299   0.001984  -0.027188   0.380727  -0.024767   0.000839
    21  H    0.002073   0.000187   0.002172  -0.028069   0.382465  -0.029951
    22  H    0.000041  -0.000004  -0.000003  -0.000189   0.000654  -0.000902
    23  H    0.000030  -0.000008  -0.000003  -0.000239   0.000994  -0.001250
    24  H    0.000000   0.000000   0.000000   0.000000   0.000001  -0.000009
    25  H    0.000000   0.000000   0.000000   0.000000  -0.000002   0.000000
    26  H    0.000000   0.000000   0.000000   0.000000   0.000000   0.000000
    27  H    0.000000   0.000000   0.000000   0.000000   0.000000   0.000000
    28  H    0.000000   0.000000   0.000000   0.000000  -0.000001  -0.000007
               7          8          9         10         11         12
     1  C   -0.047921   0.002283  -0.000029  -0.000039   0.000000   0.000000
     2  C    0.002226  -0.000073   0.000002   0.000000   0.000000   0.000000
     3  C   -0.000026   0.000019   0.000000   0.000000   0.000000   0.000000
     4  C    0.003560  -0.000159   0.000005  -0.000001   0.000000   0.000000
     5  C   -0.054297  -0.007964   0.000364  -0.000003  -0.000006   0.000000
     6  C    0.242572  -0.042618   0.001432   0.000007   0.000020   0.000000
     7  O    8.473645   0.200164  -0.039952   0.001974   0.001638  -0.000007
     8  C    0.200164   4.920271   0.340282  -0.057439  -0.063643   0.002068
     9  C   -0.039952   0.340282   4.757042   0.405020   0.344895  -0.034410
    10  H    0.001974  -0.057439   0.405020   0.523916  -0.039840   0.000297
    11  C    0.001638  -0.063643   0.344895  -0.039840   4.939733   0.164056
    12  O   -0.000007   0.002068  -0.034410   0.000297   0.164056   8.472104
    13  C   -0.000001   0.000583  -0.004676  -0.000775  -0.034773   0.304691
    14  O    0.000000  -0.000121  -0.001001   0.000009  -0.000723  -0.070545
    15  N    0.000000   0.000000  -0.000150  -0.000023   0.002476  -0.099435
    16  O    0.002475  -0.056135   0.231277  -0.037896  -0.039674   0.000551
    17  Cl   0.000001   0.000000   0.000000   0.000000   0.000000   0.000000
    18  H    0.000739  -0.000130  -0.000025   0.000011   0.000000   0.000000
    19  H   -0.000040   0.000001   0.000000   0.000000   0.000000   0.000000
    20  H   -0.000028  -0.000009   0.000000   0.000000   0.000000   0.000000
    21  H   -0.004606   0.001739   0.000040  -0.000002   0.000010   0.000000
    22  H   -0.039544   0.381077  -0.041746   0.000069   0.002194  -0.000008
    23  H   -0.036773   0.375641  -0.027249   0.004548  -0.002700  -0.000065
    24  H   -0.000069   0.000443  -0.038698  -0.001381   0.391442  -0.030015
    25  H   -0.000042  -0.002308  -0.042247   0.003999   0.390422  -0.033341
    26  H    0.000000   0.000000   0.000023   0.000003  -0.000118   0.003388
    27  H    0.000000   0.000000   0.000005   0.000000  -0.000089   0.002630
    28  H    0.000025  -0.001687  -0.030010   0.004571  -0.001804  -0.000752
              13         14         15         16         17         18
     1  C    0.000000   0.000000   0.000000  -0.000007   0.002152   0.375946
     2  C    0.000000   0.000000   0.000000   0.000000  -0.062970  -0.029152
     3  C    0.000000   0.000000   0.000000   0.000000   0.211823   0.002532
     4  C    0.000000   0.000000   0.000000   0.000000  -0.063947  -0.000173
     5  C    0.000000   0.000000   0.000000  -0.000014   0.002432   0.003895
     6  C    0.000000   0.000000   0.000000   0.000142   0.000299  -0.027331
     7  O   -0.000001   0.000000   0.000000   0.002475   0.000001   0.000739
     8  C    0.000583  -0.000121   0.000000  -0.056135   0.000000  -0.000130
     9  C   -0.004676  -0.001001  -0.000150   0.231277   0.000000  -0.000025
    10  H   -0.000775   0.000009  -0.000023  -0.037896   0.000000   0.000011
    11  C   -0.034773  -0.000723   0.002476  -0.039674   0.000000   0.000000
    12  O    0.304691  -0.070545  -0.099435   0.000551   0.000000   0.000000
    13  C    3.767737   0.561336   0.354361   0.007899   0.000000   0.000000
    14  O    0.561336   8.234122  -0.080478  -0.012461   0.000000   0.000000
    15  N    0.354361  -0.080478   7.135484  -0.000097   0.000000   0.000000
    16  O    0.007899  -0.012461  -0.000097   8.467936   0.000000   0.000005
    17  Cl   0.000000   0.000000   0.000000   0.000000  16.922927  -0.000075
    18  H    0.000000   0.000000   0.000000   0.000005  -0.000075   0.442075
    19  H    0.000000   0.000000   0.000000   0.000000   0.000442  -0.001989
    20  H    0.000000   0.000000   0.000000   0.000000   0.000564   0.000008
    21  H    0.000000   0.000000   0.000000   0.000000  -0.000088  -0.000093
    22  H   -0.000012   0.000001   0.000000   0.002896   0.000000   0.000017
    23  H   -0.000071  -0.000011   0.000000   0.000399   0.000000   0.000020
    24  H    0.003198   0.000305  -0.000010   0.002536   0.000000   0.000000
    25  H   -0.007980   0.008257  -0.000026  -0.000527   0.000000   0.000000
    26  H   -0.017702   0.002069   0.315161   0.000009   0.000000   0.000000
    27  H   -0.019042   0.003165   0.319037   0.000004   0.000000   0.000000
    28  H   -0.003389   0.025958   0.000119   0.244570   0.000000   0.000000
              19         20         21         22         23         24
     1  C   -0.024586   0.000299   0.002073   0.000041   0.000030   0.000000
     2  C    0.381328   0.001984   0.000187  -0.000004  -0.000008   0.000000
     3  C   -0.029721  -0.027188   0.002172  -0.000003  -0.000003   0.000000
     4  C    0.002248   0.380727  -0.028069  -0.000189  -0.000239   0.000000
     5  C    0.000067  -0.024767   0.382465   0.000654   0.000994   0.000001
     6  C    0.001802   0.000839  -0.029951  -0.000902  -0.001250  -0.000009
     7  O   -0.000040  -0.000028  -0.004606  -0.039544  -0.036773  -0.000069
     8  C    0.000001  -0.000009   0.001739   0.381077   0.375641   0.000443
     9  C    0.000000   0.000000   0.000040  -0.041746  -0.027249  -0.038698
    10  H    0.000000   0.000000  -0.000002   0.000069   0.004548  -0.001381
    11  C    0.000000   0.000000   0.000010   0.002194  -0.002700   0.391442
    12  O    0.000000   0.000000   0.000000  -0.000008  -0.000065  -0.030015
    13  C    0.000000   0.000000   0.000000  -0.000012  -0.000071   0.003198
    14  O    0.000000   0.000000   0.000000   0.000001  -0.000011   0.000305
    15  N    0.000000   0.000000   0.000000   0.000000   0.000000  -0.000010
    16  O    0.000000   0.000000   0.000000   0.002896   0.000399   0.002536
    17  Cl   0.000442   0.000564  -0.000088   0.000000   0.000000   0.000000
    18  H   -0.001989   0.000008  -0.000093   0.000017   0.000020   0.000000
    19  H    0.435215  -0.000100   0.000007   0.000000   0.000000   0.000000
    20  H   -0.000100   0.436023  -0.001474  -0.000001  -0.000001   0.000000
    21  H    0.000007  -0.001474   0.457763   0.000138   0.000053  -0.000003
    22  H    0.000000  -0.000001   0.000138   0.582654  -0.042833   0.000574
    23  H    0.000000  -0.000001   0.000053  -0.042833   0.555272   0.000266
    24  H    0.000000   0.000000  -0.000003   0.000574   0.000266   0.496930
    25  H    0.000000   0.000000   0.000001   0.000358   0.002279  -0.024616
    26  H    0.000000   0.000000   0.000000   0.000000   0.000000  -0.000022
    27  H    0.000000   0.000000   0.000000   0.000000   0.000000   0.000002
    28  H    0.000000   0.000000  -0.000001   0.000005   0.001267   0.000127
              25         26         27         28
     1  C    0.000000   0.000000   0.000000   0.000000
     2  C    0.000000   0.000000   0.000000   0.000000
     3  C    0.000000   0.000000   0.000000   0.000000
     4  C    0.000000   0.000000   0.000000   0.000000
     5  C   -0.000002   0.000000   0.000000  -0.000001
     6  C    0.000000   0.000000   0.000000  -0.000007
     7  O   -0.000042   0.000000   0.000000   0.000025
     8  C   -0.002308   0.000000   0.000000  -0.001687
     9  C   -0.042247   0.000023   0.000005  -0.030010
    10  H    0.003999   0.000003   0.000000   0.004571
    11  C    0.390422  -0.000118  -0.000089  -0.001804
    12  O   -0.033341   0.003388   0.002630  -0.000752
    13  C   -0.007980  -0.017702  -0.019042  -0.003389
    14  O    0.008257   0.002069   0.003165   0.025958
    15  N   -0.000026   0.315161   0.319037   0.000119
    16  O   -0.000527   0.000009   0.000004   0.244570
    17  Cl   0.000000   0.000000   0.000000   0.000000
    18  H    0.000000   0.000000   0.000000   0.000000
    19  H    0.000000   0.000000   0.000000   0.000000
    20  H    0.000000   0.000000   0.000000   0.000000
    21  H    0.000001   0.000000   0.000000  -0.000001
    22  H    0.000358   0.000000   0.000000   0.000005
    23  H    0.002279   0.000000   0.000000   0.001267
    24  H   -0.024616  -0.000022   0.000002   0.000127
    25  H    0.499004   0.000016  -0.000006   0.002006
    26  H    0.000016   0.296672  -0.012895  -0.000030
    27  H   -0.000006  -0.012895   0.292831  -0.000007
    28  H    0.002006  -0.000030  -0.000007   0.262047
 Mulliken charges:
               1
     1  C   -0.250183
     2  C   -0.165257
     3  C   -0.161388
     4  C   -0.164573
     5  C   -0.285585
     6  C    0.468721
     7  O   -0.705710
     8  C    0.007714
     9  C    0.179806
    10  H    0.192973
    11  C   -0.053514
    12  O   -0.681207
    13  C    1.088614
    14  O   -0.669881
    15  N   -0.946420
    16  O   -0.813889
    17  Cl  -0.013560
    18  H    0.233722
    19  H    0.235326
    20  H    0.233124
    21  H    0.217639
    22  H    0.154566
    23  H    0.170433
    24  H    0.198998
    25  H    0.204752
    26  H    0.413424
    27  H    0.414364
    28  H    0.496992
 Sum of Mulliken charges =   0.00000
 Mulliken charges with hydrogens summed into heavy atoms:
               1
     1  C   -0.016461
     2  C    0.070069
     3  C   -0.161388
     4  C    0.068551
     5  C   -0.067946
     6  C    0.468721
     7  O   -0.705710
     8  C    0.332713
     9  C    0.372778
    11  C    0.350236
    12  O   -0.681207
    13  C    1.088614
    14  O   -0.669881
    15  N   -0.118632
    16  O   -0.316897
    17  Cl  -0.013560
 DipInt: DoE/N= T F RetVal/Mat= T F Init=T NMatP=  1 IDeriv=0 Min/MaxMlt=  0  4
 Entering OneElI...
 OneElI was handed   235743339 working-precision words.
 Multipole integrals L=0 to 4 MinM= 0 MaxM= 0.
 Requested accuracy = 0.1000D-12
 PrtBox:  NBox=     1 Levels=  1 BoxLen=   38.94 SMaxX=       24.54
          Shift=           13.021183            4.085382            3.232110
 Box      1 Number                   0 centers from      1 to     89:
 ShPair: Thresh= 1.00D-13 NBox=     1 BxSize= 3.89D+01 RnKept= 2.19D+01
         NSMCal=                 4005 NSMKep=                2996
 PrsmSu:  NPrtUS=   1 ThrOK=F IAlg=1 NPAlg=1 LenDen=           0.
 Prism:   IPart=     0 DynPar=F LinDyn=F Incr=          29.
 PRISM was handed   235461197 working-precision words and  2996 shell-pairs
 IPart=  0 NShTot=        2996 NBatch=          98 AvBLen=        30.6
 PrSmSu:  NxtVal=             30.
 Electronic moments (au):
       -128.00000000         -1.85092036         -0.51048717         -0.96893262
      -7388.00284812       -371.37654835       -237.09704654         -2.31969326
          5.19520532          0.11201263      -1882.51011181       -137.01423596
        -75.08212845       -701.53272150       1318.00068526      -2320.06773236
        925.90352374         68.05989324         38.36396124        251.39286347
    -742472.25346538      -3328.63393977      -1520.85411313      12018.09504898
      -2603.97950723       -889.13015648         15.82338273        921.57504870
         -2.37478941     -14851.47019339     -13477.27446020       -631.99882694
       1223.47265395        125.31677919       -580.24332210
 Electronic spatial extent (au):  <R**2>=           7996.4764
 DipInt: DoE/N= F T RetVal/Mat= T F Init=T NMatP=  1 IDeriv=0 Min/MaxMlt=  0  4
 Nuclear    moments (au):
        128.00000000          0.00000000          0.00000000          0.00000000
       7320.53313847        300.39958815        159.55676797          0.00000000
         -0.00002407          0.00001010       1361.26110479        137.05822847
         72.25073319        706.79328210      -1207.24423791       2282.74425865
       -957.67668485        -63.20245249        -42.50740765       -261.05904327
     720330.15428553       2137.85108921        748.30926188     -13121.91706292
       2717.82014423        923.58069824        -34.78664672       -874.67836091
         25.12662533      10649.10300838       9009.44757633        280.86028219
      -1174.19273034       -104.66620532        510.87734916
 Total      moments (au):
          0.00000000         -1.85092036         -0.51048717         -0.96893262
        -67.46970965        -70.97696020        -77.54027857         -2.31969326
          5.19518124          0.11202274       -521.24900702          0.04399251
         -2.83139526          5.26056060        110.75644735        -37.32347371
        -31.77316111          4.85744075         -4.14344641         -9.66617980
     -22142.09917985      -1190.78285056       -772.54485125      -1103.82201394
        113.84063700         34.45054175        -18.96326399         46.89668779
         22.75183592      -4202.36718501      -4467.82688387       -351.13854476
         49.27992361         20.65057388        -69.36597294
 Traceless Quadrup. (au):
          4.52593983          1.01868927         -5.54462910         -2.31969326
          5.19518124          0.11202274
 Charge=              0.0000 electrons
 Dipole moment (field-independent basis, Debye):
    X=             -4.7046    Y=             -1.2975    Z=             -2.4628  Tot=              5.4664
 Quadrupole moment (field-independent basis, Debye-Ang):
   XX=            -90.7491   YY=            -95.4664   ZZ=           -104.2943
   XY=             -3.1201   XZ=              6.9877   YZ=              0.1507
 Traceless Quadrupole moment (field-independent basis, Debye-Ang):
   XX=              6.0875   YY=              1.3702   ZZ=             -7.4577
   XY=             -3.1201   XZ=              6.9877   YZ=              0.1507
 Octapole moment (field-independent basis, Debye-Ang**2):
  XXX=           -371.0049  YYY=              0.0313  ZZZ=             -2.0153  XYY=              3.7443
  XXY=             78.8322  XXZ=            -26.5654  XZZ=            -22.6149  YZZ=              3.4573
  YYZ=             -2.9491  XYZ=             -6.8800
 Hexadecapole moment (field-independent basis, Debye-Ang**3):
 XXXX=          -8339.7757 YYYY=           -448.5059 ZZZZ=           -290.9774 XXXY=           -415.7523
 XXXZ=             42.8778 YYYX=             12.9757 YYYZ=             -7.1425 ZZZX=             17.6635
 ZZZY=              8.5694 XXYY=          -1582.8129 XXZZ=          -1682.7977 YYZZ=           -132.2556
 XXYZ=             18.5612 YYXZ=              7.7780 ZZXY=            -26.1265
 N-N= 1.136844107028D+03 E-N=-5.103753811456D+03  KE= 1.198126632842D+03
 Entering OneElI...
 OneElI was handed   235786753 working-precision words.
 Calculate electrostatic properties
    NBasis =   252  MinDer = 0  MaxDer = 0
    NGrid  =    28  NMatD  =   1
 Requested accuracy = 0.1000D-12
 PrtBox:  NBox=     1 Levels=  1 BoxLen=   32.45 SMaxX=       24.54
          Shift=           13.021183            4.085382            3.232110
 Box      1 Number                   0 centers from      1 to     89:
 ShPair: Thresh= 1.00D-13 NBox=     1 BxSize= 3.24D+01 RnKept= 1.80D+01
         NSMCal=                 4005 NSMKep=                2670
 PrsmSu:  NPrtUS=   1 ThrOK=F IAlg=1 NPAlg=1 LenDen=           0.
 Prism:   IPart=     0 DynPar=F LinDyn=F Incr=         512.
 PRISM was handed   235530657 working-precision words and  2670 shell-pairs
 IPart=  0 NShTot=       74760 NBatch=        2753 AvBLen=        27.2
 PrSmSu:  NxtVal=            513.
 --------------------------------------------------------
       Center         ----      EFG at Nuclei      ----
                      3XX-RR        3YY-RR        3ZZ-RR
 --------------------------------------------------------
     1   Atom        0.144076      0.104088     -0.248165
     2   Atom        0.195446      0.132947     -0.328392
     3   Atom       -0.303043      0.331663     -0.028620
     4   Atom        0.175762      0.143331     -0.319093
     5   Atom        0.119175      0.085837     -0.205012
     6   Atom       -0.116233      0.374302     -0.258069
     7   Atom       -1.715234      0.083969      1.631264
     8   Atom       -0.067308     -0.120493      0.187801
     9   Atom        0.086118      0.027429     -0.113547
    10   Atom        0.143012     -0.021541     -0.121471
    11   Atom       -0.365063      0.116208      0.248856
    12   Atom       -0.942207      1.116821     -0.174614
    13   Atom        0.138403     -0.380892      0.242488
    14   Atom        0.874412     -0.219548     -0.654864
    15   Atom       -0.310117      0.722479     -0.412363
    16   Atom        0.983120      0.093498     -1.076618
    17   Atom       -3.445840      1.726670      1.719170
    18   Atom        0.082020     -0.242968      0.160948
    19   Atom       -0.033960     -0.131065      0.165025
    20   Atom        0.086291     -0.245604      0.159312
    21   Atom       -0.030333     -0.143462      0.173795
    22   Atom        0.117819     -0.030530     -0.087289
    23   Atom        0.128453      0.036662     -0.165115
    24   Atom        0.118860      0.070165     -0.189025
    25   Atom        0.124867     -0.060541     -0.064326
    26   Atom        0.143918      0.148334     -0.292252
    27   Atom        0.019684      0.168137     -0.187821
    28   Atom        0.047387      0.000429     -0.047816
 --------------------------------------------------------
                        XY            XZ            YZ
 --------------------------------------------------------
     1   Atom       -0.009289      0.040006     -0.032759
     2   Atom        0.006387      0.053254     -0.040302
     3   Atom        0.102662     -0.037137     -0.020790
     4   Atom       -0.006093      0.051482     -0.042115
     5   Atom       -0.006064      0.034689     -0.028795
     6   Atom        0.102647      0.005466     -0.046554
     7   Atom       -0.570496     -0.254894      0.174764
     8   Atom       -0.297342      0.003116      0.004106
     9   Atom        0.042657      0.062235     -0.213997
    10   Atom       -0.004242      0.008152      0.200233
    11   Atom        0.265014     -0.018027     -0.007755
    12   Atom        0.833212      0.904032     -0.141649
    13   Atom       -0.247279      0.128407     -0.114900
    14   Atom       -0.323218     -0.922311      0.336689
    15   Atom        0.598223      0.030777      0.140641
    16   Atom       -0.368646      1.343187     -0.461599
    17   Atom        0.791116     -0.595802      0.084643
    18   Atom        0.153030     -0.021980      0.050364
    19   Atom       -0.220785     -0.001172      0.003257
    20   Atom        0.148047     -0.021165      0.051349
    21   Atom       -0.219942     -0.001440      0.005555
    22   Atom        0.035504      0.049387     -0.202552
    23   Atom        0.004612     -0.024067      0.183990
    24   Atom        0.038485      0.066447     -0.169655
    25   Atom        0.009724     -0.007578      0.214519
    26   Atom        0.079269     -0.118564      0.197418
    27   Atom        0.125905      0.239642     -0.139569
    28   Atom       -0.185795      0.215253      0.187797
 --------------------------------------------------------


 ---------------------------------------------------------------------------------
              Nuclear Quadrupole Coupling Constant in Principal Axis System
 ---------------------------------------------------------------------------------

       Atom             a.u.   MegaHertz   Gauss  10(-4) cm-1        Axes

              Baa    -0.5897     2.832     1.011     0.945  0.8871 -0.4240  0.1823
    15 N(14)  Bbb    -0.4206     2.020     0.721     0.674 -0.2068 -0.0121  0.9783
              Bcc     1.0103    -4.852    -1.731    -1.619  0.4126  0.9056  0.0984
 
              Baa    -3.6318   -69.676   -24.862   -23.241  0.9828 -0.1469  0.1118
    17 Cl(35) Bbb     1.7865    34.274    12.230    11.433 -0.0992  0.0902  0.9910
              Bcc     1.8453    35.402    12.632    11.809  0.1556  0.9850 -0.0741
 

 ---------------------------------------------------------------------------------

 No NMR shielding tensors so no spin-rotation constants.
 Leave Link  601 at Thu Jan 16 21:49:55 2014, MaxMem=   235929600 cpu:         0.3
 FitSet:  NAtFit=    28 NAtPot=    28 NAtFrz=     0 MDM=    32 TotChg=   0.00000
 Merz-Kollman atomic radii used.
 Atom Element Radius
    1     6    1.50
    2     6    1.50
    3     6    1.50
    4     6    1.50
    5     6    1.50
    6     6    1.50
    7     8    1.40
    8     6    1.50
    9     6    1.50
   10     1    1.20
   11     6    1.50
   12     8    1.40
   13     6    1.50
   14     8    1.40
   15     7    1.50
   16     8    1.40
   17    17    1.70
   18     1    1.20
   19     1    1.20
   20     1    1.20
   21     1    1.20
   22     1    1.20
   23     1    1.20
   24     1    1.20
   25     1    1.20
   26     1    1.20
   27     1    1.20
   28     1    1.20
 Generate VDW surfaces: Layer= 5 Dens= 2 Start= 1.400 Inc= 0.179

 **********************************************************************

            Electrostatic Properties Using The SCF Density

 **********************************************************************

       Atomic Center    1 is at   2.511107  1.430086 -0.229008
       Atomic Center    2 is at   3.876419  1.228324 -0.073404
       Atomic Center    3 is at   4.366037 -0.070071  0.090214
       Atomic Center    4 is at   3.500176 -1.157409  0.098943
       Atomic Center    5 is at   2.125648 -0.955147 -0.058217
       Atomic Center    6 is at   1.625422  0.341656 -0.223491
       Atomic Center    7 is at   0.308837  0.653816 -0.390632
       Atomic Center    8 is at  -0.652709 -0.389897 -0.350094
       Atomic Center    9 is at  -2.037326  0.255037 -0.470190
       Atomic Center   10 is at  -2.011785  0.943661 -1.324627
       Atomic Center   11 is at  -3.078632 -0.836743 -0.744820
       Atomic Center   12 is at  -4.407286 -0.295550 -0.846926
       Atomic Center   13 is at  -5.088323 -0.172187  0.321083
       Atomic Center   14 is at  -4.634828 -0.441245  1.424740
       Atomic Center   15 is at  -6.359008  0.249529  0.086804
       Atomic Center   16 is at  -2.347219  1.035765  0.666013
       Atomic Center   17 is at   6.097489 -0.329163  0.287475
       Atomic Center   18 is at   2.104810  2.428578 -0.354144
       Atomic Center   19 is at   4.559447  2.071118 -0.076708
       Atomic Center   20 is at   3.889473 -2.161891  0.227312
       Atomic Center   21 is at   1.465184 -1.814274 -0.049455
       Atomic Center   22 is at  -0.475425 -1.097708 -1.175768
       Atomic Center   23 is at  -0.584415 -0.938810  0.599991
       Atomic Center   24 is at  -2.891669 -1.313349 -1.710359
       Atomic Center   25 is at  -3.064815 -1.597603  0.042300
       Atomic Center   26 is at  -6.601815  0.611230 -0.823487
       Atomic Center   27 is at  -6.890513  0.560122  0.885525
       Atomic Center   28 is at  -2.885675  0.493821  1.273056
      ESP Fit Center   29 is at   2.511107  1.430086  1.870992
      ESP Fit Center   30 is at   2.870228  2.052102  1.744347
      ESP Fit Center   31 is at   2.151986  2.052102  1.744347
      ESP Fit Center   32 is at   1.792865  1.430086  1.744347
      ESP Fit Center   33 is at   2.870228  0.808070  1.744347
      ESP Fit Center   34 is at   3.071857  2.657956  1.379685
      ESP Fit Center   35 is at   2.319003  2.766200  1.379685
      ESP Fit Center   36 is at   1.627141  2.450237  1.379685
      ESP Fit Center   37 is at   1.215932  1.810384  1.379685
      ESP Fit Center   38 is at   3.073102  3.159728  0.820992
      ESP Fit Center   39 is at   3.071857  2.657956 -1.837701
      ESP Fit Center   40 is at   1.215932  1.810384 -1.837701
      ESP Fit Center   41 is at   3.071857  0.202215 -1.837701
      ESP Fit Center   42 is at   3.229349  1.430086 -2.202362
      ESP Fit Center   43 is at   2.870228  2.052102 -2.202362
      ESP Fit Center   44 is at   2.151986  2.052102 -2.202362
      ESP Fit Center   45 is at   1.792865  1.430086 -2.202362
      ESP Fit Center   46 is at   2.151986  0.808070 -2.202362
      ESP Fit Center   47 is at   2.870228  0.808070 -2.202362
      ESP Fit Center   48 is at   2.511107  1.430086 -2.329008
      ESP Fit Center   49 is at   3.876419  1.228324  2.026596
      ESP Fit Center   50 is at   4.594661  1.228324  1.899951
      ESP Fit Center   51 is at   4.235540  1.850340  1.899951
      ESP Fit Center   52 is at   3.517298  1.850340  1.899951
      ESP Fit Center   53 is at   3.158177  1.228324  1.899951
      ESP Fit Center   54 is at   3.517298  0.606308  1.899951
      ESP Fit Center   55 is at   3.684315  2.564438  1.535289
      ESP Fit Center   56 is at   5.226273  1.228324 -1.682097
      ESP Fit Center   57 is at   3.684315  2.564438 -1.682097
      ESP Fit Center   58 is at   4.594661  1.228324 -2.046758
      ESP Fit Center   59 is at   4.235540  1.850340 -2.046758
      ESP Fit Center   60 is at   3.517298  1.850340 -2.046758
      ESP Fit Center   61 is at   3.517298  0.606308 -2.046758
      ESP Fit Center   62 is at   4.235540  0.606308 -2.046758
      ESP Fit Center   63 is at   3.876419  1.228324 -2.173404
      ESP Fit Center   64 is at   4.366037 -0.070071  2.190214
      ESP Fit Center   65 is at   4.725158  0.551945  2.063569
      ESP Fit Center   66 is at   4.006916  0.551945  2.063569
      ESP Fit Center   67 is at   3.647795 -0.070071  2.063569
      ESP Fit Center   68 is at   3.070862  0.310227  1.698907
      ESP Fit Center   69 is at   5.084279 -0.070071 -1.883140
      ESP Fit Center   70 is at   4.725158  0.551945 -1.883140
      ESP Fit Center   71 is at   3.647795 -0.070071 -1.883140
      ESP Fit Center   72 is at   4.725158 -0.692087 -1.883140
      ESP Fit Center   73 is at   4.366037 -0.070071 -2.009786
      ESP Fit Center   74 is at   3.500176 -1.157409  2.198943
      ESP Fit Center   75 is at   4.218418 -1.157409  2.072298
      ESP Fit Center   76 is at   3.141055 -0.535393  2.072298
      ESP Fit Center   77 is at   2.781934 -1.157409  2.072298
      ESP Fit Center   78 is at   3.141055 -1.779425  2.072298
      ESP Fit Center   79 is at   3.859297 -1.779425  2.072298
      ESP Fit Center   80 is at   2.616210 -2.177561  1.707636
      ESP Fit Center   81 is at   4.635745 -1.887195  1.707636
      ESP Fit Center   82 is at   2.590849 -2.732409  1.148943
      ESP Fit Center   83 is at   3.308072 -2.493524 -1.509750
      ESP Fit Center   84 is at   4.060926 -2.385280 -1.509750
      ESP Fit Center   85 is at   4.635745 -1.887195 -1.509750
      ESP Fit Center   86 is at   4.218418 -1.157409 -1.874411
      ESP Fit Center   87 is at   3.141055 -0.535393 -1.874411
      ESP Fit Center   88 is at   3.141055 -1.779425 -1.874411
      ESP Fit Center   89 is at   3.859297 -1.779425 -1.874411
      ESP Fit Center   90 is at   3.500176 -1.157409 -2.001057
      ESP Fit Center   91 is at   2.125648 -0.955147  2.041783
      ESP Fit Center   92 is at   2.484769 -0.333131  1.915138
      ESP Fit Center   93 is at   1.766527 -0.333131  1.915138
      ESP Fit Center   94 is at   1.407406 -0.955147  1.915138
      ESP Fit Center   95 is at   1.766527 -1.577163  1.915138
      ESP Fit Center   96 is at   2.484769 -1.577163  1.915138
      ESP Fit Center   97 is at   0.830473 -0.574849  1.550476
      ESP Fit Center   98 is at   0.830473 -1.335445  1.550476
      ESP Fit Center   99 is at   1.933544 -2.291262  1.550476
      ESP Fit Center  100 is at   2.687643 -2.684789 -1.108217
      ESP Fit Center  101 is at   1.933544 -2.291262 -1.666910
      ESP Fit Center  102 is at   2.686398 -2.183018 -1.666910
      ESP Fit Center  103 is at   2.843890 -0.955147 -2.031571
      ESP Fit Center  104 is at   2.484769 -0.333131 -2.031571
      ESP Fit Center  105 is at   1.407406 -0.955147 -2.031571
      ESP Fit Center  106 is at   1.766527 -1.577163 -2.031571
      ESP Fit Center  107 is at   2.484769 -1.577163 -2.031571
      ESP Fit Center  108 is at   2.125648 -0.955147 -2.158217
      ESP Fit Center  109 is at   1.625422  0.341656  1.876509
      ESP Fit Center  110 is at   2.343664  0.341656  1.749864
      ESP Fit Center  111 is at   1.984543  0.963672  1.749864
      ESP Fit Center  112 is at   1.266301  0.963672  1.749864
      ESP Fit Center  113 is at   0.907180  0.341656  1.749864
      ESP Fit Center  114 is at   1.266301 -0.280360  1.749864
      ESP Fit Center  115 is at   0.741456  1.361807  1.385202
      ESP Fit Center  116 is at   2.343664  0.341656 -2.196845
      ESP Fit Center  117 is at   1.266301  0.963672 -2.196845
      ESP Fit Center  118 is at   1.266301 -0.280360 -2.196845
      ESP Fit Center  119 is at   1.984543 -0.280360 -2.196845
      ESP Fit Center  120 is at   1.625422  0.341656 -2.323491
      ESP Fit Center  121 is at   0.308837  0.653816  1.569368
      ESP Fit Center  122 is at   0.683867  1.303387  1.420172
      ESP Fit Center  123 is at  -0.066193  1.303387  1.420172
      ESP Fit Center  124 is at   0.308837  2.039745  0.995297
      ESP Fit Center  125 is at  -0.384128  1.854066  0.995297
      ESP Fit Center  126 is at   0.119556  2.454700  0.359428
      ESP Fit Center  127 is at  -0.596565  2.222018  0.359428
      ESP Fit Center  128 is at  -0.227542  2.538994 -0.390632
      ESP Fit Center  129 is at  -0.872327  2.217930 -0.390632
      ESP Fit Center  130 is at   0.119556  2.454700 -1.140691
      ESP Fit Center  131 is at  -0.596565  2.222018 -1.140691
      ESP Fit Center  132 is at   1.001802  1.854066 -1.776561
      ESP Fit Center  133 is at   0.308837  2.039745 -1.776561
      ESP Fit Center  134 is at  -0.384128  1.854066 -1.776561
      ESP Fit Center  135 is at   0.683867  1.303387 -2.201436
      ESP Fit Center  136 is at  -0.066193  1.303387 -2.201436
      ESP Fit Center  137 is at  -0.441223  0.653816 -2.201436
      ESP Fit Center  138 is at   0.683867  0.004245 -2.201436
      ESP Fit Center  139 is at   0.308837  0.653816 -2.350632
      ESP Fit Center  140 is at  -0.293588  0.232119 -2.323448
      ESP Fit Center  141 is at  -1.678205 -0.366979 -2.443544
      ESP Fit Center  142 is at  -1.081364  2.291609 -0.950792
      ESP Fit Center  143 is at  -1.814361  2.569598 -0.950792
      ESP Fit Center  144 is at  -2.592585  2.475104 -0.950792
      ESP Fit Center  145 is at  -3.237755  2.029776 -0.950792
      ESP Fit Center  146 is at  -1.081364  2.291609 -1.698462
      ESP Fit Center  147 is at  -1.814361  2.569598 -1.698462
      ESP Fit Center  148 is at  -2.592585  2.475104 -1.698462
      ESP Fit Center  149 is at  -3.237755  2.029776 -1.698462
      ESP Fit Center  150 is at  -3.602070  1.335631 -1.698462
      ESP Fit Center  151 is at  -0.698308  0.943661 -2.372090
      ESP Fit Center  152 is at  -0.949160  1.715703 -2.372090
      ESP Fit Center  153 is at  -1.605898  2.192852 -2.372090
      ESP Fit Center  154 is at  -2.417672  2.192852 -2.372090
      ESP Fit Center  155 is at  -3.074410  1.715703 -2.372090
      ESP Fit Center  156 is at  -3.325262  0.943661 -2.372090
      ESP Fit Center  157 is at  -0.949160  0.171619 -2.372090
      ESP Fit Center  158 is at  -1.282860  0.943661 -2.838255
      ESP Fit Center  159 is at  -1.647323  1.574928 -2.838255
      ESP Fit Center  160 is at  -2.376247  1.574928 -2.838255
      ESP Fit Center  161 is at  -2.740710  0.943661 -2.838255
      ESP Fit Center  162 is at  -2.376247  0.312394 -2.838255
      ESP Fit Center  163 is at  -1.647323  0.312394 -2.838255
      ESP Fit Center  164 is at  -2.011785  0.943661 -3.004627
      ESP Fit Center  165 is at  -4.324939 -2.487119 -1.109481
      ESP Fit Center  166 is at  -3.644593 -2.825891 -1.109481
      ESP Fit Center  167 is at  -2.887812 -2.896017 -1.109481
      ESP Fit Center  168 is at  -3.270736  0.499372 -2.353513
      ESP Fit Center  169 is at  -4.226440  1.656089 -0.846926
      ESP Fit Center  170 is at  -4.943666  1.589628 -0.846926
      ESP Fit Center  171 is at  -5.588450 -1.859664 -0.846926
      ESP Fit Center  172 is at  -4.943666 -2.180728 -0.846926
      ESP Fit Center  173 is at  -3.847717  1.426627 -1.596985
      ESP Fit Center  174 is at  -4.596567  1.505334 -1.596985
      ESP Fit Center  175 is at  -5.872257 -1.359914 -1.596985
      ESP Fit Center  176 is at  -5.312688 -1.863752 -1.596985
      ESP Fit Center  177 is at  -4.596567 -2.096434 -1.596985
      ESP Fit Center  178 is at  -3.714321  0.904700 -2.232855
      ESP Fit Center  179 is at  -4.407286  1.090379 -2.232855
      ESP Fit Center  180 is at  -5.100251  0.904700 -2.232855
      ESP Fit Center  181 is at  -5.607536  0.397415 -2.232855
      ESP Fit Center  182 is at  -5.793215 -0.295550 -2.232855
      ESP Fit Center  183 is at  -5.607536 -0.988514 -2.232855
      ESP Fit Center  184 is at  -5.100251 -1.495800 -2.232855
      ESP Fit Center  185 is at  -4.032256  0.354021 -2.657730
      ESP Fit Center  186 is at  -4.782316  0.354021 -2.657730
      ESP Fit Center  187 is at  -5.157346 -0.295550 -2.657730
      ESP Fit Center  188 is at  -4.782316 -0.945120 -2.657730
      ESP Fit Center  189 is at  -4.407286 -0.295550 -2.806926
      ESP Fit Center  190 is at  -4.526328  1.557455  1.371083
      ESP Fit Center  191 is at  -5.278424  1.636504  1.371083
      ESP Fit Center  192 is at  -4.897503  1.887087  0.685744
      ESP Fit Center  193 is at  -6.334629 -1.822563  0.685744
      ESP Fit Center  194 is at  -5.654284 -2.161335  0.685744
      ESP Fit Center  195 is at  -4.166493  1.679097 -0.043578
      ESP Fit Center  196 is at  -4.897503  1.887087 -0.043578
      ESP Fit Center  197 is at  -5.654284 -2.161335 -0.043578
      ESP Fit Center  198 is at  -4.897503 -2.231461 -0.043578
      ESP Fit Center  199 is at  -5.997650 -1.747187 -0.728917
      ESP Fit Center  200 is at  -4.634828 -0.441245  3.384740
      ESP Fit Center  201 is at  -3.884769 -0.441245  3.235544
      ESP Fit Center  202 is at  -4.259798  0.208326  3.235544
      ESP Fit Center  203 is at  -5.009858  0.208326  3.235544
      ESP Fit Center  204 is at  -5.384888 -0.441245  3.235544
      ESP Fit Center  205 is at  -5.009858 -1.090815  3.235544
      ESP Fit Center  206 is at  -4.259798 -1.090815  3.235544
      ESP Fit Center  207 is at  -3.248899 -0.441245  2.810669
      ESP Fit Center  208 is at  -3.941863  0.759005  2.810669
      ESP Fit Center  209 is at  -4.634828  0.944684  2.810669
      ESP Fit Center  210 is at  -5.327793  0.759005  2.810669
      ESP Fit Center  211 is at  -5.835078  0.251720  2.810669
      ESP Fit Center  212 is at  -6.020757 -0.441245  2.810669
      ESP Fit Center  213 is at  -5.835078 -1.134209  2.810669
      ESP Fit Center  214 is at  -5.327793 -1.641495  2.810669
      ESP Fit Center  215 is at  -4.634828 -1.827174  2.810669
      ESP Fit Center  216 is at  -3.941863 -1.641495  2.810669
      ESP Fit Center  217 is at  -3.434578 -1.134209  2.810669
      ESP Fit Center  218 is at  -4.075259  1.280932  2.174800
      ESP Fit Center  219 is at  -4.824109  1.359639  2.174800
      ESP Fit Center  220 is at  -5.540230  1.126957  2.174800
      ESP Fit Center  221 is at  -6.406062 -0.817732  2.174800
      ESP Fit Center  222 is at  -6.099799 -1.505609  2.174800
      ESP Fit Center  223 is at  -5.540230 -2.009447  2.174800
      ESP Fit Center  224 is at  -4.824109 -2.242129  2.174800
      ESP Fit Center  225 is at  -4.075259 -2.163422  2.174800
      ESP Fit Center  226 is at  -3.423164 -1.786934  2.174800
      ESP Fit Center  227 is at  -2.980576 -1.177765  2.174800
      ESP Fit Center  228 is at  -4.453982  1.510394  1.424740
      ESP Fit Center  229 is at  -5.815992 -2.005359  1.424740
      ESP Fit Center  230 is at  -5.171208 -2.326423  1.424740
      ESP Fit Center  231 is at  -4.453982 -2.392884  1.424740
      ESP Fit Center  232 is at  -4.824109 -2.242129  0.674681
      ESP Fit Center  233 is at  -6.551112 -1.086585  1.695497
      ESP Fit Center  234 is at  -5.797013  1.979171  1.136804
      ESP Fit Center  235 is at  -7.830329 -0.819448  1.136804
      ESP Fit Center  236 is at  -7.268335 -1.325471  1.136804
      ESP Fit Center  237 is at  -6.549109 -1.559161  1.136804
      ESP Fit Center  238 is at  -5.437178  2.100813  0.451465
      ESP Fit Center  239 is at  -6.168188  2.308803  0.451465
      ESP Fit Center  240 is at  -6.924969  2.238677  0.451465
      ESP Fit Center  241 is at  -8.391891 -0.130482  0.451465
      ESP Fit Center  242 is at  -8.117339 -0.839183  0.451465
      ESP Fit Center  243 is at  -7.605314 -1.400847  0.451465
      ESP Fit Center  244 is at  -6.924969 -1.739619  0.451465
      ESP Fit Center  245 is at  -5.437178  2.100813 -0.277857
      ESP Fit Center  246 is at  -6.168188  2.308803 -0.277857
      ESP Fit Center  247 is at  -6.924969  2.238677 -0.277857
      ESP Fit Center  248 is at  -7.605314  1.899906 -0.277857
      ESP Fit Center  249 is at  -8.117339  1.338242 -0.277857
      ESP Fit Center  250 is at  -8.391891  0.629541 -0.277857
      ESP Fit Center  251 is at  -8.391891 -0.130482 -0.277857
      ESP Fit Center  252 is at  -8.117339 -0.839183 -0.277857
      ESP Fit Center  253 is at  -7.605314 -1.400847 -0.277857
      ESP Fit Center  254 is at  -6.924969 -1.739619 -0.277857
      ESP Fit Center  255 is at  -5.142091  1.601052 -0.963196
      ESP Fit Center  256 is at  -8.137919 -0.128590 -0.963196
      ESP Fit Center  257 is at  -7.830329 -0.819448 -0.963196
      ESP Fit Center  258 is at  -7.268335 -1.325471 -0.963196
      ESP Fit Center  259 is at  -6.549109 -1.559161 -0.963196
      ESP Fit Center  260 is at  -6.551112 -1.086585 -1.521889
      ESP Fit Center  261 is at  -1.597159  1.035765  2.476817
      ESP Fit Center  262 is at  -1.972189  1.685336  2.476817
      ESP Fit Center  263 is at  -2.722249  1.685336  2.476817
      ESP Fit Center  264 is at  -0.961290  1.035765  2.051942
      ESP Fit Center  265 is at  -1.146969  1.728730  2.051942
      ESP Fit Center  266 is at  -1.654254  2.236015  2.051942
      ESP Fit Center  267 is at  -2.347219  2.421694  2.051942
      ESP Fit Center  268 is at  -3.040184  2.236015  2.051942
      ESP Fit Center  269 is at  -1.146969  0.342800  2.051942
      ESP Fit Center  270 is at  -0.536415  1.035765  1.416073
      ESP Fit Center  271 is at  -0.692967  1.772285  1.416073
      ESP Fit Center  272 is at  -1.135555  2.381455  1.416073
      ESP Fit Center  273 is at  -1.787650  2.757942  1.416073
      ESP Fit Center  274 is at  -2.536500  2.836649  1.416073
      ESP Fit Center  275 is at  -3.252621  2.603967  1.416073
      ESP Fit Center  276 is at  -3.812190  2.100129  1.416073
      ESP Fit Center  277 is at  -0.898762  2.356209  0.666013
      ESP Fit Center  278 is at  -1.473572  2.790285  0.666013
      ESP Fit Center  279 is at  -2.166373  2.987404  0.666013
      ESP Fit Center  280 is at  -2.883598  2.920943  0.666013
      ESP Fit Center  281 is at  -3.528383  2.599879  0.666013
      ESP Fit Center  282 is at  -4.013645  2.067572  0.666013
      ESP Fit Center  283 is at  -1.135555  2.381455 -0.084046
      ESP Fit Center  284 is at  -1.787650  2.757942 -0.084046
      ESP Fit Center  285 is at  -2.536500  2.836649 -0.084046
      ESP Fit Center  286 is at  -3.252621  2.603967 -0.084046
      ESP Fit Center  287 is at  -3.812190  2.100129 -0.084046
      ESP Fit Center  288 is at  -3.040184  2.236015 -0.719916
      ESP Fit Center  289 is at  -3.547469  1.728730 -0.719916
      ESP Fit Center  290 is at   6.097489 -0.329163  2.667475
      ESP Fit Center  291 is at   6.832949 -0.329163  2.550990
      ESP Fit Center  292 is at   6.465219  0.307764  2.550990
      ESP Fit Center  293 is at   5.729759  0.307764  2.550990
      ESP Fit Center  294 is at   5.362028 -0.329163  2.550990
      ESP Fit Center  295 is at   5.729759 -0.966091  2.550990
      ESP Fit Center  296 is at   6.465219 -0.966091  2.550990
      ESP Fit Center  297 is at   7.496418 -0.329163  2.212935
      ESP Fit Center  298 is at   7.308997  0.370301  2.212935
      ESP Fit Center  299 is at   6.796953  0.882345  2.212935
      ESP Fit Center  300 is at   6.097489  1.069766  2.212935
      ESP Fit Center  301 is at   5.398024  0.882345  2.212935
      ESP Fit Center  302 is at   4.885981  0.370301  2.212935
      ESP Fit Center  303 is at   4.698560 -0.329163  2.212935
      ESP Fit Center  304 is at   4.885981 -1.028628  2.212935
      ESP Fit Center  305 is at   5.398024 -1.540671  2.212935
      ESP Fit Center  306 is at   6.097489 -1.728092  2.212935
      ESP Fit Center  307 is at   6.796953 -1.540671  2.212935
      ESP Fit Center  308 is at   7.308997 -1.028628  2.212935
      ESP Fit Center  309 is at   8.022949 -0.329163  1.686404
      ESP Fit Center  310 is at   7.876382  0.407678  1.686404
      ESP Fit Center  311 is at   7.458995  1.032343  1.686404
      ESP Fit Center  312 is at   6.834331  1.449730  1.686404
      ESP Fit Center  313 is at   6.097489  1.596297  1.686404
      ESP Fit Center  314 is at   5.360647  1.449730  1.686404
      ESP Fit Center  315 is at   5.360647 -2.108057  1.686404
      ESP Fit Center  316 is at   6.097489 -2.254624  1.686404
      ESP Fit Center  317 is at   6.834331 -2.108057  1.686404
      ESP Fit Center  318 is at   7.458995 -1.690670  1.686404
      ESP Fit Center  319 is at   7.876382 -1.066005  1.686404
      ESP Fit Center  320 is at   8.361003 -0.329163  1.022935
      ESP Fit Center  321 is at   8.238360  0.405799  1.022935
      ESP Fit Center  322 is at   7.883720  1.061116  1.022935
      ESP Fit Center  323 is at   7.335514  1.565775  1.022935
      ESP Fit Center  324 is at   6.653149  1.865088  1.022935
      ESP Fit Center  325 is at   5.910569  1.926620  1.022935
      ESP Fit Center  326 is at   5.910569 -2.584947  1.022935
      ESP Fit Center  327 is at   6.653149 -2.523415  1.022935
      ESP Fit Center  328 is at   7.335514 -2.224102  1.022935
      ESP Fit Center  329 is at   7.883720 -1.719443  1.022935
      ESP Fit Center  330 is at   8.238360 -1.064125  1.022935
      ESP Fit Center  331 is at   8.477489 -0.329163  0.287475
      ESP Fit Center  332 is at   8.371752  0.372354  0.287475
      ESP Fit Center  333 is at   8.063937  1.011538  0.287475
      ESP Fit Center  334 is at   7.581395  1.531596  0.287475
      ESP Fit Center  335 is at   6.967001  1.886316  0.287475
      ESP Fit Center  336 is at   6.275347  2.044182  0.287475
      ESP Fit Center  337 is at   5.567889 -2.649492  0.287475
      ESP Fit Center  338 is at   6.275347 -2.702508  0.287475
      ESP Fit Center  339 is at   6.967001 -2.544643  0.287475
      ESP Fit Center  340 is at   7.581395 -2.189922  0.287475
      ESP Fit Center  341 is at   8.063937 -1.669865  0.287475
      ESP Fit Center  342 is at   8.371752 -1.030681  0.287475
      ESP Fit Center  343 is at   8.361003 -0.329163 -0.447985
      ESP Fit Center  344 is at   8.238360  0.405799 -0.447985
      ESP Fit Center  345 is at   7.883720  1.061116 -0.447985
      ESP Fit Center  346 is at   7.335514  1.565775 -0.447985
      ESP Fit Center  347 is at   6.653149  1.865088 -0.447985
      ESP Fit Center  348 is at   5.910569 -2.584947 -0.447985
      ESP Fit Center  349 is at   6.653149 -2.523415 -0.447985
      ESP Fit Center  350 is at   7.335514 -2.224102 -0.447985
      ESP Fit Center  351 is at   7.883720 -1.719443 -0.447985
      ESP Fit Center  352 is at   8.238360 -1.064125 -0.447985
      ESP Fit Center  353 is at   8.022949 -0.329163 -1.111454
      ESP Fit Center  354 is at   7.876382  0.407678 -1.111454
      ESP Fit Center  355 is at   7.458995  1.032343 -1.111454
      ESP Fit Center  356 is at   6.834331  1.449730 -1.111454
      ESP Fit Center  357 is at   6.097489  1.596297 -1.111454
      ESP Fit Center  358 is at   5.360647 -2.108057 -1.111454
      ESP Fit Center  359 is at   6.097489 -2.254624 -1.111454
      ESP Fit Center  360 is at   6.834331 -2.108057 -1.111454
      ESP Fit Center  361 is at   7.458995 -1.690670 -1.111454
      ESP Fit Center  362 is at   7.876382 -1.066005 -1.111454
      ESP Fit Center  363 is at   7.496418 -0.329163 -1.637985
      ESP Fit Center  364 is at   7.308997  0.370301 -1.637985
      ESP Fit Center  365 is at   6.796953  0.882345 -1.637985
      ESP Fit Center  366 is at   6.097489  1.069766 -1.637985
      ESP Fit Center  367 is at   5.398024  0.882345 -1.637985
      ESP Fit Center  368 is at   5.398024 -1.540671 -1.637985
      ESP Fit Center  369 is at   6.097489 -1.728092 -1.637985
      ESP Fit Center  370 is at   6.796953 -1.540671 -1.637985
      ESP Fit Center  371 is at   7.308997 -1.028628 -1.637985
      ESP Fit Center  372 is at   6.832949 -0.329163 -1.976039
      ESP Fit Center  373 is at   6.465219  0.307764 -1.976039
      ESP Fit Center  374 is at   5.729759  0.307764 -1.976039
      ESP Fit Center  375 is at   5.362028 -0.329163 -1.976039
      ESP Fit Center  376 is at   5.729759 -0.966091 -1.976039
      ESP Fit Center  377 is at   6.465219 -0.966091 -1.976039
      ESP Fit Center  378 is at   6.097489 -0.329163 -2.092525
      ESP Fit Center  379 is at   2.469272  3.059845  1.159484
      ESP Fit Center  380 is at   1.740348  3.059845  1.159484
      ESP Fit Center  381 is at   3.167435  3.200620  0.693319
      ESP Fit Center  382 is at   2.510697  3.677769  0.693319
      ESP Fit Center  383 is at   1.698923  3.677769  0.693319
      ESP Fit Center  384 is at   1.042185  3.200620  0.693319
      ESP Fit Center  385 is at   0.791333  2.428578  0.693319
      ESP Fit Center  386 is at   3.035231  3.776526  0.019691
      ESP Fit Center  387 is at   2.302235  4.054515  0.019691
      ESP Fit Center  388 is at   1.524010  3.960021  0.019691
      ESP Fit Center  389 is at   0.878840  3.514692  0.019691
      ESP Fit Center  390 is at   0.514525  2.820548  0.019691
      ESP Fit Center  391 is at   3.035231  3.776526 -0.727979
      ESP Fit Center  392 is at   2.302235  4.054515 -0.727979
      ESP Fit Center  393 is at   1.524010  3.960021 -0.727979
      ESP Fit Center  394 is at   0.878840  3.514692 -0.727979
      ESP Fit Center  395 is at   0.514525  2.820548 -0.727979
      ESP Fit Center  396 is at   3.167435  3.200620 -1.401607
      ESP Fit Center  397 is at   2.510697  3.677769 -1.401607
      ESP Fit Center  398 is at   1.698923  3.677769 -1.401607
      ESP Fit Center  399 is at   1.042185  3.200620 -1.401607
      ESP Fit Center  400 is at   0.791333  2.428578 -1.401607
      ESP Fit Center  401 is at   2.469272  3.059845 -1.867772
      ESP Fit Center  402 is at   1.740348  3.059845 -1.867772
      ESP Fit Center  403 is at   1.375885  2.428578 -1.867772
      ESP Fit Center  404 is at   2.104810  2.428578 -2.034144
      ESP Fit Center  405 is at   5.288372  2.071118  1.436920
      ESP Fit Center  406 is at   4.923909  2.702385  1.436920
      ESP Fit Center  407 is at   4.194985  2.702385  1.436920
      ESP Fit Center  408 is at   5.872924  2.071118  0.970755
      ESP Fit Center  409 is at   5.622072  2.843160  0.970755
      ESP Fit Center  410 is at   4.965334  3.320308  0.970755
      ESP Fit Center  411 is at   4.153560  3.320308  0.970755
      ESP Fit Center  412 is at   6.197326  2.071118  0.297127
      ESP Fit Center  413 is at   6.009717  2.832278  0.297127
      ESP Fit Center  414 is at   5.489868  3.419066  0.297127
      ESP Fit Center  415 is at   4.756872  3.697055  0.297127
      ESP Fit Center  416 is at   3.978647  3.602561  0.297127
      ESP Fit Center  417 is at   6.197326  2.071118 -0.450543
      ESP Fit Center  418 is at   6.009717  2.832278 -0.450543
      ESP Fit Center  419 is at   5.489868  3.419066 -0.450543
      ESP Fit Center  420 is at   4.756872  3.697055 -0.450543
      ESP Fit Center  421 is at   3.978647  3.602561 -0.450543
      ESP Fit Center  422 is at   5.872924  2.071118 -1.124171
      ESP Fit Center  423 is at   5.622072  2.843160 -1.124171
      ESP Fit Center  424 is at   4.965334  3.320308 -1.124171
      ESP Fit Center  425 is at   4.153560  3.320308 -1.124171
      ESP Fit Center  426 is at   5.288372  2.071118 -1.590336
      ESP Fit Center  427 is at   4.923909  2.702385 -1.590336
      ESP Fit Center  428 is at   4.194985  2.702385 -1.590336
      ESP Fit Center  429 is at   3.889473 -2.161891  1.907312
      ESP Fit Center  430 is at   4.618398 -2.161891  1.740940
      ESP Fit Center  431 is at   3.525011 -2.793159  1.740940
      ESP Fit Center  432 is at   4.253935 -2.793159  1.740940
      ESP Fit Center  433 is at   2.826848 -2.933934  1.274775
      ESP Fit Center  434 is at   3.483586 -3.411082  1.274775
      ESP Fit Center  435 is at   4.295360 -3.411082  1.274775
      ESP Fit Center  436 is at   4.952098 -2.933934  1.274775
      ESP Fit Center  437 is at   2.663503 -3.248006  0.601147
      ESP Fit Center  438 is at   3.308673 -3.693335  0.601147
      ESP Fit Center  439 is at   4.086897 -3.787828  0.601147
      ESP Fit Center  440 is at   4.819894 -3.509839  0.601147
      ESP Fit Center  441 is at   5.339743 -2.923052  0.601147
      ESP Fit Center  442 is at   2.663503 -3.248006 -0.146523
      ESP Fit Center  443 is at   3.308673 -3.693335 -0.146523
      ESP Fit Center  444 is at   4.086897 -3.787828 -0.146523
      ESP Fit Center  445 is at   4.819894 -3.509839 -0.146523
      ESP Fit Center  446 is at   5.339743 -2.923052 -0.146523
      ESP Fit Center  447 is at   2.826848 -2.933934 -0.820151
      ESP Fit Center  448 is at   3.483586 -3.411082 -0.820151
      ESP Fit Center  449 is at   4.295360 -3.411082 -0.820151
      ESP Fit Center  450 is at   4.952098 -2.933934 -0.820151
      ESP Fit Center  451 is at   3.525011 -2.793159 -1.286316
      ESP Fit Center  452 is at   4.253935 -2.793159 -1.286316
      ESP Fit Center  453 is at   0.736259 -1.814274  1.464173
      ESP Fit Center  454 is at   1.100722 -2.445541  1.464173
      ESP Fit Center  455 is at   1.829646 -2.445541  1.464173
      ESP Fit Center  456 is at   0.402559 -2.586316  0.998008
      ESP Fit Center  457 is at   1.059297 -3.063465  0.998008
      ESP Fit Center  458 is at   1.871071 -3.063465  0.998008
      ESP Fit Center  459 is at   0.239214 -2.900389  0.324380
      ESP Fit Center  460 is at   0.884384 -3.345718  0.324380
      ESP Fit Center  461 is at   1.662608 -3.440211  0.324380
      ESP Fit Center  462 is at   2.395605 -3.162222  0.324380
      ESP Fit Center  463 is at   0.239214 -2.900389 -0.423290
      ESP Fit Center  464 is at   0.884384 -3.345718 -0.423290
      ESP Fit Center  465 is at   1.662608 -3.440211 -0.423290
      ESP Fit Center  466 is at   2.395605 -3.162222 -0.423290
      ESP Fit Center  467 is at   0.402559 -2.586316 -1.096918
      ESP Fit Center  468 is at   1.059297 -3.063465 -1.096918
      ESP Fit Center  469 is at   1.871071 -3.063465 -1.096918
      ESP Fit Center  470 is at   1.100722 -2.445541 -1.563083
      ESP Fit Center  471 is at   1.829646 -2.445541 -1.563083
      ESP Fit Center  472 is at  -1.056225 -2.629151 -0.801933
      ESP Fit Center  473 is at  -0.278001 -2.723645 -0.801933
      ESP Fit Center  474 is at  -1.056225 -2.629151 -1.549603
      ESP Fit Center  475 is at  -0.278001 -2.723645 -1.549603
      ESP Fit Center  476 is at   0.454996 -2.445656 -1.549603
      ESP Fit Center  477 is at   0.838052 -1.097708 -2.223231
      ESP Fit Center  478 is at   0.587200 -0.325666 -2.223231
      ESP Fit Center  479 is at  -0.881312 -2.346899 -2.223231
      ESP Fit Center  480 is at  -0.069538 -2.346899 -2.223231
      ESP Fit Center  481 is at   0.587200 -1.869750 -2.223231
      ESP Fit Center  482 is at   0.253500 -1.097708 -2.689396
      ESP Fit Center  483 is at  -0.110963 -0.466441 -2.689396
      ESP Fit Center  484 is at  -0.839887 -0.466441 -2.689396
      ESP Fit Center  485 is at  -1.204350 -1.097708 -2.689396
      ESP Fit Center  486 is at  -0.839887 -1.728975 -2.689396
      ESP Fit Center  487 is at  -0.110963 -1.728975 -2.689396
      ESP Fit Center  488 is at  -0.475425 -1.097708 -2.855768
      ESP Fit Center  489 is at  -0.584415 -0.938810  2.279991
      ESP Fit Center  490 is at   0.144510 -0.938810  2.113619
      ESP Fit Center  491 is at  -0.219953 -0.307543  2.113619
      ESP Fit Center  492 is at  -0.948877 -0.307543  2.113619
      ESP Fit Center  493 is at  -1.313340 -0.938810  2.113619
      ESP Fit Center  494 is at  -0.948877 -1.570077  2.113619
      ESP Fit Center  495 is at  -0.219953 -1.570077  2.113619
      ESP Fit Center  496 is at   0.729062 -0.938810  1.647454
      ESP Fit Center  497 is at   0.478210 -0.166768  1.647454
      ESP Fit Center  498 is at  -0.178528  0.310381  1.647454
      ESP Fit Center  499 is at  -1.897892 -0.938810  1.647454
      ESP Fit Center  500 is at  -1.647040 -1.710852  1.647454
      ESP Fit Center  501 is at  -0.990302 -2.188001  1.647454
      ESP Fit Center  502 is at  -0.178528 -2.188001  1.647454
      ESP Fit Center  503 is at   0.478210 -1.710852  1.647454
      ESP Fit Center  504 is at  -1.165215 -2.470253  0.973826
      ESP Fit Center  505 is at  -0.386991 -2.564747  0.973826
      ESP Fit Center  506 is at  -1.165215 -2.470253  0.226156
      ESP Fit Center  507 is at  -0.386991 -2.564747  0.226156
      ESP Fit Center  508 is at  -3.472469 -2.844792 -1.336524
      ESP Fit Center  509 is at  -2.694245 -2.939286 -1.336524
      ESP Fit Center  510 is at  -1.961248 -2.661297 -1.336524
      ESP Fit Center  511 is at  -4.117639 -2.399464 -2.084194
      ESP Fit Center  512 is at  -3.472469 -2.844792 -2.084194
      ESP Fit Center  513 is at  -2.694245 -2.939286 -2.084194
      ESP Fit Center  514 is at  -1.961248 -2.661297 -2.084194
[...]
 2908 Fit       0.002354
 2909 Fit       0.003753
 2910 Fit       0.005502
 2911 Fit       0.007275
 2912 Fit       0.007905
 2913 Fit       0.005967
 2914 Fit       0.007143
 2915 Fit       0.009854
 2916 Fit       0.013466
 2917 Fit       0.012647
 2918 Fit       0.009566
 2919 Fit       0.009146
 2920 Fit       0.011383
 2921 Fit       0.013884
 2922 Fit       0.019458
 2923 Fit       0.022773
 2924 Fit       0.008713
 2925 Fit       0.011462
 2926 Fit       0.014040
 2927 Fit       0.016627
 2928 Fit       0.019359
 2929 Fit       0.022405
 2930 Fit       0.010175
 2931 Fit       0.013349
 2932 Fit       0.011284
 2933 Fit      -0.004265
 2934 Fit       0.006694
 2935 Fit       0.001376
 2936 Fit       0.004817
 2937 Fit       0.005962
 2938 Fit       0.002753
 2939 Fit       0.007557
 2940 Fit       0.005810
 2941 Fit       0.006300
 2942 Fit       0.004388
 2943 Fit       0.007334
 2944 Fit       0.013182
 2945 Fit       0.011449
 2946 Fit       0.007165
 2947 Fit       0.006338
 2948 Fit       0.008852
 2949 Fit       0.007075
 2950 Fit       0.005593
 2951 Fit       0.007518
 2952 Fit       0.009692
 2953 Fit       0.008825
 2954 Fit       0.006855
 2955 Fit       0.007366
 2956 Fit       0.007537
 2957 Fit       0.006463
 2958 Fit       0.006796
 2959 Fit       0.007732
 2960 Fit       0.007789
 2961 Fit      -0.005890
 2962 Fit      -0.003011
 2963 Fit      -0.002859
 2964 Fit       0.000617
 2965 Fit       0.002302
 2966 Fit       0.004634
 2967 Fit      -0.005135
 2968 Fit       0.004622
 2969 Fit       0.007495
 2970 Fit       0.004358
 2971 Fit      -0.017701
 2972 Fit      -0.017070
 2973 Fit      -0.017117
 2974 Fit      -0.016514
 2975 Fit      -0.016631
 2976 Fit      -0.017755
 2977 Fit      -0.017638
 2978 Fit      -0.014771
 2979 Fit      -0.015354
 2980 Fit      -0.016145
 2981 Fit      -0.015595
 2982 Fit      -0.013787
 2983 Fit      -0.012585
 2984 Fit      -0.013566
 2985 Fit      -0.015734
 2986 Fit      -0.017208
 2987 Fit      -0.017351
 2988 Fit      -0.016466
 2989 Fit      -0.015301
 2990 Fit      -0.010598
 2991 Fit      -0.015305
 2992 Fit      -0.014499
 2993 Fit      -0.011637
 2994 Fit      -0.007908
 2995 Fit      -0.005449
 2996 Fit      -0.006359
 2997 Fit      -0.009884
 2998 Fit      -0.013432
 2999 Fit      -0.015615
 3000 Fit      -0.016320
 3001 Fit      -0.015814
 3002 Fit      -0.014437
 3003 Fit      -0.012652
 3004 Fit      -0.011115
 3005 Fit      -0.013233
 3006 Fit      -0.008570
 3007 Fit      -0.002245
 3008 Fit      -0.002668
 3009 Fit      -0.008683
 3010 Fit      -0.012360
 3011 Fit      -0.014083
 3012 Fit      -0.014358
 3013 Fit      -0.013481
 3014 Fit      -0.011655
 3015 Fit      -0.009183
 3016 Fit      -0.006573
 3017 Fit      -0.010896
 3018 Fit      -0.003348
 3019 Fit      -0.006305
 3020 Fit      -0.009896
 3021 Fit      -0.011398
 3022 Fit      -0.011518
 3023 Fit      -0.010457
 3024 Fit      -0.008245
 3025 Fit      -0.005007
 3026 Fit      -0.001154
 3027 Fit       0.002629
 3028 Fit      -0.007480
 3029 Fit      -0.007948
 3030 Fit      -0.007253
 3031 Fit      -0.005192
 3032 Fit      -0.002032
 3033 Fit       0.001431
 3034 Fit       0.000129
 3035 Fit       0.008374
 3036 Fit       0.005466
 3037 Fit      -0.000622
 3038 Fit       0.001533
 3039 Fit       0.008511
 3040 Fit       0.014820
 3041 Fit       0.012478
 3042 Fit       0.007079
 3043 Fit       0.002384
 3044 Fit      -0.001422
 3045 Fit      -0.004712
 3046 Fit      -0.001372
 3047 Fit       0.005641
 3048 Fit       0.011624
 3049 Fit       0.016934
 3050 Fit       0.021320
 3051 Fit       0.021192
 3052 Fit       0.016820
 3053 Fit       0.011852
 3054 Fit       0.007037
 3055 Fit       0.002983
 3056 Fit       0.000082
 3057 Fit      -0.001538
 3058 Fit      -0.001289
 3059 Fit       0.005545
 3060 Fit       0.011192
 3061 Fit       0.016144
 3062 Fit       0.020276
 3063 Fit       0.023208
 3064 Fit       0.024543
 3065 Fit       0.024060
 3066 Fit       0.021824
 3067 Fit       0.018203
 3068 Fit       0.013778
 3069 Fit       0.009212
 3070 Fit       0.005133
 3071 Fit       0.002057
 3072 Fit       0.000348
 3073 Fit       0.000205
 3074 Fit       0.003332
 3075 Fit       0.009416
 3076 Fit       0.014670
 3077 Fit       0.019166
 3078 Fit       0.022612
 3079 Fit       0.024605
 3080 Fit       0.024852
 3081 Fit       0.023308
 3082 Fit       0.020227
 3083 Fit       0.016112
 3084 Fit       0.011609
 3085 Fit       0.007389
 3086 Fit       0.004046
 3087 Fit       0.002042
 3088 Fit       0.001664
 3089 Fit       0.003010
 3090 Fit       0.003426
 3091 Fit       0.009802
 3092 Fit       0.015413
 3093 Fit       0.024700
 3094 Fit       0.021453
 3095 Fit       0.017191
 3096 Fit       0.012632
 3097 Fit       0.008493
 3098 Fit       0.005381
 3099 Fit       0.003699
 3100 Fit       0.003560
 3101 Fit       0.018909
 3102 Fit       0.013978
 3103 Fit       0.009753
 3104 Fit       0.006852
 3105 Fit       0.005369
 3106 Fit       0.015590
 3107 Fit       0.011294
 3108 Fit       0.008183
 3109 Fit      -0.014918
 3110 Fit      -0.017167
 3111 Fit      -0.015280
 3112 Fit      -0.017496
 3113 Fit      -0.021002
 3114 Fit      -0.021485
 3115 Fit      -0.019732
 3116 Fit      -0.016901
 3117 Fit      -0.011578
 3118 Fit      -0.020164
 3119 Fit      -0.024336
 3120 Fit      -0.025625
 3121 Fit      -0.025015
 3122 Fit      -0.023098
 3123 Fit      -0.020194
 3124 Fit      -0.016927
 3125 Fit      -0.013043
 3126 Fit      -0.027712
 3127 Fit      -0.028898
 3128 Fit      -0.028436
 3129 Fit      -0.027145
 3130 Fit      -0.025087
 3131 Fit      -0.022197
 3132 Fit      -0.018544
 3133 Fit      -0.014700
 3134 Fit      -0.030551
 3135 Fit      -0.029201
 3136 Fit      -0.027627
 3137 Fit      -0.025484
 3138 Fit      -0.022530
 3139 Fit      -0.018596
 3140 Fit      -0.013685
 3141 Fit      -0.029351
 3142 Fit      -0.027801
 3143 Fit      -0.025936
 3144 Fit      -0.023323
 3145 Fit      -0.019609
 3146 Fit      -0.014438
 3147 Fit      -0.028016
 3148 Fit      -0.026235
 3149 Fit      -0.024450
 3150 Fit      -0.021993
 3151 Fit      -0.018359
 3152 Fit      -0.013024
 3153 Fit      -0.025013
 3154 Fit      -0.022854
 3155 Fit      -0.020996
 3156 Fit      -0.018474
 3157 Fit      -0.014648
 3158 Fit      -0.008921
 3159 Fit      -0.016869
 3160 Fit      -0.014728
 3161 Fit      -0.011494
 3162 Fit      -0.006774
 3163 Fit      -0.013142
 3164 Fit      -0.012925
 3165 Fit      -0.013228
 3166 Fit      -0.013369
 3167 Fit      -0.013117
 3168 Fit      -0.012508
 3169 Fit      -0.012611
 3170 Fit      -0.012315
 3171 Fit      -0.012661
 3172 Fit      -0.012883
 3173 Fit      -0.012928
 3174 Fit      -0.013223
 3175 Fit      -0.013668
 3176 Fit      -0.013255
 3177 Fit      -0.011957
 3178 Fit      -0.011170
 3179 Fit      -0.011409
 3180 Fit      -0.011852
 3181 Fit      -0.012081
 3182 Fit      -0.011355
 3183 Fit      -0.011742
 3184 Fit      -0.012116
 3185 Fit      -0.012207
 3186 Fit      -0.011980
 3187 Fit      -0.011881
 3188 Fit      -0.012589
 3189 Fit      -0.014024
 3190 Fit      -0.009729
 3191 Fit      -0.008873
 3192 Fit      -0.009454
 3193 Fit      -0.010391
 3194 Fit      -0.010964
 3195 Fit      -0.011124
 3196 Fit      -0.011163
 3197 Fit      -0.010223
 3198 Fit      -0.010652
 3199 Fit      -0.011148
 3200 Fit      -0.011425
 3201 Fit      -0.011233
 3202 Fit      -0.010551
 3203 Fit      -0.009816
 3204 Fit      -0.010017
 3205 Fit      -0.005933
 3206 Fit      -0.007731
 3207 Fit      -0.009221
 3208 Fit      -0.010003
 3209 Fit      -0.010187
 3210 Fit      -0.010092
 3211 Fit      -0.010038
 3212 Fit      -0.009154
 3213 Fit      -0.009634
 3214 Fit      -0.010225
 3215 Fit      -0.010625
 3216 Fit      -0.010499
 3217 Fit      -0.009592
 3218 Fit      -0.007922
 3219 Fit      -0.006145
 3220 Fit      -0.004758
 3221 Fit      -0.007397
 3222 Fit      -0.008861
 3223 Fit      -0.009376
 3224 Fit      -0.009318
 3225 Fit      -0.009076
 3226 Fit      -0.008965
 3227 Fit      -0.008379
 3228 Fit      -0.008862
 3229 Fit      -0.009478
 3230 Fit      -0.009951
 3231 Fit      -0.009943
 3232 Fit      -0.009097
 3233 Fit      -0.007093
 3234 Fit      -0.001152
 3235 Fit      -0.005291
 3236 Fit      -0.007620
 3237 Fit      -0.008654
 3238 Fit      -0.008849
 3239 Fit      -0.008617
 3240 Fit      -0.008311
 3241 Fit      -0.008189
 3242 Fit      -0.008058
 3243 Fit      -0.008534
 3244 Fit      -0.009138
 3245 Fit      -0.009591
 3246 Fit      -0.009530
 3247 Fit      -0.008529
 3248 Fit      -0.006076
 3249 Fit      -0.000732
 3250 Fit      -0.005185
 3251 Fit      -0.007512
 3252 Fit      -0.008477
 3253 Fit      -0.008607
 3254 Fit      -0.008333
 3255 Fit      -0.008005
 3256 Fit      -0.007874
 3257 Fit      -0.008246
 3258 Fit      -0.008679
 3259 Fit      -0.009212
 3260 Fit      -0.009560
 3261 Fit      -0.009346
 3262 Fit      -0.008108
 3263 Fit      -0.005220
 3264 Fit      -0.005096
 3265 Fit      -0.007502
 3266 Fit      -0.008539
 3267 Fit      -0.008731
 3268 Fit      -0.008503
 3269 Fit      -0.008204
 3270 Fit      -0.008079
 3271 Fit      -0.008875
 3272 Fit      -0.009231
 3273 Fit      -0.009635
 3274 Fit      -0.009796
 3275 Fit      -0.009334
 3276 Fit      -0.007788
 3277 Fit      -0.004549
 3278 Fit      -0.004978
 3279 Fit      -0.007528
 3280 Fit      -0.008772
 3281 Fit      -0.009149
 3282 Fit      -0.009056
 3283 Fit      -0.008835
 3284 Fit      -0.008734
 3285 Fit      -0.009772
 3286 Fit      -0.010034
 3287 Fit      -0.010254
 3288 Fit      -0.010102
 3289 Fit      -0.009173
 3290 Fit      -0.007041
 3291 Fit      -0.004068
 3292 Fit      -0.006994
 3293 Fit      -0.008789
 3294 Fit      -0.009615
 3295 Fit      -0.009807
 3296 Fit      -0.009725
 3297 Fit      -0.009662
 3298 Fit      -0.010703
 3299 Fit      -0.010834
 3300 Fit      -0.010818
 3301 Fit      -0.010344
 3302 Fit      -0.009112
 3303 Fit      -0.007045
 3304 Fit      -0.005032
 3305 Fit      -0.006937
 3306 Fit      -0.008764
 3307 Fit      -0.009934
 3308 Fit      -0.010459
 3309 Fit      -0.010594
 3310 Fit      -0.010619
 3311 Fit      -0.011429
 3312 Fit      -0.011416
 3313 Fit      -0.011095
 3314 Fit      -0.010225
 3315 Fit      -0.008916
 3316 Fit      -0.008127
 3317 Fit      -0.007923
 3318 Fit      -0.008435
 3319 Fit      -0.009678
 3320 Fit      -0.010664
 3321 Fit      -0.011161
 3322 Fit      -0.011348
 3323 Fit      -0.011783
 3324 Fit      -0.011596
 3325 Fit      -0.010956
 3326 Fit      -0.010255
 3327 Fit      -0.010706
 3328 Fit      -0.010947
 3329 Fit      -0.009926
 3330 Fit      -0.010310
 3331 Fit      -0.011140
 3332 Fit      -0.011639
 3333 Fit      -0.011735
 3334 Fit      -0.011411
 3335 Fit      -0.011255
 3336 Fit      -0.011422
 3337 Fit      -0.011019
 3338 Fit      -0.011420
 3339 Fit      -0.011467
 3340 Fit      -0.001599
 3341 Fit      -0.003628
 3342 Fit      -0.007079
 3343 Fit      -0.012967
 3344 Fit      -0.022289
 3345 Fit       0.000927
 3346 Fit      -0.001113
 3347 Fit      -0.004004
 3348 Fit      -0.008629
 3349 Fit      -0.016219
 3350 Fit       0.003019
 3351 Fit       0.001084
 3352 Fit      -0.001325
 3353 Fit      -0.005034
 3354 Fit      -0.011077
 3355 Fit       0.005663
 3356 Fit       0.003525
 3357 Fit       0.001846
 3358 Fit      -0.000277
 3359 Fit      -0.003526
 3360 Fit      -0.008688
 3361 Fit       0.003903
 3362 Fit       0.002710
 3363 Fit       0.001372
 3364 Fit      -0.000616
 3365 Fit      -0.003729
 3366 Fit      -0.008494
 3367 Fit       0.001446
 3368 Fit       0.000536
 3369 Fit      -0.001346
 3370 Fit      -0.004541
 3371 Fit      -0.009395
 3372 Fit      -0.000834
 3373 Fit      -0.001415
 3374 Fit      -0.003746
 3375 Fit      -0.005782
 3376 Fit      -0.003313
 3377 Fit      -0.002230
 3378 Fit      -0.000460
 3379 Fit      -0.000166
 3380 Fit      -0.001945
 3381 Fit       0.000554
 3382 Fit       0.001809
 3383 Fit       0.002228
 3384 Fit       0.002116
 3385 Fit      -0.001238
 3386 Fit       0.001442
 3387 Fit       0.002930
 3388 Fit       0.003695
 3389 Fit       0.004216
 3390 Fit      -0.000703
 3391 Fit       0.001904
 3392 Fit       0.003420
 3393 Fit       0.004317
 3394 Fit       0.005158
 3395 Fit      -0.000400
 3396 Fit       0.001930
 3397 Fit       0.003308
 3398 Fit       0.004163
 3399 Fit       0.005070
 3400 Fit      -0.003066
 3401 Fit       0.000092
 3402 Fit       0.001886
 3403 Fit       0.002766
 3404 Fit      -0.002470
 3405 Fit      -0.000203
 3406 Fit       0.002943
 3407 Fit       0.000486
 3408 Fit       0.006964
 3409 Fit       0.005339
 3410 Fit       0.002803
 3411 Fit      -0.001157
 3412 Fit       0.011239
 3413 Fit       0.009238
 3414 Fit       0.007292
 3415 Fit       0.004941
 3416 Fit       0.001690
 3417 Fit       0.012650
 3418 Fit       0.010062
 3419 Fit       0.007793
 3420 Fit       0.005181
 3421 Fit       0.001629
 3422 Fit       0.013261
 3423 Fit       0.010365
 3424 Fit       0.007949
 3425 Fit       0.005265
 3426 Fit       0.001690
 3427 Fit       0.010229
 3428 Fit       0.007808
 3429 Fit       0.005221
 3430 Fit       0.001884
 3431 Fit       0.008421
 3432 Fit       0.006076
 3433 Fit       0.003197
 3434 Fit      -0.000815
 3435 Fit       0.010655
 3436 Fit       0.008650
 3437 Fit       0.015542
 3438 Fit       0.013147
 3439 Fit       0.011447
 3440 Fit       0.017611
 3441 Fit       0.015253
 3442 Fit       0.013760
 3443 Fit       0.013320
 3444 Fit       0.022511
 3445 Fit       0.018694
 3446 Fit       0.016228
 3447 Fit       0.014797
 3448 Fit       0.019782
 3449 Fit       0.016859
 3450 Fit       0.015010
 3451 Fit       0.014430
 3452 Fit       0.021345
 3453 Fit       0.017511
 3454 Fit       0.014826
 3455 Fit       0.012974
 3456 Fit       0.017310
 3457 Fit       0.013509
 3458 Fit       0.012737
 3459 Fit       0.024310
 3460 Fit       0.023212
 3461 Fit       0.023188
 3462 Fit       0.021294
 3463 Fit       0.023067
 3464 Fit       0.020236
 3465 Fit       0.018057
 3466 Fit       0.022551
 3467 Fit       0.018945
 3468 Fit       0.015854
 3469 Fit       0.011987
 3470 Fit       0.006268
 3471 Fit       0.003971
 3472 Fit       0.018537
 3473 Fit       0.014713
 3474 Fit       0.010433
 3475 Fit       0.010082
 3476 Fit       0.009659
 3477 Fit       0.014253
 3478 Fit       0.018742
 3479 Fit       0.017790
 3480 Fit       0.013887
 3481 Fit       0.013979
 3482 Fit      -0.001033
 3483 Fit      -0.001830
 3484 Fit      -0.005972
 3485 Fit      -0.005297
 3486 Fit      -0.000252
 3487 Fit       0.002872
 3488 Fit       0.002426
 3489 Fit      -0.008183
 3490 Fit      -0.012695
 3491 Fit       0.005419
 3492 Fit       0.007119
 3493 Fit       0.006188
 3494 Fit       0.002221
 3495 Fit       0.008275
 3496 Fit       0.010565
 3497 Fit       0.011107
 3498 Fit       0.010314
 3499 Fit       0.015157
 3500 Fit       0.015202
 3501 Fit       0.019553
 3502 Fit       0.019473
 3503 Fit       0.016325
 3504 Fit       0.018580
 3505 Fit       0.021125
 3506 Fit       0.010683
 3507 Fit       0.013442
 3508 Fit       0.015581
 3509 Fit       0.017514
 3510 Fit       0.019467
 3511 Fit       0.021579
 3512 Fit       0.010372
 3513 Fit       0.013039
 3514 Fit       0.015218
 3515 Fit       0.017088
 3516 Fit       0.018786
 3517 Fit       0.020274
 3518 Fit       0.018170
 3519 Fit       0.016688
 3520 Fit       0.014933
 3521 Fit       0.012646
 3522 Fit       0.010585
 3523 Fit       0.010366
 3524 Fit       0.011972
 3525 Fit       0.014154
 3526 Fit       0.016141
 3527 Fit       0.017713
 3528 Fit       0.018568
 3529 Fit       0.016569
 3530 Fit       0.015087
 3531 Fit       0.013389
 3532 Fit       0.013366
 3533 Fit       0.015045
 3534 Fit       0.016552
 3535 Fit       0.015095
 3536 Fit      -0.002286
 3537 Fit       0.004901
 3538 Fit      -0.000494
 3539 Fit       0.005571
 3540 Fit       0.010222
 3541 Fit       0.014536
 3542 Fit       0.001294
 3543 Fit       0.005916
 3544 Fit       0.009759
 3545 Fit       0.013359
 3546 Fit       0.017250
 3547 Fit       0.007581
 3548 Fit       0.010553
 3549 Fit       0.013617
 3550 Fit       0.017024
 3551 Fit       0.021272
 3552 Fit       0.010871
 3553 Fit       0.013225
 3554 Fit       0.015983
 3555 Fit       0.019351
 3556 Fit       0.023817
 3557 Fit       0.020997
 3558 Fit       0.023978
 3559 Fit       0.025655
 3560 Fit       0.010453
 3561 Fit       0.015407
 3562 Fit       0.019357
 3563 Fit       0.022380
 3564 Fit       0.024355
 3565 Fit       0.025110
 3566 Fit       0.024503
 3567 Fit       0.022487
 3568 Fit       0.016378
 3569 Fit       0.020243
 3570 Fit       0.022909
 3571 Fit       0.024252
 3572 Fit       0.024113
 3573 Fit       0.022473
 3574 Fit       0.019580
 3575 Fit       0.016036
 3576 Fit       0.017489
 3577 Fit       0.021199
 3578 Fit       0.023067
 3579 Fit       0.022882
 3580 Fit       0.020787
 3581 Fit       0.017515
 3582 Fit       0.013776
 3583 Fit       0.013730
 3584 Fit       0.017875
 3585 Fit       0.021006
 3586 Fit       0.020787
 3587 Fit       0.017785
 3588 Fit       0.014086
 3589 Fit       0.018264
 3590 Fit       0.003793
 3591 Fit       0.003482
 3592 Fit       0.010573
 3593 Fit       0.010855
 3594 Fit       0.004519
 3595 Fit       0.005262
 3596 Fit       0.012346
 3597 Fit       0.015897
 3598 Fit       0.016266
 3599 Fit       0.013612
 3600 Fit       0.007952
 3601 Fit       0.006753
 3602 Fit       0.013005
 3603 Fit       0.017135
 3604 Fit       0.019304
 3605 Fit       0.019583
 3606 Fit       0.018049
 3607 Fit       0.014796
 3608 Fit       0.009902
 3609 Fit       0.014335
 3610 Fit       0.018301
 3611 Fit       0.020787
 3612 Fit       0.021812
 3613 Fit       0.021415
 3614 Fit       0.019644
 3615 Fit       0.016570
 3616 Fit       0.012314
 3617 Fit       0.018715
 3618 Fit       0.021760
 3619 Fit       0.023271
 3620 Fit       0.023281
 3621 Fit       0.021830
 3622 Fit       0.018957
 3623 Fit      -0.012426
 3624 Fit      -0.010743
 3625 Fit      -0.013142
 3626 Fit      -0.013985
 3627 Fit      -0.009960
 3628 Fit      -0.006822
 3629 Fit      -0.006437
 3630 Fit      -0.001743
 -----------------------------------------------------------------
 Leave Link  602 at Thu Jan 16 21:49:57 2014, MaxMem=   235929600 cpu:         1.4

 Test job not archived.
 1\1\GINC-G30\SP\RHF\Gen\C10H12Cl1N1O4\KOLAR\16-Jan-2014\0\\# hf/gen po
 p=mk iop(6/33=2,6/41=5,6/42=2)\\na resp\\0,1\C,0,2.511107,1.430086,-0.
 229008\C,0,3.876419,1.228324,-0.073404\C,0,4.366037,-0.070071,0.090214
 \C,0,3.500176,-1.157409,0.098943\C,0,2.125648,-0.955147,-0.058217\C,0,
 1.625422,0.341656,-0.223491\O,0,0.308837,0.653816,-0.390632\C,0,-0.652
 709,-0.389897,-0.350094\C,0,-2.037326,0.255037,-0.47019\H,0,-2.011785,
 0.943661,-1.324627\C,0,-3.078632,-0.836743,-0.74482\O,0,-4.407286,-0.2
 9555,-0.846926\C,0,-5.088323,-0.172187,0.321083\O,0,-4.634828,-0.44124
 5,1.42474\N,0,-6.359008,0.249529,0.086804\O,0,-2.347219,1.035765,0.666
 013\Cl,0,6.097489,-0.329163,0.287475\H,0,2.10481,2.428578,-0.354144\H,
 0,4.559447,2.071118,-0.076708\H,0,3.889473,-2.161891,0.227312\H,0,1.46
 5184,-1.814274,-0.049455\H,0,-0.475425,-1.097708,-1.175768\H,0,-0.5844
 15,-0.93881,0.599991\H,0,-2.891669,-1.313349,-1.710359\H,0,-3.064815,-
 1.597603,0.0423\H,0,-6.601815,0.61123,-0.823487\H,0,-6.890513,0.560122
 ,0.885525\H,0,-2.885675,0.493821,1.273056\\Version=AM64L-G09RevD.01\St
 ate=1-A\HF=-1199.0505437\RMSD=2.171e-09\Dipole=-1.8509203,-0.5104873,-
 0.9689326\Quadrupole=4.5259401,1.018689,-5.5446291,-2.3196931,5.195181
 2,0.112023\PG=C01 [X(C10H12Cl1N1O4)]\\@


 THERE ARE PEOPLE SO ADDICTED TO EXAGERATING THEY
 CAN'T TELL THE TRUTH WITHOUT LYING. -- FORTUNE COOKIE
 Job cpu time:       0 days  0 hours  3 minutes  4.7 seconds.
 File lengths (MBytes):  RWF=     36 Int=      0 D2E=      0 Chk=      3 Scr=      1
 Normal termination of Gaussian 09 at Thu Jan 16 21:49:57 2014.
184.30user 0.41system 3:10.09elapsed 97%CPU (0avgtext+0avgdata 603584maxresident)k
5512inputs+162272outputs (1major+171440minor)pagefaults 0swaps
