Linux g42 2.6.38.6-client #1 SMP Tue Jun 12 11:27:21 CEST 2012 x86_64 GNU/Linux
Thu Jan 16 21:46:46 CET 2014

 Entering Gaussian System, Link 0=/usr/local/programs/common/gaussian/gaussian09_d01/arch/amd64-pgi_10.4.0-acml/g09/g09
 Initial command:
 /usr/local/programs/common/gaussian/gaussian09_d01/arch/amd64-pgi_10.4.0-acml/g09/l1.exe "/scratch/kolar/g09_17623/Gau-2188.inp" -scrdir="/scratch/kolar/g09_17623/"
 Entering Link 1 = /usr/local/programs/common/gaussian/gaussian09_d01/arch/amd64-pgi_10.4.0-acml/g09/l1.exe PID=      2194.
  
 Copyright (c) 1988,1990,1992,1993,1995,1998,2003,2009,2013,
            Gaussian, Inc.  All Rights Reserved.
  
 This is part of the Gaussian(R) 09 program.  It is based on
 the Gaussian(R) 03 system (copyright 2003, Gaussian, Inc.),
 the Gaussian(R) 98 system (copyright 1998, Gaussian, Inc.),
 the Gaussian(R) 94 system (copyright 1995, Gaussian, Inc.),
 the Gaussian 92(TM) system (copyright 1992, Gaussian, Inc.),
 the Gaussian 90(TM) system (copyright 1990, Gaussian, Inc.),
 the Gaussian 88(TM) system (copyright 1988, Gaussian, Inc.),
 the Gaussian 86(TM) system (copyright 1986, Carnegie Mellon
 University), and the Gaussian 82(TM) system (copyright 1983,
 Carnegie Mellon University). Gaussian is a federally registered
 trademark of Gaussian, Inc.
  
 This software contains proprietary and confidential information,
 including trade secrets, belonging to Gaussian, Inc.
  
 This software is provided under written license and may be
 used, copied, transmitted, or stored only in accord with that
 written license.
  
 The following legend is applicable only to US Government
 contracts under FAR:
  
                    RESTRICTED RIGHTS LEGEND
  
 Use, reproduction and disclosure by the US Government is
 subject to restrictions as set forth in subparagraphs (a)
 and (c) of the Commercial Computer Software - Restricted
 Rights clause in FAR 52.227-19.
  
 Gaussian, Inc.
 340 Quinnipiac St., Bldg. 40, Wallingford CT 06492
  
  
 ---------------------------------------------------------------
 Warning -- This program may not be used in any manner that
 competes with the business of Gaussian, Inc. or will provide
 assistance to any competitor of Gaussian, Inc.  The licensee
 of this program is prohibited from giving any competitor of
 Gaussian, Inc. access to this program.  By using this program,
 the user acknowledges that Gaussian, Inc. is engaged in the
 business of creating and licensing software in the field of
 computational chemistry and represents and warrants to the
 licensee that it is not a competitor of Gaussian, Inc. and that
 it will not use this program in any manner prohibited above.
 ---------------------------------------------------------------
  

 Cite this work as:
 Gaussian 09, Revision D.01,
 M. J. Frisch, G. W. Trucks, H. B. Schlegel, G. E. Scuseria, 
 M. A. Robb, J. R. Cheeseman, G. Scalmani, V. Barone, B. Mennucci, 
 G. A. Petersson, H. Nakatsuji, M. Caricato, X. Li, H. P. Hratchian, 
 A. F. Izmaylov, J. Bloino, G. Zheng, J. L. Sonnenberg, M. Hada, 
 M. Ehara, K. Toyota, R. Fukuda, J. Hasegawa, M. Ishida, T. Nakajima, 
 Y. Honda, O. Kitao, H. Nakai, T. Vreven, J. A. Montgomery, Jr., 
 J. E. Peralta, F. Ogliaro, M. Bearpark, J. J. Heyd, E. Brothers, 
 K. N. Kudin, V. N. Staroverov, T. Keith, R. Kobayashi, J. Normand, 
 K. Raghavachari, A. Rendell, J. C. Burant, S. S. Iyengar, J. Tomasi, 
 M. Cossi, N. Rega, J. M. Millam, M. Klene, J. E. Knox, J. B. Cross, 
 V. Bakken, C. Adamo, J. Jaramillo, R. Gomperts, R. E. Stratmann, 
 O. Yazyev, A. J. Austin, R. Cammi, C. Pomelli, J. W. Ochterski, 
 R. L. Martin, K. Morokuma, V. G. Zakrzewski, G. A. Voth, 
 P. Salvador, J. J. Dannenberg, S. Dapprich, A. D. Daniels, 
 O. Farkas, J. B. Foresman, J. V. Ortiz, J. Cioslowski, 
 and D. J. Fox, Gaussian, Inc., Wallingford CT, 2013.
 
 ******************************************
 Gaussian 09:  AM64L-G09RevD.01 24-Apr-2013
                16-Jan-2014 
 ******************************************
 %mem=1800mb
 -----------------------------------------
 # hf/gen pop=mk iop(6/33=2,6/41=5,6/42=2)
 -----------------------------------------
 1/38=1/1;
 2/12=2,17=6,18=5,40=1/2;
 3/5=7,11=9,16=1,25=1,30=1/1,2,3;
 4//1;
 5/5=2,38=5/2;
 6/7=2,8=2,9=2,10=2,15=8,20=1,28=1,33=2,41=5,42=2/1,2;
 99/5=1,9=1/99;
 -------
 na resp
 -------
 Symbolic Z-matrix:
 Charge =  0 Multiplicity = 1
 6                    -1.13327   2.14944  0. 
 6                    -0.26144   0.91952   0.00003 
 6                     1.13445   1.03612  -0.00001 
 6                     1.96456  -0.08801   0. 
 6                     1.40426  -1.36833  0. 
 6                     0.02033  -1.50605  -0.00001 
 6                    -0.79677  -0.37572   0.00003 
 17                   -2.5475   -0.60468  -0.00001 
 8                     3.32859   0.00375   0. 
 1                    -1.78699   2.1736    0.87945 
 1                    -0.52526   3.05877  -0.00008 
 1                    -1.78698   2.17349  -0.87947 
 1                     1.57722   2.03109   0.00003 
 1                     2.05563  -2.23596  -0.00001 
 1                    -0.43061  -2.49274  0. 
 1                     3.58319   0.93952  -0.00006 
 
                          Input orientation:                          
 ---------------------------------------------------------------------
 Center     Atomic      Atomic             Coordinates (Angstroms)
 Number     Number       Type             X           Y           Z
 ---------------------------------------------------------------------
      1          6           0       -1.133273    2.149439   -0.000002
      2          6           0       -0.261444    0.919518    0.000025
      3          6           0        1.134449    1.036123   -0.000006
      4          6           0        1.964561   -0.088014    0.000002
      5          6           0        1.404259   -1.368330   -0.000003
      6          6           0        0.020327   -1.506047   -0.000006
      7          6           0       -0.796771   -0.375718    0.000028
      8         17           0       -2.547503   -0.604680   -0.000006
      9          8           0        3.328587    0.003745    0.000001
     10          1           0       -1.786986    2.173600    0.879451
     11          1           0       -0.525264    3.058774   -0.000077
     12          1           0       -1.786977    2.173492   -0.879469
     13          1           0        1.577221    2.031090    0.000031
     14          1           0        2.055631   -2.235956   -0.000005
     15          1           0       -0.430609   -2.492744   -0.000004
     16          1           0        3.583193    0.939516   -0.000059
 ---------------------------------------------------------------------
                    Distance matrix (angstroms):
                    1          2          3          4          5
     1  C    0.000000
     2  C    1.507578   0.000000
     3  C    2.526269   1.400755   0.000000
     4  C    3.821357   2.443403   1.397415   0.000000
     5  C    4.337484   2.829985   2.419544   1.397550   0.000000
     6  C    3.833193   2.441876   2.775589   2.406421   1.390767
     7  C    2.547479   1.401503   2.392260   2.776280   2.414500
     8  Cl   3.096000   2.747589   4.031005   4.541549   4.024871
     9  O    4.950979   3.704992   2.424881   1.367109   2.363393
    10  H    1.096067   2.161803   3.256084   4.467934   4.847964
    11  H    1.093876   2.155462   2.616441   4.012668   4.829318
    12  H    1.096070   2.161761   3.256040   4.467876   4.847881
    13  H    2.713077   2.148553   1.089039   2.154213   3.403817
    14  H    5.422250   3.914825   3.399276   2.149872   1.084924
    15  H    4.695061   3.416453   3.860351   3.394049   2.151987
    16  H    4.869185   3.844689   2.450649   1.917234   3.173942
                    6          7          8          9         10
     6  C    0.000000
     7  C    1.394738   0.000000
     8  Cl   2.721436   1.765640   0.000000
     9  O    3.636490   4.142773   5.907505   0.000000
    10  H    4.192807   2.872792   3.011755   5.625903   0.000000
    11  H    4.597310   3.445207   4.184537   4.917862   1.774555
    12  H    4.192709   2.872716   3.011660   5.625857   1.758920
    13  H    3.864616   3.380616   4.894960   2.679069   3.480169
    14  H    2.162228   3.405390   4.883636   2.576175   5.914671
    15  H    1.084857   2.148458   2.836552   4.512650   4.938417
    16  H    4.321434   4.573175   6.322181   0.969789   5.579904
                   11         12         13         14         15
    11  H    0.000000
    12  H    1.774535   0.000000
    13  H    2.340209   3.480176   0.000000
    14  H    5.890262   5.914586   4.293781   0.000000
    15  H    5.552325   4.938315   4.949389   2.499466   0.000000
    16  H    4.622843   5.579855   2.283738   3.523786   5.281194
                   16
    16  H    0.000000
 Stoichiometry    C7H7ClO
 Framework group  C1[X(C7H7ClO)]
 Deg. of freedom    42
 Full point group                 C1      NOp   1
 Largest Abelian subgroup         C1      NOp   1
 Largest concise Abelian subgroup C1      NOp   1
                         Standard orientation:                         
 ---------------------------------------------------------------------
 Center     Atomic      Atomic             Coordinates (Angstroms)
 Number     Number       Type             X           Y           Z
 ---------------------------------------------------------------------
      1          6           0        1.133273    2.149439    0.000002
      2          6           0        0.261444    0.919518   -0.000025
      3          6           0       -1.134449    1.036123    0.000006
      4          6           0       -1.964561   -0.088014   -0.000002
      5          6           0       -1.404259   -1.368330    0.000003
      6          6           0       -0.020327   -1.506047    0.000006
      7          6           0        0.796771   -0.375718   -0.000028
      8         17           0        2.547503   -0.604680    0.000006
      9          8           0       -3.328587    0.003745   -0.000001
     10          1           0        1.786986    2.173600   -0.879451
     11          1           0        0.525264    3.058774    0.000077
     12          1           0        1.786977    2.173492    0.879469
     13          1           0       -1.577221    2.031090   -0.000031
     14          1           0       -2.055631   -2.235956    0.000005
     15          1           0        0.430609   -2.492744    0.000004
     16          1           0       -3.583193    0.939516    0.000059
 ---------------------------------------------------------------------
 Rotational constants (GHZ):      2.8208077      0.9331776      0.7042521
 General basis read from cards:  (5D, 7F)
 There are   153 symmetry adapted cartesian basis functions of A   symmetry.
 There are   144 symmetry adapted basis functions of A   symmetry.
   144 basis functions,   304 primitive gaussians,   153 cartesian basis functions
    37 alpha electrons       37 beta electrons
       nuclear repulsion energy       486.0506059661 Hartrees.
 NAtoms=   16 NActive=   16 NUniq=   16 SFac= 1.00D+00 NAtFMM=   60 NAOKFM=F Big=F
 Integral buffers will be    131072 words long.
 Raffenetti 1 integral format.
 Two-electron integral symmetry is turned on.
 One-electron integrals computed using PRISM.
 NBasis=   144 RedAO= T EigKep=  4.37D-04  NBF=   144
 NBsUse=   144 1.00D-06 EigRej= -1.00D+00 NBFU=   144
 ExpMin= 1.43D-01 ExpMax= 2.52D+04 ExpMxC= 3.78D+03 IAcc=1 IRadAn=         1 AccDes= 0.00D+00
 Harris functional with IExCor=  205 and IRadAn=       1 diagonalized for initial guess.
 HarFok:  IExCor=  205 AccDes= 0.00D+00 IRadAn=         1 IDoV= 1 UseB2=F ITyADJ=14
 ICtDFT=  3500011 ScaDFX=  1.000000  1.000000  1.000000  1.000000
 FoFCou: FMM=F IPFlag=           0 FMFlag=      100000 FMFlg1=           0
         NFxFlg=           0 DoJE=T BraDBF=F KetDBF=T FulRan=T
         wScrn=  0.000000 ICntrl=     500 IOpCl=  0 I1Cent=   200000004 NGrid=           0
         NMat0=    1 NMatS0=      1 NMatT0=    0 NMatD0=    1 NMtDS0=    0 NMtDT0=    0
 Petite list used in FoFCou.
 Keep R1 ints in memory in canonical form, NReq=56418915.
 Requested convergence on RMS density matrix=1.00D-08 within 128 cycles.
 Requested convergence on MAX density matrix=1.00D-06.
 Requested convergence on             energy=1.00D-06.
 No special actions if energy rises.
 SCF Done:  E(RHF) =  -803.489579813     A.U. after   14 cycles
            NFock= 14  Conv=0.88D-08     -V/T= 2.0003

 **********************************************************************

            Population analysis using the SCF density.

 **********************************************************************

 Orbital symmetries:
 BldTbl:  Degeneracy threshold= 1.00D-02
       Occupied  (A) (A) (A) (A) (A) (A) (A) (A) (A) (A) (A) (A)
                 (A) (A) (A) (A) (A) (A) (A) (A) (A) (A) (A) (A)
                 (A) (A) (A) (A) (A) (A) (A) (A) (A) (A) (A) (A)
                 (A)
       Virtual   (A) (A) (A) (A) (A) (A) (A) (A) (A) (A) (A) (A)
                 (A) (A) (A) (A) (A) (A) (A) (A) (A) (A) (A) (A)
                 (A) (A) (A) (A) (A) (A) (A) (A) (A) (A) (A) (A)
                 (A) (A) (A) (A) (A) (A) (A) (A) (A) (A) (A) (A)
                 (A) (A) (A) (A) (A) (A) (A) (A) (A) (A) (A) (A)
                 (A) (A) (A) (A) (A) (A) (A) (A) (A) (A) (A) (A)
                 (A) (A) (A) (A) (A) (A) (A) (A) (A) (A) (A) (A)
                 (A) (A) (A) (A) (A) (A) (A) (A) (A) (A) (A) (A)
                 (A) (A) (A) (A) (A) (A) (A) (A) (A) (A) (A)
 The electronic state is 1-A.
 Alpha  occ. eigenvalues -- -104.81519 -20.60004 -11.31443 -11.29299 -11.26759
 Alpha  occ. eigenvalues --  -11.25517 -11.24349 -11.23764 -11.23200 -10.55344
 Alpha  occ. eigenvalues --   -8.02199  -8.01881  -8.01872  -1.40970  -1.18463
 Alpha  occ. eigenvalues --   -1.10729  -1.05825  -0.99090  -0.94443  -0.84851
 Alpha  occ. eigenvalues --   -0.80428  -0.73628  -0.68185  -0.65244  -0.60956
 Alpha  occ. eigenvalues --   -0.60036  -0.59151  -0.57955  -0.57891  -0.54920
 Alpha  occ. eigenvalues --   -0.51507  -0.51143  -0.50592  -0.44876  -0.44791
 Alpha  occ. eigenvalues --   -0.34593  -0.31157
 Alpha virt. eigenvalues --    0.12875   0.14258   0.19592   0.21695   0.24800
 Alpha virt. eigenvalues --    0.27592   0.28483   0.31546   0.32608   0.33354
 Alpha virt. eigenvalues --    0.37060   0.40909   0.43004   0.45881   0.48246
 Alpha virt. eigenvalues --    0.49557   0.56348   0.59627   0.61748   0.64242
 Alpha virt. eigenvalues --    0.65083   0.66916   0.70899   0.73172   0.75555
 Alpha virt. eigenvalues --    0.76133   0.76454   0.82896   0.83439   0.84065
 Alpha virt. eigenvalues --    0.85203   0.86774   0.87060   0.90111   0.95095
 Alpha virt. eigenvalues --    0.95573   0.98425   0.99786   0.99873   1.02968
 Alpha virt. eigenvalues --    1.09414   1.09893   1.13168   1.13305   1.15124
 Alpha virt. eigenvalues --    1.17037   1.17128   1.18472   1.20971   1.22085
 Alpha virt. eigenvalues --    1.22223   1.24279   1.24657   1.29509   1.30209
 Alpha virt. eigenvalues --    1.32158   1.37743   1.41480   1.42228   1.46382
 Alpha virt. eigenvalues --    1.48303   1.54538   1.61459   1.61807   1.64406
 Alpha virt. eigenvalues --    1.65525   1.68067   1.72017   1.75045   1.76775
 Alpha virt. eigenvalues --    1.83559   2.01678   2.01810   2.05953   2.07441
 Alpha virt. eigenvalues --    2.14429   2.17178   2.17559   2.20555   2.21989
 Alpha virt. eigenvalues --    2.26964   2.27363   2.31794   2.39305   2.43941
 Alpha virt. eigenvalues --    2.46016   2.47221   2.49008   2.52513   2.60754
 Alpha virt. eigenvalues --    2.63459   2.65048   2.66772   2.71765   2.75385
 Alpha virt. eigenvalues --    2.82976   2.86631   2.95220   2.98483   3.01365
 Alpha virt. eigenvalues --    3.10287   3.12539   3.18529   3.21870   3.30803
 Alpha virt. eigenvalues --    3.49011   3.76458
          Condensed to atoms (all electrons):
               1          2          3          4          5          6
     1  C    5.114872   0.322164  -0.031501   0.002100   0.000266   0.002093
     2  C    0.322164   4.837075   0.522791  -0.029373  -0.025101  -0.046760
     3  C   -0.031501   0.522791   5.110599   0.536802  -0.058221  -0.034544
     4  C    0.002100  -0.029373   0.536802   4.389437   0.568106  -0.035518
     5  C    0.000266  -0.025101  -0.058221   0.568106   4.963110   0.536592
     6  C    0.002093  -0.046760  -0.034544  -0.035518   0.536592   4.925383
     7  C   -0.048829   0.525642  -0.047279  -0.034570  -0.046788   0.521012
     8  Cl  -0.003670  -0.069644   0.001945   0.000388   0.001939  -0.067989
     9  O   -0.000043   0.004387  -0.052438   0.230950  -0.046398   0.002011
    10  H    0.390306  -0.035498   0.000304  -0.000050   0.000012  -0.000011
    11  H    0.392304  -0.043436  -0.003055   0.000299  -0.000013  -0.000019
    12  H    0.390307  -0.035501   0.000304  -0.000050   0.000012  -0.000011
    13  H   -0.003550  -0.023059   0.374635  -0.035647   0.002476   0.000132
    14  H    0.000005  -0.000060   0.003463  -0.027454   0.376990  -0.028294
    15  H   -0.000093   0.001591   0.000268   0.001858  -0.024272   0.380469
    16  H   -0.000012   0.000640   0.001852  -0.038707   0.004072  -0.000149
               7          8          9         10         11         12
     1  C   -0.048829  -0.003670  -0.000043   0.390306   0.392304   0.390307
     2  C    0.525642  -0.069644   0.004387  -0.035498  -0.043436  -0.035501
     3  C   -0.047279   0.001945  -0.052438   0.000304  -0.003055   0.000304
     4  C   -0.034570   0.000388   0.230950  -0.000050   0.000299  -0.000050
     5  C   -0.046788   0.001939  -0.046398   0.000012  -0.000013   0.000012
     6  C    0.521012  -0.067989   0.002011  -0.000011  -0.000019  -0.000011
     7  C    5.140961   0.220063   0.000123  -0.005052   0.004051  -0.005053
     8  Cl   0.220063  16.928220   0.000001  -0.000365   0.000493  -0.000365
     9  O    0.000123   0.000001   8.400018   0.000000   0.000000   0.000000
    10  H   -0.005052  -0.000365   0.000000   0.502653  -0.025090  -0.028623
    11  H    0.004051   0.000493   0.000000  -0.025090   0.519133  -0.025093
    12  H   -0.005053  -0.000365   0.000000  -0.028623  -0.025093   0.502661
    13  H    0.003125  -0.000096  -0.002918   0.000065   0.002727   0.000065
    14  H    0.002445  -0.000083  -0.000439   0.000000   0.000000   0.000000
    15  H   -0.028644   0.000798  -0.000037   0.000001   0.000001   0.000001
    16  H    0.000001   0.000000   0.268925   0.000000   0.000002   0.000000
              13         14         15         16
     1  C   -0.003550   0.000005  -0.000093  -0.000012
     2  C   -0.023059  -0.000060   0.001591   0.000640
     3  C    0.374635   0.003463   0.000268   0.001852
     4  C   -0.035647  -0.027454   0.001858  -0.038707
     5  C    0.002476   0.376990  -0.024272   0.004072
     6  C    0.000132  -0.028294   0.380469  -0.000149
     7  C    0.003125   0.002445  -0.028644   0.000001
     8  Cl  -0.000096  -0.000083   0.000798   0.000000
     9  O   -0.002918  -0.000439  -0.000037   0.268925
    10  H    0.000065   0.000000   0.000001   0.000000
    11  H    0.002727   0.000000   0.000001   0.000002
    12  H    0.000065   0.000000   0.000001   0.000000
    13  H    0.479133  -0.000103   0.000008   0.003976
    14  H   -0.000103   0.445792  -0.001842  -0.000168
    15  H    0.000008  -0.001842   0.434133   0.000003
    16  H    0.003976  -0.000168   0.000003   0.293255
 Mulliken charges:
               1
     1  C   -0.526717
     2  C    0.094143
     3  C   -0.325927
     4  C    0.471428
     5  C   -0.252783
     6  C   -0.154396
     7  C   -0.201209
     8  Cl  -0.011633
     9  O   -0.804141
    10  H    0.201347
    11  H    0.177696
    12  H    0.201346
    13  H    0.199031
    14  H    0.229748
    15  H    0.235757
    16  H    0.466309
 Sum of Mulliken charges =   0.00000
 Mulliken charges with hydrogens summed into heavy atoms:
               1
     1  C    0.053672
     2  C    0.094143
     3  C   -0.126896
     4  C    0.471428
     5  C   -0.023036
     6  C    0.081362
     7  C   -0.201209
     8  Cl  -0.011633
     9  O   -0.337832
 DipInt: DoE/N= T F RetVal/Mat= T F Init=T NMatP=  1 IDeriv=0 Min/MaxMlt=  0  4
 Entering OneElI...
 OneElI was handed   235867219 working-precision words.
 Multipole integrals L=0 to 4 MinM= 0 MaxM= 0.
 Requested accuracy = 0.1000D-12
 ShPair: Thresh= 1.00D-13 NBox=     0 BxSize= 0.00D+00 RnKept= 1.19D+01
         NSMCal=                 1326 NSMKep=                1253
 PrsmSu:  NPrtUS=   1 ThrOK=F IAlg=1 NPAlg=1 LenDen=           0.
 Prism:   IPart=     0 DynPar=F LinDyn=F Incr=          12.
 PRISM was handed   235744026 working-precision words and  1253 shell-pairs
 IPart=  0 NShTot=        1253 NBatch=          62 AvBLen=        20.2
 PrSmSu:  NxtVal=             13.
 Electronic moments (au):
        -74.00000000         -0.56236852          0.78922135          0.00003886
      -1046.24739189       -417.51772983        -52.46231565         -2.95117210
         -0.00019313          0.00005657        795.62331274       -427.49021298
         -0.00008219       -220.99307283        299.86306490         -0.00629357
        -16.62850629        -20.71906450         -0.00301050          0.00050385
     -29478.37960368      -6594.08681766       -207.44674163       1576.97071348
         -0.00494695      -1627.79738268         -0.00707218         -0.00096782
         -0.00036922      -3076.09525919       -690.78437001       -393.56489392
          0.00288534          0.00137357        -79.05194235
 Electronic spatial extent (au):  <R**2>=           1516.2274
 DipInt: DoE/N= F T RetVal/Mat= T F Init=T NMatP=  1 IDeriv=0 Min/MaxMlt=  0  4
 Nuclear    moments (au):
         74.00000000          0.00000000          0.00000000          0.00000000
        999.89998320        379.29476793          5.52407953          0.00000000
         -0.00008088         -0.00000081       -809.44487220        422.91244620
          0.00028270        204.66378809       -264.34055900          0.00855437
         18.65429719         22.68963972          0.00314192         -0.00132399
      26045.90179868       5192.15447239         15.25772691      -1815.73268893
         -0.00894268       1596.72145963          0.00733474          0.00087658
          0.00022432       2347.50066813         62.99380955         93.19557269
         -0.00004207         -0.00327085         76.62078059
 Total      moments (au):
          0.00000000         -0.56236852          0.78922135          0.00003886
        -46.34740869        -38.22296190        -46.93823612         -2.95117210
         -0.00027401          0.00005575        -13.82155946         -4.57776679
          0.00020051        -16.32928474         35.52250590          0.00226080
          2.02579091          1.97057522          0.00013142         -0.00082014
      -3432.47780500      -1401.93234527       -192.18901472       -238.76197544
         -0.01388963        -31.07592305          0.00026255         -0.00009124
         -0.00014491       -728.59459106       -627.79056047       -300.36932124
          0.00284327         -0.00189728         -2.43116176
 Traceless Quadrup. (au):
         -2.51120645          5.61324034         -3.10203389         -2.95117210
         -0.00027401          0.00005575
 Charge=              0.0000 electrons
 Dipole moment (field-independent basis, Debye):
    X=             -1.4294    Y=              2.0060    Z=              0.0001  Tot=              2.4632
 Quadrupole moment (field-independent basis, Debye-Ang):
   XX=            -62.3388   YY=            -51.4112   ZZ=            -63.1335
   XY=             -3.9694   XZ=             -0.0004   YZ=              0.0001
 Traceless Quadrupole moment (field-independent basis, Debye-Ang):
   XX=             -3.3777   YY=              7.5500   ZZ=             -4.1723
   XY=             -3.9694   XZ=             -0.0004   YZ=              0.0001
 Octapole moment (field-independent basis, Debye-Ang**2):
  XXX=             -9.8377  YYY=             -3.2583  ZZZ=              0.0001  XYY=            -11.6226
  XXY=             25.2835  XXZ=              0.0016  XZZ=              1.4419  YZZ=              1.4026
  YYZ=              0.0001  XYZ=             -0.0006
 Hexadecapole moment (field-independent basis, Debye-Ang**3):
 XXXX=          -1292.8356 YYYY=           -528.0349 ZZZZ=            -72.3876 XXXY=            -89.9292
 XXXZ=             -0.0052 YYYX=            -11.7047 YYYZ=              0.0001 ZZZX=              0.0000
 ZZZY=             -0.0001 XXYY=           -274.4236 XXZZ=           -236.4560 YYZZ=           -113.1335
 XXYZ=              0.0011 YYXZ=             -0.0007 ZZXY=             -0.9157
 N-N= 4.860506059661D+02 E-N=-2.870536423023D+03  KE= 8.032275251069D+02
 Entering OneElI...
 OneElI was handed   235881129 working-precision words.
 Calculate electrostatic properties
    NBasis =   144  MinDer = 0  MaxDer = 0
    NGrid  =    16  NMatD  =   1
 Requested accuracy = 0.1000D-12
 ShPair: Thresh= 1.00D-13 NBox=     0 BxSize= 0.00D+00 RnKept= 1.19D+01
         NSMCal=                 1326 NSMKep=                1186
 PrsmSu:  NPrtUS=   1 ThrOK=F IAlg=1 NPAlg=1 LenDen=           0.
 Prism:   IPart=     0 DynPar=F LinDyn=F Incr=         189.
 PRISM was handed   235765267 working-precision words and  1186 shell-pairs
 IPart=  0 NShTot=       18976 NBatch=        1186 AvBLen=        16.0
 PrSmSu:  NxtVal=            190.
 --------------------------------------------------------
       Center         ----      EFG at Nuclei      ----
                      3XX-RR        3YY-RR        3ZZ-RR
 --------------------------------------------------------
     1   Atom        0.019450     -0.061911      0.042461
     2   Atom        0.198347      0.161396     -0.359743
     3   Atom        0.114363      0.048449     -0.162812
     4   Atom       -0.125840      0.409418     -0.283579
     5   Atom        0.131858      0.089228     -0.221087
     6   Atom        0.204436      0.149538     -0.353973
     7   Atom       -0.339789      0.319293      0.020496
     8   Atom       -3.479675      1.746444      1.733232
     9   Atom       -1.109413     -0.597956      1.707368
    10   Atom       -0.005905      0.141902     -0.135998
    11   Atom        0.003345     -0.161320      0.157975
    12   Atom       -0.005901      0.141900     -0.136000
    13   Atom        0.057430     -0.231453      0.174024
    14   Atom       -0.018550     -0.150842      0.169392
    15   Atom        0.066645     -0.231495      0.164849
    16   Atom        0.147544     -0.402369      0.254825
 --------------------------------------------------------
                        XY            XZ            YZ
 --------------------------------------------------------
     1   Atom       -0.051115     -0.000003     -0.000007
     2   Atom        0.000807      0.000002     -0.000004
     3   Atom        0.024287      0.000002     -0.000001
     4   Atom        0.051098     -0.000005     -0.000004
     5   Atom        0.000033     -0.000005      0.000002
     6   Atom       -0.015799      0.000001     -0.000002
     7   Atom        0.088827     -0.000005      0.000004
     8   Atom        0.762915     -0.000137      0.000015
     9   Atom        0.854403      0.000044     -0.000157
    10   Atom       -0.010163      0.212887      0.006188
    11   Atom        0.203259      0.000017     -0.000025
    12   Atom       -0.010138     -0.212882     -0.006155
    13   Atom        0.164731     -0.000005      0.000013
    14   Atom       -0.217132      0.000000      0.000001
    15   Atom        0.169342      0.000000      0.000000
    16   Atom        0.164182      0.000010     -0.000042
 --------------------------------------------------------


 ---------------------------------------------------------------------------------
              Nuclear Quadrupole Coupling Constant in Principal Axis System
 ---------------------------------------------------------------------------------

       Atom             a.u.   MegaHertz   Gauss  10(-4) cm-1        Axes

              Baa    -3.5888   -68.850   -24.567   -22.966  0.9899 -0.1416  0.0000
     8 Cl(35) Bbb     1.7332    33.252    11.865    11.092  0.0000  0.0000  1.0000
              Bcc     1.8555    35.598    12.702    11.874  0.1416  0.9899  0.0000
 

 ---------------------------------------------------------------------------------

 No NMR shielding tensors so no spin-rotation constants.
 Leave Link  601 at Thu Jan 16 21:47:03 2014, MaxMem=   235929600 cpu:         0.2
 FitSet:  NAtFit=    16 NAtPot=    16 NAtFrz=     0 MDM=    20 TotChg=   0.00000
 Merz-Kollman atomic radii used.
 Atom Element Radius
    1     6    1.50
    2     6    1.50
    3     6    1.50
    4     6    1.50
    5     6    1.50
    6     6    1.50
    7     6    1.50
    8    17    1.70
    9     8    1.40
   10     1    1.20
   11     1    1.20
   12     1    1.20
   13     1    1.20
   14     1    1.20
   15     1    1.20
   16     1    1.20
 Generate VDW surfaces: Layer= 5 Dens= 2 Start= 1.400 Inc= 0.179

 **********************************************************************

            Electrostatic Properties Using The SCF Density

 **********************************************************************

       Atomic Center    1 is at   1.133273  2.149439  0.000002
       Atomic Center    2 is at   0.261444  0.919518 -0.000025
       Atomic Center    3 is at  -1.134449  1.036123  0.000006
       Atomic Center    4 is at  -1.964561 -0.088014 -0.000002
       Atomic Center    5 is at  -1.404259 -1.368330  0.000003
       Atomic Center    6 is at  -0.020327 -1.506047  0.000006
       Atomic Center    7 is at   0.796771 -0.375718 -0.000028
       Atomic Center    8 is at   2.547503 -0.604680  0.000006
       Atomic Center    9 is at  -3.328587  0.003745 -0.000001
       Atomic Center   10 is at   1.786986  2.173600 -0.879451
       Atomic Center   11 is at   0.525264  3.058774  0.000077
       Atomic Center   12 is at   1.786977  2.173492  0.879469
       Atomic Center   13 is at  -1.577221  2.031090 -0.000031
       Atomic Center   14 is at  -2.055631 -2.235956  0.000005
       Atomic Center   15 is at   0.430609 -2.492744  0.000004
       Atomic Center   16 is at  -3.583193  0.939516  0.000059
      ESP Fit Center   17 is at   0.415031  2.149439  1.973357
      ESP Fit Center   18 is at   0.941169  3.485553  1.608695
      ESP Fit Center   19 is at  -0.161902  2.529737  1.608695
      ESP Fit Center   20 is at   1.695268  3.879081  1.050002
      ESP Fit Center   21 is at   2.661615  3.542706  0.364663
      ESP Fit Center   22 is at   2.055103  4.000723  0.364663
      ESP Fit Center   23 is at   2.661615  3.542706 -0.364659
      ESP Fit Center   24 is at   2.055103  4.000723 -0.364659
      ESP Fit Center   25 is at   1.695268  3.879081 -1.049998
      ESP Fit Center   26 is at   0.941169  3.485553 -1.608691
      ESP Fit Center   27 is at  -0.161902  2.529737 -1.608691
      ESP Fit Center   28 is at   0.415031  2.149439 -1.973352
      ESP Fit Center   29 is at   0.261444  0.919518  2.099975
      ESP Fit Center   30 is at   0.979686  0.919518  1.973330
      ESP Fit Center   31 is at   0.620565  1.541534  1.973330
      ESP Fit Center   32 is at  -0.097677  1.541534  1.973330
      ESP Fit Center   33 is at  -0.097677  0.297502  1.973330
      ESP Fit Center   34 is at   0.979686  0.919518 -1.973379
      ESP Fit Center   35 is at   0.620565  1.541534 -1.973379
      ESP Fit Center   36 is at  -0.097677  1.541534 -1.973379
      ESP Fit Center   37 is at  -0.097677  0.297502 -1.973379
      ESP Fit Center   38 is at   0.261444  0.919518 -2.100025
      ESP Fit Center   39 is at  -1.134449  1.036123  2.100006
      ESP Fit Center   40 is at  -0.775328  1.658139  1.973361
      ESP Fit Center   41 is at  -1.493570  1.658139  1.973361
      ESP Fit Center   42 is at  -1.852691  1.036123  1.973361
      ESP Fit Center   43 is at  -0.775328  0.414107  1.973361
      ESP Fit Center   44 is at  -0.573699  2.263993  1.608699
      ESP Fit Center   45 is at  -2.429624  1.416421  1.608699
      ESP Fit Center   46 is at  -0.573699 -0.191747  1.608699
      ESP Fit Center   47 is at  -0.573699  2.263993 -1.608687
      ESP Fit Center   48 is at  -2.429624  1.416421 -1.608687
      ESP Fit Center   49 is at  -0.573699 -0.191747 -1.608687
      ESP Fit Center   50 is at  -0.775328  1.658139 -1.973348
      ESP Fit Center   51 is at  -1.493570  1.658139 -1.973348
      ESP Fit Center   52 is at  -1.852691  1.036123 -1.973348
      ESP Fit Center   53 is at  -0.775328  0.414107 -1.973348
      ESP Fit Center   54 is at  -1.134449  1.036123 -2.099994
      ESP Fit Center   55 is at  -1.964561 -0.088014  2.099998
      ESP Fit Center   56 is at  -1.246319 -0.088014  1.973353
      ESP Fit Center   57 is at  -2.323682  0.534002  1.973353
      ESP Fit Center   58 is at  -2.682803 -0.088014  1.973353
      ESP Fit Center   59 is at  -2.323682 -0.710030  1.973353
      ESP Fit Center   60 is at  -2.848527 -1.108165  1.608691
      ESP Fit Center   61 is at  -2.848527 -1.108165 -1.608695
      ESP Fit Center   62 is at  -1.246319 -0.088014 -1.973356
      ESP Fit Center   63 is at  -2.323682  0.534002 -1.973356
      ESP Fit Center   64 is at  -2.682803 -0.088014 -1.973356
      ESP Fit Center   65 is at  -2.323682 -0.710030 -1.973356
      ESP Fit Center   66 is at  -1.964561 -0.088014 -2.100002
      ESP Fit Center   67 is at  -1.404259 -1.368330  2.100003
      ESP Fit Center   68 is at  -1.045138 -0.746314  1.973358
      ESP Fit Center   69 is at  -2.122501 -1.368330  1.973358
      ESP Fit Center   70 is at  -1.763380 -1.990346  1.973358
      ESP Fit Center   71 is at  -1.045138 -1.990346  1.973358
      ESP Fit Center   72 is at  -2.699434 -1.748628  1.608696
      ESP Fit Center   73 is at  -1.596363 -2.704444  1.608696
      ESP Fit Center   74 is at  -0.843509 -2.596200  1.608696
      ESP Fit Center   75 is at  -2.699434 -1.748628 -1.608690
      ESP Fit Center   76 is at  -1.596363 -2.704444 -1.608690
      ESP Fit Center   77 is at  -0.843509 -2.596200 -1.608690
      ESP Fit Center   78 is at  -1.045138 -0.746314 -1.973351
      ESP Fit Center   79 is at  -2.122501 -1.368330 -1.973351
      ESP Fit Center   80 is at  -1.763380 -1.990346 -1.973351
      ESP Fit Center   81 is at  -1.045138 -1.990346 -1.973351
      ESP Fit Center   82 is at  -1.404259 -1.368330 -2.099997
      ESP Fit Center   83 is at  -0.020327 -1.506047  2.100006
      ESP Fit Center   84 is at   0.697915 -1.506047  1.973361
      ESP Fit Center   85 is at  -0.379448 -0.884031  1.973361
      ESP Fit Center   86 is at  -0.379448 -2.128063  1.973361
      ESP Fit Center   87 is at   0.338794 -2.128063  1.973361
      ESP Fit Center   88 is at  -0.212431 -2.842161  1.608699
      ESP Fit Center   89 is at   1.115242 -2.235833  1.608699
      ESP Fit Center   90 is at  -0.212431 -2.842161 -1.608687
      ESP Fit Center   91 is at   1.115242 -2.235833 -1.608687
      ESP Fit Center   92 is at   0.697915 -1.506047 -1.973348
      ESP Fit Center   93 is at  -0.379448 -0.884031 -1.973348
      ESP Fit Center   94 is at  -0.379448 -2.128063 -1.973348
      ESP Fit Center   95 is at   0.338794 -2.128063 -1.973348
      ESP Fit Center   96 is at  -0.020327 -1.506047 -2.099994
      ESP Fit Center   97 is at   0.796771 -0.375718  2.099972
      ESP Fit Center   98 is at   1.155892  0.246298  1.973327
      ESP Fit Center   99 is at   0.078529 -0.375718  1.973327
      ESP Fit Center  100 is at   1.155892 -0.997734  1.973327
      ESP Fit Center  101 is at   1.155892  0.246298 -1.973382
      ESP Fit Center  102 is at   0.078529 -0.375718 -1.973382
      ESP Fit Center  103 is at   1.155892 -0.997734 -1.973382
      ESP Fit Center  104 is at   0.796771 -0.375718 -2.100028
      ESP Fit Center  105 is at   2.547503 -0.604680  2.380006
      ESP Fit Center  106 is at   3.282963 -0.604680  2.263521
      ESP Fit Center  107 is at   2.915233  0.032247  2.263521
      ESP Fit Center  108 is at   2.179773  0.032247  2.263521
      ESP Fit Center  109 is at   1.812043 -0.604680  2.263521
      ESP Fit Center  110 is at   2.179773 -1.241608  2.263521
      ESP Fit Center  111 is at   2.915233 -1.241608  2.263521
      ESP Fit Center  112 is at   3.946432 -0.604680  1.925466
      ESP Fit Center  113 is at   3.759011  0.094784  1.925466
      ESP Fit Center  114 is at   3.246967  0.606828  1.925466
      ESP Fit Center  115 is at   2.547503  0.794249  1.925466
      ESP Fit Center  116 is at   1.848039  0.606828  1.925466
      ESP Fit Center  117 is at   1.335995 -1.304145  1.925466
      ESP Fit Center  118 is at   1.848039 -1.816188  1.925466
      ESP Fit Center  119 is at   2.547503 -2.003609  1.925466
      ESP Fit Center  120 is at   3.246967 -1.816188  1.925466
      ESP Fit Center  121 is at   3.759011 -1.304145  1.925466
      ESP Fit Center  122 is at   4.472963 -0.604680  1.398935
      ESP Fit Center  123 is at   4.326396  0.132162  1.398935
      ESP Fit Center  124 is at   3.909009  0.756826  1.398935
      ESP Fit Center  125 is at   3.284345  1.174213  1.398935
      ESP Fit Center  126 is at   1.810661 -2.383574  1.398935
      ESP Fit Center  127 is at   2.547503 -2.530141  1.398935
      ESP Fit Center  128 is at   3.284345 -2.383574  1.398935
      ESP Fit Center  129 is at   3.909009 -1.966186  1.398935
      ESP Fit Center  130 is at   4.326396 -1.341522  1.398935
      ESP Fit Center  131 is at   4.811017 -0.604680  0.735466
      ESP Fit Center  132 is at   4.688374  0.130282  0.735466
      ESP Fit Center  133 is at   4.333734  0.785599  0.735466
      ESP Fit Center  134 is at   3.785528  1.290258  0.735466
      ESP Fit Center  135 is at   2.360583 -2.860464  0.735466
      ESP Fit Center  136 is at   3.103163 -2.798932  0.735466
      ESP Fit Center  137 is at   3.785528 -2.499619  0.735466
      ESP Fit Center  138 is at   4.333734 -1.994960  0.735466
      ESP Fit Center  139 is at   4.688374 -1.339642  0.735466
      ESP Fit Center  140 is at   4.927503 -0.604680  0.000006
      ESP Fit Center  141 is at   4.821766  0.096837  0.000006
      ESP Fit Center  142 is at   4.513951  0.736022  0.000006
      ESP Fit Center  143 is at   4.031409  1.256079  0.000006
      ESP Fit Center  144 is at   3.417015  1.610799  0.000006
      ESP Fit Center  145 is at   2.725361 -2.978025  0.000006
      ESP Fit Center  146 is at   3.417015 -2.820160  0.000006
      ESP Fit Center  147 is at   4.031409 -2.465439  0.000006
      ESP Fit Center  148 is at   4.513951 -1.945382  0.000006
      ESP Fit Center  149 is at   4.821766 -1.306197  0.000006
      ESP Fit Center  150 is at   4.811017 -0.604680 -0.735454
      ESP Fit Center  151 is at   4.688374  0.130282 -0.735454
      ESP Fit Center  152 is at   4.333734  0.785599 -0.735454
      ESP Fit Center  153 is at   3.785528  1.290258 -0.735454
      ESP Fit Center  154 is at   2.360583 -2.860464 -0.735454
      ESP Fit Center  155 is at   3.103163 -2.798932 -0.735454
      ESP Fit Center  156 is at   3.785528 -2.499619 -0.735454
      ESP Fit Center  157 is at   4.333734 -1.994960 -0.735454
      ESP Fit Center  158 is at   4.688374 -1.339642 -0.735454
      ESP Fit Center  159 is at   4.472963 -0.604680 -1.398923
      ESP Fit Center  160 is at   4.326396  0.132162 -1.398923
      ESP Fit Center  161 is at   3.909009  0.756826 -1.398923
      ESP Fit Center  162 is at   3.284345  1.174213 -1.398923
      ESP Fit Center  163 is at   1.810661 -2.383574 -1.398923
      ESP Fit Center  164 is at   2.547503 -2.530141 -1.398923
      ESP Fit Center  165 is at   3.284345 -2.383574 -1.398923
      ESP Fit Center  166 is at   3.909009 -1.966186 -1.398923
      ESP Fit Center  167 is at   4.326396 -1.341522 -1.398923
      ESP Fit Center  168 is at   3.946432 -0.604680 -1.925454
      ESP Fit Center  169 is at   3.759011  0.094784 -1.925454
      ESP Fit Center  170 is at   3.246967  0.606828 -1.925454
      ESP Fit Center  171 is at   2.547503  0.794249 -1.925454
      ESP Fit Center  172 is at   1.848039  0.606828 -1.925454
      ESP Fit Center  173 is at   1.335995 -1.304145 -1.925454
      ESP Fit Center  174 is at   1.848039 -1.816188 -1.925454
      ESP Fit Center  175 is at   2.547503 -2.003609 -1.925454
      ESP Fit Center  176 is at   3.246967 -1.816188 -1.925454
      ESP Fit Center  177 is at   3.759011 -1.304145 -1.925454
      ESP Fit Center  178 is at   3.282963 -0.604680 -2.263508
      ESP Fit Center  179 is at   2.915233  0.032247 -2.263508
      ESP Fit Center  180 is at   2.179773  0.032247 -2.263508
      ESP Fit Center  181 is at   1.812043 -0.604680 -2.263508
      ESP Fit Center  182 is at   2.179773 -1.241608 -2.263508
      ESP Fit Center  183 is at   2.915233 -1.241608 -2.263508
      ESP Fit Center  184 is at   2.547503 -0.604680 -2.379994
      ESP Fit Center  185 is at  -3.328587  0.003745  1.959999
      ESP Fit Center  186 is at  -2.953557  0.653316  1.810803
      ESP Fit Center  187 is at  -3.703617  0.653316  1.810803
      ESP Fit Center  188 is at  -4.078647  0.003745  1.810803
      ESP Fit Center  189 is at  -3.703617 -0.645825  1.810803
      ESP Fit Center  190 is at  -2.953557 -0.645825  1.810803
      ESP Fit Center  191 is at  -4.528837  0.696710  1.385928
      ESP Fit Center  192 is at  -4.714516  0.003745  1.385928
      ESP Fit Center  193 is at  -4.528837 -0.689219  1.385928
      ESP Fit Center  194 is at  -4.021552 -1.196505  1.385928
      ESP Fit Center  195 is at  -3.328587 -1.382184  1.385928
      ESP Fit Center  196 is at  -5.099820  0.380233  0.750059
      ESP Fit Center  197 is at  -5.099820 -0.372742  0.750059
      ESP Fit Center  198 is at  -4.793558 -1.060619  0.750059
      ESP Fit Center  199 is at  -4.233989 -1.564457  0.750059
      ESP Fit Center  200 is at  -3.517868 -1.797139  0.750059
      ESP Fit Center  201 is at  -5.255214  0.363894 -0.000001
      ESP Fit Center  202 is at  -5.255214 -0.356404 -0.000001
      ESP Fit Center  203 is at  -4.995013 -1.028062 -0.000001
      ESP Fit Center  204 is at  -4.509751 -1.560368 -0.000001
      ESP Fit Center  205 is at  -3.864966 -1.881433 -0.000001
      ESP Fit Center  206 is at  -5.099820  0.380233 -0.750061
      ESP Fit Center  207 is at  -5.099820 -0.372742 -0.750061
      ESP Fit Center  208 is at  -4.793558 -1.060619 -0.750061
      ESP Fit Center  209 is at  -4.233989 -1.564457 -0.750061
      ESP Fit Center  210 is at  -3.517868 -1.797139 -0.750061
      ESP Fit Center  211 is at  -4.528837  0.696710 -1.385930
      ESP Fit Center  212 is at  -4.714516  0.003745 -1.385930
      ESP Fit Center  213 is at  -4.528837 -0.689219 -1.385930
      ESP Fit Center  214 is at  -4.021552 -1.196505 -1.385930
      ESP Fit Center  215 is at  -3.328587 -1.382184 -1.385930
      ESP Fit Center  216 is at  -2.953557  0.653316 -1.810805
      ESP Fit Center  217 is at  -3.703617  0.653316 -1.810805
      ESP Fit Center  218 is at  -4.078647  0.003745 -1.810805
      ESP Fit Center  219 is at  -3.703617 -0.645825 -1.810805
      ESP Fit Center  220 is at  -2.953557 -0.645825 -1.810805
      ESP Fit Center  221 is at  -3.328587  0.003745 -1.960001
      ESP Fit Center  222 is at   3.424865  2.173600 -0.505616
      ESP Fit Center  223 is at   3.237256  2.934760 -0.505616
      ESP Fit Center  224 is at   2.717407  3.521548 -0.505616
      ESP Fit Center  225 is at   3.424865  2.173600 -1.253286
      ESP Fit Center  226 is at   3.237256  2.934760 -1.253286
      ESP Fit Center  227 is at   2.717407  3.521548 -1.253286
      ESP Fit Center  228 is at   1.984411  3.799537 -1.253286
      ESP Fit Center  229 is at   3.237256  1.412440 -1.253286
      ESP Fit Center  230 is at   3.100463  2.173600 -1.926914
      ESP Fit Center  231 is at   2.849611  2.945642 -1.926914
      ESP Fit Center  232 is at   2.192873  3.422791 -1.926914
      ESP Fit Center  233 is at   1.381100  3.422791 -1.926914
      ESP Fit Center  234 is at   0.724361  2.945642 -1.926914
      ESP Fit Center  235 is at   1.381100  0.924409 -1.926914
      ESP Fit Center  236 is at   2.192873  0.924409 -1.926914
      ESP Fit Center  237 is at   2.849611  1.401558 -1.926914
      ESP Fit Center  238 is at   2.515911  2.173600 -2.393079
      ESP Fit Center  239 is at   2.151449  2.804867 -2.393079
      ESP Fit Center  240 is at   1.422524  2.804867 -2.393079
      ESP Fit Center  241 is at   1.058062  2.173600 -2.393079
      ESP Fit Center  242 is at   1.422524  1.542333 -2.393079
      ESP Fit Center  243 is at   2.151449  1.542333 -2.393079
      ESP Fit Center  244 is at   1.786986  2.173600 -2.559451
      ESP Fit Center  245 is at   0.889727  3.690041  1.513705
      ESP Fit Center  246 is at   0.160802  3.690041  1.513705
      ESP Fit Center  247 is at  -0.203660  3.058774  1.513705
      ESP Fit Center  248 is at   0.931151  4.307965  1.047540
      ESP Fit Center  249 is at   0.119378  4.307965  1.047540
      ESP Fit Center  250 is at  -0.537361  3.830816  1.047540
      ESP Fit Center  251 is at   1.455686  4.406722  0.373912
      ESP Fit Center  252 is at   0.722689  4.684711  0.373912
      ESP Fit Center  253 is at  -0.055536  4.590217  0.373912
      ESP Fit Center  254 is at  -0.700706  4.144889  0.373912
      ESP Fit Center  255 is at   1.455686  4.406722 -0.373758
      ESP Fit Center  256 is at   0.722689  4.684711 -0.373758
      ESP Fit Center  257 is at  -0.055536  4.590217 -0.373758
      ESP Fit Center  258 is at  -0.700706  4.144889 -0.373758
      ESP Fit Center  259 is at   0.931151  4.307965 -1.047386
      ESP Fit Center  260 is at   0.119378  4.307965 -1.047386
      ESP Fit Center  261 is at  -0.537361  3.830816 -1.047386
      ESP Fit Center  262 is at   0.889727  3.690041 -1.513551
      ESP Fit Center  263 is at   0.160802  3.690041 -1.513551
      ESP Fit Center  264 is at  -0.203660  3.058774 -1.513551
      ESP Fit Center  265 is at   1.786977  2.173492  2.559469
      ESP Fit Center  266 is at   2.515902  2.173492  2.393097
      ESP Fit Center  267 is at   2.151440  2.804759  2.393097
      ESP Fit Center  268 is at   1.422515  2.804759  2.393097
      ESP Fit Center  269 is at   1.058053  2.173492  2.393097
      ESP Fit Center  270 is at   1.422515  1.542225  2.393097
      ESP Fit Center  271 is at   2.151440  1.542225  2.393097
      ESP Fit Center  272 is at   3.100454  2.173492  1.926932
      ESP Fit Center  273 is at   2.849602  2.945534  1.926932
      ESP Fit Center  274 is at   2.192864  3.422683  1.926932
      ESP Fit Center  275 is at   1.381091  3.422683  1.926932
      ESP Fit Center  276 is at   0.724352  2.945534  1.926932
      ESP Fit Center  277 is at   1.381091  0.924301  1.926932
      ESP Fit Center  278 is at   2.192864  0.924301  1.926932
      ESP Fit Center  279 is at   2.849602  1.401450  1.926932
      ESP Fit Center  280 is at   3.424856  2.173492  1.253304
      ESP Fit Center  281 is at   3.237247  2.934652  1.253304
      ESP Fit Center  282 is at   2.717398  3.521440  1.253304
      ESP Fit Center  283 is at   1.984402  3.799429  1.253304
      ESP Fit Center  284 is at   3.237247  1.412332  1.253304
      ESP Fit Center  285 is at   3.424856  2.173492  0.505634
      ESP Fit Center  286 is at   3.237247  2.934652  0.505634
      ESP Fit Center  287 is at   2.717398  3.521440  0.505634
      ESP Fit Center  288 is at  -1.212758  2.662357  1.513597
      ESP Fit Center  289 is at  -1.941683  2.662357  1.513597
      ESP Fit Center  290 is at  -2.306145  2.031090  1.513597
      ESP Fit Center  291 is at  -1.171334  3.280281  1.047432
      ESP Fit Center  292 is at  -1.983107  3.280281  1.047432
      ESP Fit Center  293 is at  -2.639846  2.803133  1.047432
      ESP Fit Center  294 is at  -1.379796  3.657027  0.373804
      ESP Fit Center  295 is at  -2.158021  3.562534  0.373804
      ESP Fit Center  296 is at  -2.803191  3.117205  0.373804
      ESP Fit Center  297 is at  -1.379796  3.657027 -0.373866
      ESP Fit Center  298 is at  -2.158021  3.562534 -0.373866
      ESP Fit Center  299 is at  -2.803191  3.117205 -0.373866
      ESP Fit Center  300 is at  -1.171334  3.280281 -1.047494
      ESP Fit Center  301 is at  -1.983107  3.280281 -1.047494
      ESP Fit Center  302 is at  -2.639846  2.803133 -1.047494
      ESP Fit Center  303 is at  -1.212758  2.662357 -1.513659
      ESP Fit Center  304 is at  -1.941683  2.662357 -1.513659
      ESP Fit Center  305 is at  -2.306145  2.031090 -1.513659
      ESP Fit Center  306 is at  -2.784556 -2.235956  1.513633
      ESP Fit Center  307 is at  -2.420093 -2.867223  1.513633
      ESP Fit Center  308 is at  -1.691169 -2.867223  1.513633
      ESP Fit Center  309 is at  -3.369108 -2.235956  1.047468
      ESP Fit Center  310 is at  -3.118256 -3.007998  1.047468
      ESP Fit Center  311 is at  -2.461518 -3.485147  1.047468
      ESP Fit Center  312 is at  -1.649744 -3.485147  1.047468
      ESP Fit Center  313 is at  -3.645916 -2.627926  0.373840
      ESP Fit Center  314 is at  -3.281601 -3.322070  0.373840
      ESP Fit Center  315 is at  -2.636431 -3.767399  0.373840
      ESP Fit Center  316 is at  -1.858207 -3.861893  0.373840
      ESP Fit Center  317 is at  -1.125210 -3.583904  0.373840
      ESP Fit Center  318 is at  -3.645916 -2.627926 -0.373830
      ESP Fit Center  319 is at  -3.281601 -3.322070 -0.373830
      ESP Fit Center  320 is at  -2.636431 -3.767399 -0.373830
      ESP Fit Center  321 is at  -1.858207 -3.861893 -0.373830
      ESP Fit Center  322 is at  -1.125210 -3.583904 -0.373830
      ESP Fit Center  323 is at  -3.369108 -2.235956 -1.047458
      ESP Fit Center  324 is at  -3.118256 -3.007998 -1.047458
      ESP Fit Center  325 is at  -2.461518 -3.485147 -1.047458
      ESP Fit Center  326 is at  -1.649744 -3.485147 -1.047458
      ESP Fit Center  327 is at  -2.784556 -2.235956 -1.513623
      ESP Fit Center  328 is at  -2.420093 -2.867223 -1.513623
      ESP Fit Center  329 is at  -1.691169 -2.867223 -1.513623
      ESP Fit Center  330 is at   1.159534 -2.492744  1.513632
      ESP Fit Center  331 is at   0.066146 -3.124011  1.513632
      ESP Fit Center  332 is at   0.795071 -3.124011  1.513632
      ESP Fit Center  333 is at  -0.632016 -3.264786  1.047467
      ESP Fit Center  334 is at   0.024722 -3.741935  1.047467
      ESP Fit Center  335 is at   0.836496 -3.741935  1.047467
      ESP Fit Center  336 is at   1.493234 -3.264786  1.047467
      ESP Fit Center  337 is at  -0.795361 -3.578859  0.373839
      ESP Fit Center  338 is at  -0.150191 -4.024187  0.373839
      ESP Fit Center  339 is at   0.628033 -4.118681  0.373839
      ESP Fit Center  340 is at   1.361030 -3.840692  0.373839
      ESP Fit Center  341 is at   1.880879 -3.253904  0.373839
      ESP Fit Center  342 is at  -0.795361 -3.578859 -0.373831
      ESP Fit Center  343 is at  -0.150191 -4.024187 -0.373831
      ESP Fit Center  344 is at   0.628033 -4.118681 -0.373831
      ESP Fit Center  345 is at   1.361030 -3.840692 -0.373831
      ESP Fit Center  346 is at   1.880879 -3.253904 -0.373831
      ESP Fit Center  347 is at  -0.632016 -3.264786 -1.047459
      ESP Fit Center  348 is at   0.024722 -3.741935 -1.047459
      ESP Fit Center  349 is at   0.836496 -3.741935 -1.047459
      ESP Fit Center  350 is at   1.493234 -3.264786 -1.047459
      ESP Fit Center  351 is at   1.159534 -2.492744 -1.513624
      ESP Fit Center  352 is at   0.066146 -3.124011 -1.513624
      ESP Fit Center  353 is at   0.795071 -3.124011 -1.513624
      ESP Fit Center  354 is at  -3.218731  1.570784  1.513687
      ESP Fit Center  355 is at  -3.947655  1.570784  1.513687
      ESP Fit Center  356 is at  -4.312118  0.939516  1.513687
      ESP Fit Center  357 is at  -3.177306  2.188707  1.047522
      ESP Fit Center  358 is at  -3.989080  2.188707  1.047522
      ESP Fit Center  359 is at  -4.645818  1.711559  1.047522
      ESP Fit Center  360 is at  -4.896670  0.939516  1.047522
      ESP Fit Center  361 is at  -3.385768  2.565453  0.373894
      ESP Fit Center  362 is at  -4.163993  2.470960  0.373894
      ESP Fit Center  363 is at  -4.809163  2.025631  0.373894
      ESP Fit Center  364 is at  -5.173478  1.331486  0.373894
      ESP Fit Center  365 is at  -3.385768  2.565453 -0.373776
      ESP Fit Center  366 is at  -4.163993  2.470960 -0.373776
      ESP Fit Center  367 is at  -4.809163  2.025631 -0.373776
      ESP Fit Center  368 is at  -5.173478  1.331486 -0.373776
      ESP Fit Center  369 is at  -3.177306  2.188707 -1.047404
      ESP Fit Center  370 is at  -3.989080  2.188707 -1.047404
      ESP Fit Center  371 is at  -4.645818  1.711559 -1.047404
      ESP Fit Center  372 is at  -4.896670  0.939516 -1.047404
      ESP Fit Center  373 is at  -3.218731  1.570784 -1.513569
      ESP Fit Center  374 is at  -3.947655  1.570784 -1.513569
      ESP Fit Center  375 is at  -4.312118  0.939516 -1.513569
      ESP Fit Center  376 is at   0.401420  2.149439  2.252416
      ESP Fit Center  377 is at   0.935161  3.527338  1.916020
      ESP Fit Center  378 is at   0.221662  3.201494  1.916020
      ESP Fit Center  379 is at  -0.202407  2.541630  1.916020
      ESP Fit Center  380 is at   2.365227  4.035084  0.731856
      ESP Fit Center  381 is at   3.501601  2.149439  0.000002
      ESP Fit Center  382 is at   3.385687  2.881293  0.000002
      ESP Fit Center  383 is at   3.049291  3.541507  0.000002
      ESP Fit Center  384 is at   2.525342  4.065457  0.000002
      ESP Fit Center  385 is at   1.865127  4.401853  0.000002
      ESP Fit Center  386 is at   2.365227  4.035084 -0.731852
      ESP Fit Center  387 is at   0.935161  3.527338 -1.916016
      ESP Fit Center  388 is at   0.221662  3.201494 -1.916016
      ESP Fit Center  389 is at  -0.202407  2.541630 -1.916016
      ESP Fit Center  390 is at   0.401420  2.149439 -2.252412
      ESP Fit Center  391 is at   0.261444  0.919518  2.368303
      ESP Fit Center  392 is at   0.993298  0.919518  2.252389
      ESP Fit Center  393 is at   0.627371  1.553322  2.252389
      ESP Fit Center  394 is at  -0.104483  1.553322  2.252389
      ESP Fit Center  395 is at  -0.104483  0.285714  2.252389
      ESP Fit Center  396 is at   0.993298  0.919518 -2.252439
      ESP Fit Center  397 is at   0.627371  1.553322 -2.252439
      ESP Fit Center  398 is at  -0.104483  1.553322 -2.252439
      ESP Fit Center  399 is at  -0.104483  0.285714 -2.252439
      ESP Fit Center  400 is at   0.261444  0.919518 -2.368353
      ESP Fit Center  401 is at  -1.134449  1.036123  2.368334
      ESP Fit Center  402 is at  -0.768522  1.669927  2.252420
      ESP Fit Center  403 is at  -1.500376  1.669927  2.252420
      ESP Fit Center  404 is at  -1.866303  1.036123  2.252420
      ESP Fit Center  405 is at  -0.768522  0.402319  2.252420
      ESP Fit Center  406 is at  -0.556163  2.302393  1.916024
      ESP Fit Center  407 is at  -1.332561  2.414022  1.916024
      ESP Fit Center  408 is at  -2.046060  2.088178  1.916024
      ESP Fit Center  409 is at  -2.470129  1.428314  1.916024
      ESP Fit Center  410 is at  -0.556163  2.302393 -1.916012
      ESP Fit Center  411 is at  -1.332561  2.414022 -1.916012
      ESP Fit Center  412 is at  -2.046060  2.088178 -1.916012
      ESP Fit Center  413 is at  -2.470129  1.428314 -1.916012
      ESP Fit Center  414 is at  -0.768522  1.669927 -2.252408
      ESP Fit Center  415 is at  -1.500376  1.669927 -2.252408
      ESP Fit Center  416 is at  -1.866303  1.036123 -2.252408
      ESP Fit Center  417 is at  -0.768522  0.402319 -2.252408
      ESP Fit Center  418 is at  -1.134449  1.036123 -2.368322
      ESP Fit Center  419 is at  -1.964561 -0.088014  2.368326
      ESP Fit Center  420 is at  -1.232707 -0.088014  2.252412
      ESP Fit Center  421 is at  -2.330488  0.545790  2.252412
      ESP Fit Center  422 is at  -2.696415 -0.088014  2.252412
      ESP Fit Center  423 is at  -2.330488 -0.721818  2.252412
      ESP Fit Center  424 is at  -2.876172 -1.140069  1.916016
      ESP Fit Center  425 is at  -2.876172 -1.140069 -1.916020
      ESP Fit Center  426 is at  -1.232707 -0.088014 -2.252416
      ESP Fit Center  427 is at  -2.330488  0.545790 -2.252416
      ESP Fit Center  428 is at  -2.696415 -0.088014 -2.252416
      ESP Fit Center  429 is at  -2.330488 -0.721818 -2.252416
      ESP Fit Center  430 is at  -1.964561 -0.088014 -2.368330
      ESP Fit Center  431 is at  -1.404259 -1.368330  2.368331
      ESP Fit Center  432 is at  -1.038332 -0.734526  2.252417
      ESP Fit Center  433 is at  -2.136113 -1.368330  2.252417
      ESP Fit Center  434 is at  -1.770186 -2.002134  2.252417
      ESP Fit Center  435 is at  -1.038332 -2.002134  2.252417
      ESP Fit Center  436 is at  -2.739939 -1.760521  1.916021
      ESP Fit Center  437 is at  -2.315870 -2.420385  1.916021
      ESP Fit Center  438 is at  -1.602371 -2.746229  1.916021
      ESP Fit Center  439 is at  -2.739939 -1.760521 -1.916015
      ESP Fit Center  440 is at  -2.315870 -2.420385 -1.916015
      ESP Fit Center  441 is at  -1.602371 -2.746229 -1.916015
      ESP Fit Center  442 is at  -1.038332 -0.734526 -2.252411
      ESP Fit Center  443 is at  -2.136113 -1.368330 -2.252411
      ESP Fit Center  444 is at  -1.770186 -2.002134 -2.252411
      ESP Fit Center  445 is at  -1.038332 -2.002134 -2.252411
      ESP Fit Center  446 is at  -1.404259 -1.368330 -2.368325
      ESP Fit Center  447 is at  -0.020327 -1.506047  2.368334
      ESP Fit Center  448 is at   0.711527 -1.506047  2.252420
      ESP Fit Center  449 is at  -0.386254 -0.872243  2.252420
      ESP Fit Center  450 is at  -0.386254 -2.139851  2.252420
      ESP Fit Center  451 is at   0.345600 -2.139851  2.252420
      ESP Fit Center  452 is at  -0.218439 -2.883946  1.916024
      ESP Fit Center  453 is at   0.557959 -2.772317  1.916024
      ESP Fit Center  454 is at   1.150755 -2.258656  1.916024
      ESP Fit Center  455 is at  -0.753555 -3.276217  1.392074
      ESP Fit Center  456 is at  -0.753555 -3.276217 -1.392062
      ESP Fit Center  457 is at  -0.218439 -2.883946 -1.916012
      ESP Fit Center  458 is at   0.557959 -2.772317 -1.916012
      ESP Fit Center  459 is at   1.150755 -2.258656 -1.916012
      ESP Fit Center  460 is at   0.711527 -1.506047 -2.252408
      ESP Fit Center  461 is at  -0.386254 -0.872243 -2.252408
      ESP Fit Center  462 is at  -0.386254 -2.139851 -2.252408
      ESP Fit Center  463 is at   0.345600 -2.139851 -2.252408
      ESP Fit Center  464 is at  -0.020327 -1.506047 -2.368322
      ESP Fit Center  465 is at   0.796771 -0.375718  2.368300
      ESP Fit Center  466 is at   1.162698  0.258086  2.252386
      ESP Fit Center  467 is at   0.064917 -0.375718  2.252386
      ESP Fit Center  468 is at   1.162698  0.258086 -2.252442
      ESP Fit Center  469 is at   0.064917 -0.375718 -2.252442
      ESP Fit Center  470 is at   0.796771 -0.375718 -2.368356
      ESP Fit Center  471 is at   2.547503 -0.604680  2.684111
      ESP Fit Center  472 is at   3.303703 -0.604680  2.575386
      ESP Fit Center  473 is at   2.925603  0.050208  2.575386
      ESP Fit Center  474 is at   2.169403  0.050208  2.575386
      ESP Fit Center  475 is at   1.791303 -0.604680  2.575386
      ESP Fit Center  476 is at   2.169403 -1.259568  2.575386
      ESP Fit Center  477 is at   2.925603 -1.259568  2.575386
      ESP Fit Center  478 is at   3.998640 -0.604680  2.258019
      ESP Fit Center  479 is at   3.804224  0.120888  2.258019
      ESP Fit Center  480 is at   3.273071  0.652041  2.258019
      ESP Fit Center  481 is at   2.547503  0.846457  2.258019
      ESP Fit Center  482 is at   1.821935  0.652041  2.258019
      ESP Fit Center  483 is at   1.290782 -1.330249  2.258019
      ESP Fit Center  484 is at   1.821935 -1.861402  2.258019
      ESP Fit Center  485 is at   2.547503 -2.055817  2.258019
      ESP Fit Center  486 is at   3.273071 -1.861402  2.258019
      ESP Fit Center  487 is at   3.804224 -1.330249  2.258019
      ESP Fit Center  488 is at   4.576014 -0.604680  1.757721
      ESP Fit Center  489 is at   4.439034  0.128103  1.757721
      ESP Fit Center  490 is at   4.046591  0.761919  1.757721
      ESP Fit Center  491 is at   3.451688  1.211169  1.757721
      ESP Fit Center  492 is at   1.992374 -2.555754  1.757721
      ESP Fit Center  493 is at   2.734670 -2.624538  1.757721
      ESP Fit Center  494 is at   3.451688 -2.420529  1.757721
      ESP Fit Center  495 is at   4.046591 -1.971279  1.757721
      ESP Fit Center  496 is at   4.439034 -1.337463  1.757721
      ESP Fit Center  497 is at   4.989051 -0.604680  1.115024
      ESP Fit Center  498 is at   4.869553  0.149800  1.115024
      ESP Fit Center  499 is at   4.522757  0.830426  1.115024
      ESP Fit Center  500 is at   3.982609  1.370574  1.115024
      ESP Fit Center  501 is at   2.547503 -3.046228  1.115024
      ESP Fit Center  502 is at   3.301983 -2.926730  1.115024
      ESP Fit Center  503 is at   3.982609 -2.579934  1.115024
      ESP Fit Center  504 is at   4.522757 -2.039786  1.115024
      ESP Fit Center  505 is at   4.869553 -1.359160  1.115024
      ESP Fit Center  506 is at   5.204288 -0.604680  0.381994
      ESP Fit Center  507 is at   5.096669  0.143823  0.381994
      ESP Fit Center  508 is at   4.782533  0.831686  0.381994
      ESP Fit Center  509 is at   4.287327  1.403184  0.381994
      ESP Fit Center  510 is at   3.651171  1.812016  0.381994
      ESP Fit Center  511 is at   2.169403 -3.234423  0.381994
      ESP Fit Center  512 is at   2.925603 -3.234423  0.381994
      ESP Fit Center  513 is at   3.651171 -3.021377  0.381994
      ESP Fit Center  514 is at   4.287327 -2.612544  0.381994
      ESP Fit Center  515 is at   4.782533 -2.041047  0.381994
      ESP Fit Center  516 is at   5.096669 -1.353183  0.381994
      ESP Fit Center  517 is at   5.204288 -0.604680 -0.381982
      ESP Fit Center  518 is at   5.096669  0.143823 -0.381982
      ESP Fit Center  519 is at   4.782533  0.831686 -0.381982
      ESP Fit Center  520 is at   4.287327  1.403184 -0.381982
      ESP Fit Center  521 is at   3.651171  1.812016 -0.381982
      ESP Fit Center  522 is at   2.169403 -3.234423 -0.381982
      ESP Fit Center  523 is at   2.925603 -3.234423 -0.381982
      ESP Fit Center  524 is at   3.651171 -3.021377 -0.381982
      ESP Fit Center  525 is at   4.287327 -2.612544 -0.381982
      ESP Fit Center  526 is at   4.782533 -2.041047 -0.381982
      ESP Fit Center  527 is at   5.096669 -1.353183 -0.381982
      ESP Fit Center  528 is at   4.989051 -0.604680 -1.115012
      ESP Fit Center  529 is at   4.869553  0.149800 -1.115012
      ESP Fit Center  530 is at   4.522757  0.830426 -1.115012
      ESP Fit Center  531 is at   3.982609  1.370574 -1.115012
      ESP Fit Center  532 is at   2.547503 -3.046228 -1.115012
      ESP Fit Center  533 is at   3.301983 -2.926730 -1.115012
      ESP Fit Center  534 is at   3.982609 -2.579934 -1.115012
      ESP Fit Center  535 is at   4.522757 -2.039786 -1.115012
      ESP Fit Center  536 is at   4.869553 -1.359160 -1.115012
      ESP Fit Center  537 is at   4.576014 -0.604680 -1.757709
      ESP Fit Center  538 is at   4.439034  0.128103 -1.757709
      ESP Fit Center  539 is at   4.046591  0.761919 -1.757709
      ESP Fit Center  540 is at   3.451688  1.211169 -1.757709
      ESP Fit Center  541 is at   1.992374 -2.555754 -1.757709
      ESP Fit Center  542 is at   2.734670 -2.624538 -1.757709
      ESP Fit Center  543 is at   3.451688 -2.420529 -1.757709
      ESP Fit Center  544 is at   4.046591 -1.971279 -1.757709
      ESP Fit Center  545 is at   4.439034 -1.337463 -1.757709
      ESP Fit Center  546 is at   3.998640 -0.604680 -2.258007
      ESP Fit Center  547 is at   3.804224  0.120888 -2.258007
      ESP Fit Center  548 is at   3.273071  0.652041 -2.258007
      ESP Fit Center  549 is at   2.547503  0.846457 -2.258007
      ESP Fit Center  550 is at   1.821935  0.652041 -2.258007
      ESP Fit Center  551 is at   1.290782 -1.330249 -2.258007
      ESP Fit Center  552 is at   1.821935 -1.861402 -2.258007
      ESP Fit Center  553 is at   2.547503 -2.055817 -2.258007
      ESP Fit Center  554 is at   3.273071 -1.861402 -2.258007
      ESP Fit Center  555 is at   3.804224 -1.330249 -2.258007
      ESP Fit Center  556 is at   3.303703 -0.604680 -2.575374
      ESP Fit Center  557 is at   2.925603  0.050208 -2.575374
      ESP Fit Center  558 is at   2.169403  0.050208 -2.575374
      ESP Fit Center  559 is at   1.791303 -0.604680 -2.575374
      ESP Fit Center  560 is at   2.169403 -1.259568 -2.575374
      ESP Fit Center  561 is at   2.925603 -1.259568 -2.575374
      ESP Fit Center  562 is at   2.547503 -0.604680 -2.684099
      ESP Fit Center  563 is at  -3.328587  0.003745  2.210439
      ESP Fit Center  564 is at  -2.950580  0.658473  2.077133
      ESP Fit Center  565 is at  -3.706594  0.658473  2.077133
      ESP Fit Center  566 is at  -4.084602  0.003745  2.077133
      ESP Fit Center  567 is at  -3.706594 -0.650983  2.077133
      ESP Fit Center  568 is at  -4.559073  0.714167  1.693294
      ESP Fit Center  569 is at  -4.749430  0.003745  1.693294
      ESP Fit Center  570 is at  -4.559073 -0.706676  1.693294
      ESP Fit Center  571 is at  -4.039009 -1.226741  1.693294
      ESP Fit Center  572 is at  -3.328587 -1.417098  1.693294
      ESP Fit Center  573 is at  -5.242884  0.003745  1.105219
      ESP Fit Center  574 is at  -5.097167 -0.728824  1.105219
      ESP Fit Center  575 is at  -4.682199 -1.349867  1.105219
      ESP Fit Center  576 is at  -4.061157 -1.764834  1.105219
      ESP Fit Center  577 is at  -5.505445  0.003745  0.383838
      ESP Fit Center  578 is at  -5.374164 -0.740784  0.383838
      ESP Fit Center  579 is at  -4.996157 -1.395512  0.383838
      ESP Fit Center  580 is at  -4.417016 -1.881469  0.383838
      ESP Fit Center  581 is at  -5.505445  0.003745 -0.383840
      ESP Fit Center  582 is at  -5.374164 -0.740784 -0.383840
      ESP Fit Center  583 is at  -4.996157 -1.395512 -0.383840
      ESP Fit Center  584 is at  -4.417016 -1.881469 -0.383840
      ESP Fit Center  585 is at  -5.242884  0.003745 -1.105221
      ESP Fit Center  586 is at  -5.097167 -0.728824 -1.105221
      ESP Fit Center  587 is at  -4.682199 -1.349867 -1.105221
      ESP Fit Center  588 is at  -4.061157 -1.764834 -1.105221
      ESP Fit Center  589 is at  -4.559073  0.714167 -1.693296
      ESP Fit Center  590 is at  -4.749430  0.003745 -1.693296
      ESP Fit Center  591 is at  -4.559073 -0.706676 -1.693296
      ESP Fit Center  592 is at  -4.039009 -1.226741 -1.693296
      ESP Fit Center  593 is at  -3.328587 -1.417098 -1.693296
      ESP Fit Center  594 is at  -2.950580  0.658473 -2.077135
      ESP Fit Center  595 is at  -3.706594  0.658473 -2.077135
      ESP Fit Center  596 is at  -4.084602  0.003745 -2.077135
      ESP Fit Center  597 is at  -3.706594 -0.650983 -2.077135
      ESP Fit Center  598 is at  -3.328587  0.003745 -2.210441
      ESP Fit Center  599 is at   3.537426  2.173600 -0.154395
      ESP Fit Center  600 is at   3.364078  2.933087 -0.154395
      ESP Fit Center  601 is at   3.681649  2.173600 -0.879451
      ESP Fit Center  602 is at   3.537426  2.898656 -0.879451
      ESP Fit Center  603 is at   3.126715  3.513329 -0.879451
      ESP Fit Center  604 is at   2.512042  3.924040 -0.879451
      ESP Fit Center  605 is at   3.537426  2.173600 -1.604507
      ESP Fit Center  606 is at   3.364078  2.933087 -1.604507
      ESP Fit Center  607 is at   2.878368  3.542149 -1.604507
      ESP Fit Center  608 is at   2.176496  3.880153 -1.604507
      ESP Fit Center  609 is at   1.397477  3.880153 -1.604507
      ESP Fit Center  610 is at   3.364078  1.414112 -1.604507
      ESP Fit Center  611 is at   3.126715  2.173600 -2.219180
      ESP Fit Center  612 is at   2.914038  2.897912 -2.219180
      ESP Fit Center  613 is at   2.343530  3.392260 -2.219180
      ESP Fit Center  614 is at   1.596323  3.499692 -2.219180
      ESP Fit Center  615 is at   0.909650  3.186099 -2.219180
      ESP Fit Center  616 is at   1.596323  0.847508 -2.219180
      ESP Fit Center  617 is at   2.343530  0.954940 -2.219180
      ESP Fit Center  618 is at   2.914038  1.449288 -2.219180
      ESP Fit Center  619 is at   2.512042  2.173600 -2.629891
      ESP Fit Center  620 is at   2.149514  2.801517 -2.629891
      ESP Fit Center  621 is at   1.424458  2.801517 -2.629891
      ESP Fit Center  622 is at   1.061930  2.173600 -2.629891
      ESP Fit Center  623 is at   1.424458  1.545683 -2.629891
      ESP Fit Center  624 is at   2.149514  1.545683 -2.629891
      ESP Fit Center  625 is at   1.786986  2.173600 -2.774113
      ESP Fit Center  626 is at   0.162736  3.686691  1.750517
      ESP Fit Center  627 is at  -0.199792  3.058774  1.750517
      ESP Fit Center  628 is at   1.081808  4.277434  1.339806
      ESP Fit Center  629 is at   0.334601  4.384866  1.339806
      ESP Fit Center  630 is at  -0.352071  4.071273  1.339806
      ESP Fit Center  631 is at  -0.760196  3.436219  1.339806
      ESP Fit Center  632 is at   1.616646  4.427323  0.725133
      ESP Fit Center  633 is at   0.914774  4.765327  0.725133
      ESP Fit Center  634 is at   0.135755  4.765327  0.725133
      ESP Fit Center  635 is at  -0.566117  4.427323  0.725133
      ESP Fit Center  636 is at  -1.051828  3.818261  0.725133
      ESP Fit Center  637 is at   1.250320  4.809214  0.000077
      ESP Fit Center  638 is at   0.525264  4.953437  0.000077
      ESP Fit Center  639 is at  -0.199792  4.809214  0.000077
      ESP Fit Center  640 is at  -0.814464  4.398503  0.000077
      ESP Fit Center  641 is at   1.616646  4.427323 -0.724979
      ESP Fit Center  642 is at   0.914774  4.765327 -0.724979
      ESP Fit Center  643 is at   0.135755  4.765327 -0.724979
      ESP Fit Center  644 is at  -0.566117  4.427323 -0.724979
      ESP Fit Center  645 is at  -1.051828  3.818261 -0.724979
      ESP Fit Center  646 is at   1.081808  4.277434 -1.339652
      ESP Fit Center  647 is at   0.334601  4.384866 -1.339652
      ESP Fit Center  648 is at  -0.352071  4.071273 -1.339652
      ESP Fit Center  649 is at  -0.760196  3.436219 -1.339652
      ESP Fit Center  650 is at   0.162736  3.686691 -1.750363
      ESP Fit Center  651 is at  -0.199792  3.058774 -1.750363
      ESP Fit Center  652 is at   1.786977  2.173492  2.774132
      ESP Fit Center  653 is at   2.512033  2.173492  2.629909
      ESP Fit Center  654 is at   2.149505  2.801409  2.629909
      ESP Fit Center  655 is at   1.424449  2.801409  2.629909
      ESP Fit Center  656 is at   1.061921  2.173492  2.629909
      ESP Fit Center  657 is at   1.424449  1.545575  2.629909
      ESP Fit Center  658 is at   2.149505  1.545575  2.629909
      ESP Fit Center  659 is at   3.126706  2.173492  2.219198
      ESP Fit Center  660 is at   2.914029  2.897804  2.219198
      ESP Fit Center  661 is at   2.343521  3.392152  2.219198
      ESP Fit Center  662 is at   1.596314  3.499584  2.219198
      ESP Fit Center  663 is at   0.909641  3.185991  2.219198
      ESP Fit Center  664 is at   1.596314  0.847400  2.219198
      ESP Fit Center  665 is at   2.343521  0.954832  2.219198
      ESP Fit Center  666 is at   2.914029  1.449180  2.219198
      ESP Fit Center  667 is at   3.537417  2.173492  1.604525
      ESP Fit Center  668 is at   3.364069  2.932979  1.604525
      ESP Fit Center  669 is at   2.878359  3.542041  1.604525
      ESP Fit Center  670 is at   2.176487  3.880045  1.604525
      ESP Fit Center  671 is at   1.397468  3.880045  1.604525
      ESP Fit Center  672 is at   3.364069  1.414004  1.604525
      ESP Fit Center  673 is at   3.681640  2.173492  0.879469
      ESP Fit Center  674 is at   3.537417  2.898548  0.879469
      ESP Fit Center  675 is at   3.126706  3.513221  0.879469
      ESP Fit Center  676 is at   2.512033  3.923932  0.879469
      ESP Fit Center  677 is at   3.537417  2.173492  0.154413
      ESP Fit Center  678 is at   3.364069  2.932979  0.154413
      ESP Fit Center  679 is at  -1.214693  2.659007  1.750409
      ESP Fit Center  680 is at  -1.939749  2.659007  1.750409
      ESP Fit Center  681 is at  -1.020677  3.249750  1.339698
      ESP Fit Center  682 is at  -1.767884  3.357182  1.339698
      ESP Fit Center  683 is at  -2.454557  3.043590  1.339698
      ESP Fit Center  684 is at  -2.862681  2.408535  1.339698
      ESP Fit Center  685 is at  -1.187711  3.737643  0.725025
      ESP Fit Center  686 is at  -1.966730  3.737643  0.725025
      ESP Fit Center  687 is at  -2.668602  3.399639  0.725025
      ESP Fit Center  688 is at  -3.154313  2.790578  0.725025
      ESP Fit Center  689 is at  -1.577221  3.925753 -0.000031
      ESP Fit Center  690 is at  -2.302277  3.781530 -0.000031
      ESP Fit Center  691 is at  -2.916950  3.370819 -0.000031
      ESP Fit Center  692 is at  -1.187711  3.737643 -0.725087
      ESP Fit Center  693 is at  -1.966730  3.737643 -0.725087
      ESP Fit Center  694 is at  -2.668602  3.399639 -0.725087
      ESP Fit Center  695 is at  -3.154313  2.790578 -0.725087
      ESP Fit Center  696 is at  -1.020677  3.249750 -1.339760
      ESP Fit Center  697 is at  -1.767884  3.357182 -1.339760
      ESP Fit Center  698 is at  -2.454557  3.043590 -1.339760
      ESP Fit Center  699 is at  -2.862681  2.408535 -1.339760
      ESP Fit Center  700 is at  -1.214693  2.659007 -1.750471
      ESP Fit Center  701 is at  -1.939749  2.659007 -1.750471
      ESP Fit Center  702 is at  -2.780687 -2.235956  1.750445
      ESP Fit Center  703 is at  -2.418159 -2.863873  1.750445
      ESP Fit Center  704 is at  -3.341091 -1.858511  1.339734
      ESP Fit Center  705 is at  -3.341091 -2.613401  1.339734
      ESP Fit Center  706 is at  -2.932967 -3.248455  1.339734
      ESP Fit Center  707 is at  -2.246294 -3.562048  1.339734
      ESP Fit Center  708 is at  -1.499088 -3.454616  1.339734
      ESP Fit Center  709 is at  -3.806071 -2.235956  0.725061
      ESP Fit Center  710 is at  -3.632723 -2.995443  0.725061
      ESP Fit Center  711 is at  -3.147013 -3.604505  0.725061
      ESP Fit Center  712 is at  -2.445141 -3.942509  0.725061
      ESP Fit Center  713 is at  -1.666122 -3.942509  0.725061
      ESP Fit Center  714 is at  -0.964250 -3.604505  0.725061
      ESP Fit Center  715 is at  -3.950294 -2.235956  0.000005
      ESP Fit Center  716 is at  -3.806071 -2.961012  0.000005
      ESP Fit Center  717 is at  -3.395360 -3.575685  0.000005
      ESP Fit Center  718 is at  -2.780687 -3.986396  0.000005
      ESP Fit Center  719 is at  -2.055631 -4.130618  0.000005
      ESP Fit Center  720 is at  -1.330575 -3.986396  0.000005
      ESP Fit Center  721 is at  -3.806071 -2.235956 -0.725051
      ESP Fit Center  722 is at  -3.632723 -2.995443 -0.725051
      ESP Fit Center  723 is at  -3.147013 -3.604505 -0.725051
      ESP Fit Center  724 is at  -2.445141 -3.942509 -0.725051
      ESP Fit Center  725 is at  -1.666122 -3.942509 -0.725051
      ESP Fit Center  726 is at  -0.964250 -3.604505 -0.725051
      ESP Fit Center  727 is at  -3.341091 -1.858511 -1.339724
      ESP Fit Center  728 is at  -3.341091 -2.613401 -1.339724
      ESP Fit Center  729 is at  -2.932967 -3.248455 -1.339724
      ESP Fit Center  730 is at  -2.246294 -3.562048 -1.339724
      ESP Fit Center  731 is at  -1.499088 -3.454616 -1.339724
      ESP Fit Center  732 is at  -2.780687 -2.235956 -1.750435
      ESP Fit Center  733 is at  -2.418159 -2.863873 -1.750435
      ESP Fit Center  734 is at   0.068081 -3.120661  1.750444
      ESP Fit Center  735 is at   0.793137 -3.120661  1.750444
      ESP Fit Center  736 is at  -0.446727 -3.505243  1.339733
      ESP Fit Center  737 is at   0.239946 -3.818836  1.339733
      ESP Fit Center  738 is at   0.987152 -3.711404  1.339733
      ESP Fit Center  739 is at   1.557660 -3.217056  1.339733
      ESP Fit Center  740 is at  -0.660773 -3.861293  0.725060
      ESP Fit Center  741 is at   0.041099 -4.199297  0.725060
      ESP Fit Center  742 is at   0.820118 -4.199297  0.725060
      ESP Fit Center  743 is at   1.521990 -3.861293  0.725060
      ESP Fit Center  744 is at   2.007701 -3.252231  0.725060
      ESP Fit Center  745 is at  -0.909120 -3.832473  0.000004
      ESP Fit Center  746 is at  -0.294447 -4.243184  0.000004
      ESP Fit Center  747 is at   0.430609 -4.387407  0.000004
      ESP Fit Center  748 is at   1.155665 -4.243184  0.000004
      ESP Fit Center  749 is at   1.770338 -3.832473  0.000004
      ESP Fit Center  750 is at  -0.660773 -3.861293 -0.725052
      ESP Fit Center  751 is at   0.041099 -4.199297 -0.725052
      ESP Fit Center  752 is at   0.820118 -4.199297 -0.725052
      ESP Fit Center  753 is at   1.521990 -3.861293 -0.725052
      ESP Fit Center  754 is at   2.007701 -3.252231 -0.725052
      ESP Fit Center  755 is at  -0.446727 -3.505243 -1.339725
      ESP Fit Center  756 is at   0.239946 -3.818836 -1.339725
      ESP Fit Center  757 is at   0.987152 -3.711404 -1.339725
      ESP Fit Center  758 is at   1.557660 -3.217056 -1.339725
      ESP Fit Center  759 is at   0.068081 -3.120661 -1.750436
      ESP Fit Center  760 is at   0.793137 -3.120661 -1.750436
      ESP Fit Center  761 is at  -3.220665  1.567433  1.750499
      ESP Fit Center  762 is at  -3.945721  1.567433  1.750499
      ESP Fit Center  763 is at  -4.308249  0.939516  1.750499
      ESP Fit Center  764 is at  -3.026649  2.158176  1.339788
      ESP Fit Center  765 is at  -3.773856  2.265609  1.339788
      ESP Fit Center  766 is at  -4.460529  1.952016  1.339788
      ESP Fit Center  767 is at  -4.868653  1.316962  1.339788
      ESP Fit Center  768 is at  -3.972702  2.646069  0.725115
      ESP Fit Center  769 is at  -4.674574  2.308065  0.725115
      ESP Fit Center  770 is at  -5.160285  1.699004  0.725115
      ESP Fit Center  771 is at  -5.333633  0.939516  0.725115
      ESP Fit Center  772 is at  -3.583193  2.834179  0.000059
      ESP Fit Center  773 is at  -4.308249  2.689956  0.000059
      ESP Fit Center  774 is at  -4.922922  2.279245  0.000059
      ESP Fit Center  775 is at  -5.333633  1.664572  0.000059
      ESP Fit Center  776 is at  -5.477855  0.939516  0.000059
      ESP Fit Center  777 is at  -3.972702  2.646069 -0.724997
      ESP Fit Center  778 is at  -4.674574  2.308065 -0.724997
      ESP Fit Center  779 is at  -5.160285  1.699004 -0.724997
      ESP Fit Center  780 is at  -5.333633  0.939516 -0.724997
      ESP Fit Center  781 is at  -3.026649  2.158176 -1.339670
      ESP Fit Center  782 is at  -3.773856  2.265609 -1.339670
      ESP Fit Center  783 is at  -4.460529  1.952016 -1.339670
      ESP Fit Center  784 is at  -4.868653  1.316962 -1.339670
      ESP Fit Center  785 is at  -3.220665  1.567433 -1.750381
      ESP Fit Center  786 is at  -3.945721  1.567433 -1.750381
      ESP Fit Center  787 is at  -4.308249  0.939516 -1.750381
      ESP Fit Center  788 is at   0.390441  2.149439  2.529855
      ESP Fit Center  789 is at   0.420531  3.383944  2.218098
      ESP Fit Center  790 is at  -0.101232  2.862181  2.218098
      ESP Fit Center  791 is at   1.317132  4.133591  1.726645
      ESP Fit Center  792 is at   1.874416  4.430440  1.095309
      ESP Fit Center  793 is at   3.328793  3.560414  0.375237
      ESP Fit Center  794 is at   2.842341  4.121808  0.375237
      ESP Fit Center  795 is at   2.217431  4.523414  0.375237
      ESP Fit Center  796 is at   3.328793  3.560414 -0.375233
      ESP Fit Center  797 is at   2.842341  4.121808 -0.375233
      ESP Fit Center  798 is at   2.217431  4.523414 -0.375233
      ESP Fit Center  799 is at   1.874416  4.430440 -1.095305
      ESP Fit Center  800 is at   1.317132  4.133591 -1.726641
      ESP Fit Center  801 is at   0.420531  3.383944 -2.218094
      ESP Fit Center  802 is at  -0.101232  2.862181 -2.218094
      ESP Fit Center  803 is at   0.390441  2.149439 -2.529851
[...]
 1612 Fit       0.007939
 1613 Fit       0.009743
 1614 Fit       0.011879
 1615 Fit       0.014426
 1616 Fit       0.009106
 1617 Fit       0.010996
 1618 Fit       0.011803
 1619 Fit       0.001644
 1620 Fit       0.001291
 1621 Fit       0.003292
 1622 Fit       0.003481
 1623 Fit       0.001611
 1624 Fit      -0.000851
 1625 Fit      -0.001076
 1626 Fit       0.000458
 1627 Fit       0.003024
 1628 Fit       0.004420
 1629 Fit       0.004995
 1630 Fit       0.004800
 1631 Fit      -0.003165
 1632 Fit      -0.000807
 1633 Fit       0.002089
 1634 Fit       0.003885
 1635 Fit       0.004999
 1636 Fit       0.005790
 1637 Fit      -0.002344
 1638 Fit       0.001014
 1639 Fit       0.003139
 1640 Fit       0.004553
 1641 Fit       0.005669
 1642 Fit      -0.003881
 1643 Fit       0.000029
 1644 Fit       0.002497
 1645 Fit       0.004200
 1646 Fit       0.012124
 1647 Fit       0.014900
 1648 Fit       0.017652
 1649 Fit       0.020197
 1650 Fit       0.017766
 1651 Fit       0.019849
 1652 Fit       0.023502
 1653 Fit       0.020312
 1654 Fit       0.022281
 1655 Fit       0.026415
 1656 Fit       0.020942
 1657 Fit       0.022227
 1658 Fit       0.025613
 1659 Fit       0.032575
 1660 Fit       0.020311
 1661 Fit       0.022281
 1662 Fit       0.026414
 1663 Fit       0.017765
 1664 Fit       0.019848
 1665 Fit       0.023500
 1666 Fit       0.012123
 1667 Fit       0.014899
 1668 Fit       0.017650
 1669 Fit       0.020193
 1670 Fit      -0.005172
 1671 Fit      -0.000938
 1672 Fit       0.000786
 1673 Fit      -0.003425
 1674 Fit       0.000778
 1675 Fit       0.003037
 1676 Fit       0.004164
 1677 Fit       0.004822
 1678 Fit      -0.008277
 1679 Fit      -0.001409
 1680 Fit       0.002395
 1681 Fit       0.004568
 1682 Fit       0.005898
 1683 Fit       0.007165
 1684 Fit      -0.004712
 1685 Fit       0.000702
 1686 Fit       0.003773
 1687 Fit       0.005587
 1688 Fit       0.006867
 1689 Fit       0.008530
 1690 Fit      -0.008277
 1691 Fit      -0.001409
 1692 Fit       0.002395
 1693 Fit       0.004568
 1694 Fit       0.005898
 1695 Fit       0.007165
 1696 Fit      -0.003425
 1697 Fit       0.000777
 1698 Fit       0.003037
 1699 Fit       0.004164
 1700 Fit       0.004822
 1701 Fit      -0.005172
 1702 Fit      -0.000938
 1703 Fit       0.000786
 1704 Fit       0.002076
 1705 Fit       0.000637
 1706 Fit      -0.003398
 1707 Fit       0.005346
 1708 Fit       0.004741
 1709 Fit       0.003080
 1710 Fit      -0.000254
 1711 Fit       0.007640
 1712 Fit       0.006713
 1713 Fit       0.005355
 1714 Fit       0.002918
 1715 Fit      -0.001386
 1716 Fit       0.009618
 1717 Fit       0.008078
 1718 Fit       0.007009
 1719 Fit       0.005460
 1720 Fit       0.002783
 1721 Fit       0.007640
 1722 Fit       0.006713
 1723 Fit       0.005355
 1724 Fit       0.002918
 1725 Fit      -0.001386
 1726 Fit       0.005346
 1727 Fit       0.004741
 1728 Fit       0.003080
 1729 Fit      -0.000254
 1730 Fit       0.002076
 1731 Fit       0.000637
 1732 Fit      -0.003398
 1733 Fit       0.013576
 1734 Fit       0.022388
 1735 Fit       0.019261
 1736 Fit       0.012167
 1737 Fit       0.028885
 1738 Fit       0.026805
 1739 Fit       0.023032
 1740 Fit       0.017183
 1741 Fit       0.032553
 1742 Fit       0.029774
 1743 Fit       0.026182
 1744 Fit       0.021183
 1745 Fit       0.014270
 1746 Fit       0.034823
 1747 Fit       0.031768
 1748 Fit       0.028499
 1749 Fit       0.024182
 1750 Fit       0.018307
 1751 Fit       0.010344
 1752 Fit       0.032552
 1753 Fit       0.029773
 1754 Fit       0.026182
 1755 Fit       0.021182
 1756 Fit       0.014269
 1757 Fit       0.028884
 1758 Fit       0.026803
 1759 Fit       0.023030
 1760 Fit       0.017181
 1761 Fit       0.022387
 1762 Fit       0.019259
 1763 Fit       0.012164
 1764 Fit       0.013573
 1765 Fit       0.000826
 1766 Fit       0.004849
 1767 Fit       0.003864
 1768 Fit       0.005672
 1769 Fit       0.006502
 1770 Fit       0.007237
 1771 Fit       0.006955
 1772 Fit       0.005485
 1773 Fit       0.006533
 1774 Fit       0.004840
 1775 Fit       0.005908
 1776 Fit       0.003152
 1777 Fit       0.004323
 1778 Fit       0.005536
 1779 Fit      -0.001276
 1780 Fit       0.001158
 1781 Fit       0.002795
 1782 Fit       0.004059
 1783 Fit       0.005309
 1784 Fit       0.006873
 1785 Fit       0.003152
 1786 Fit       0.004324
 1787 Fit       0.005536
 1788 Fit       0.004840
 1789 Fit       0.005908
 1790 Fit       0.005485
 1791 Fit       0.006533
 1792 Fit       0.005672
 1793 Fit       0.006501
 1794 Fit       0.007236
 1795 Fit       0.006954
 1796 Fit       0.004849
 1797 Fit       0.003863
 1798 Fit       0.000826
 1799 Fit      -0.005475
 1800 Fit      -0.004892
 1801 Fit      -0.001926
 1802 Fit      -0.002687
 1803 Fit      -0.008722
 1804 Fit      -0.008335
 1805 Fit      -0.004893
 1806 Fit      -0.001927
 1807 Fit      -0.002688
 1808 Fit      -0.008723
 1809 Fit      -0.008335
 1810 Fit      -0.005476
 1811 Fit      -0.004379
 1812 Fit      -0.001827
 1813 Fit      -0.000223
 1814 Fit      -0.002479
 1815 Fit      -0.008020
 1816 Fit       0.001219
 1817 Fit       0.003381
 1818 Fit       0.004613
 1819 Fit       0.003983
 1820 Fit       0.007142
 1821 Fit       0.009053
 1822 Fit       0.010557
 1823 Fit       0.010806
 1824 Fit       0.007142
 1825 Fit       0.009053
 1826 Fit       0.010556
 1827 Fit       0.010804
 1828 Fit       0.001219
 1829 Fit       0.003380
 1830 Fit       0.004612
 1831 Fit       0.003981
 1832 Fit      -0.001828
 1833 Fit      -0.000224
 1834 Fit      -0.002480
 1835 Fit      -0.008021
 1836 Fit      -0.004379
 1837 Fit      -0.006999
 1838 Fit      -0.008891
 1839 Fit      -0.003675
 1840 Fit      -0.006001
 1841 Fit      -0.008282
 1842 Fit       0.001260
 1843 Fit      -0.009051
 1844 Fit       0.001258
 1845 Fit      -0.009052
 1846 Fit      -0.008891
 1847 Fit      -0.003677
 1848 Fit      -0.006003
 1849 Fit      -0.008283
 1850 Fit      -0.007000
 1851 Fit      -0.009309
 1852 Fit      -0.010383
 1853 Fit      -0.008714
 1854 Fit      -0.007833
 1855 Fit      -0.008505
 1856 Fit      -0.009054
 1857 Fit      -0.007341
 1858 Fit      -0.005833
 1859 Fit      -0.005563
 1860 Fit      -0.009743
 1861 Fit      -0.006319
 1862 Fit      -0.003812
 1863 Fit      -0.002635
 1864 Fit      -0.002557
 1865 Fit      -0.007073
 1866 Fit       0.001028
 1867 Fit       0.004485
 1868 Fit       0.004485
 1869 Fit      -0.007074
 1870 Fit       0.001028
 1871 Fit      -0.009744
 1872 Fit      -0.006319
 1873 Fit      -0.003812
 1874 Fit      -0.002635
 1875 Fit      -0.002558
 1876 Fit      -0.009054
 1877 Fit      -0.007342
 1878 Fit      -0.005833
 1879 Fit      -0.005563
 1880 Fit      -0.010383
 1881 Fit      -0.008715
 1882 Fit      -0.007834
 1883 Fit      -0.008505
 1884 Fit      -0.009310
 1885 Fit      -0.009692
 1886 Fit      -0.010015
 1887 Fit      -0.010883
 1888 Fit      -0.008132
 1889 Fit      -0.008053
 1890 Fit      -0.006013
 1891 Fit      -0.005060
 1892 Fit      -0.006024
 1893 Fit      -0.002210
 1894 Fit      -0.001928
 1895 Fit      -0.003223
 1896 Fit       0.001428
 1897 Fit       0.001428
 1898 Fit      -0.002210
 1899 Fit      -0.001928
 1900 Fit      -0.003223
 1901 Fit      -0.006013
 1902 Fit      -0.005060
 1903 Fit      -0.006025
 1904 Fit      -0.010015
 1905 Fit      -0.010884
 1906 Fit      -0.008132
 1907 Fit      -0.008053
 1908 Fit      -0.009692
 1909 Fit      -0.010025
 1910 Fit      -0.008746
 1911 Fit      -0.010548
 1912 Fit      -0.008746
 1913 Fit      -0.010548
 1914 Fit      -0.010025
 1915 Fit      -0.009466
 1916 Fit      -0.009622
 1917 Fit      -0.008551
 1918 Fit      -0.008214
 1919 Fit      -0.009345
 1920 Fit      -0.009825
 1921 Fit      -0.010026
 1922 Fit      -0.009482
 1923 Fit      -0.008627
 1924 Fit      -0.007189
 1925 Fit      -0.005727
 1926 Fit      -0.006018
 1927 Fit      -0.008169
 1928 Fit      -0.009878
 1929 Fit      -0.009888
 1930 Fit      -0.009478
 1931 Fit      -0.009735
 1932 Fit      -0.010069
 1933 Fit      -0.009961
 1934 Fit      -0.008955
 1935 Fit      -0.008399
 1936 Fit      -0.007399
 1937 Fit      -0.005541
 1938 Fit      -0.008141
 1939 Fit      -0.008471
 1940 Fit      -0.009280
 1941 Fit      -0.009749
 1942 Fit      -0.009715
 1943 Fit      -0.009383
 1944 Fit      -0.008132
 1945 Fit      -0.007796
 1946 Fit      -0.007220
 1947 Fit      -0.005954
 1948 Fit      -0.003388
 1949 Fit      -0.005621
 1950 Fit      -0.007110
 1951 Fit      -0.008477
 1952 Fit      -0.009173
 1953 Fit      -0.009229
 1954 Fit      -0.008907
 1955 Fit      -0.008488
 1956 Fit      -0.007209
 1957 Fit      -0.007029
 1958 Fit      -0.006738
 1959 Fit      -0.005920
 1960 Fit      -0.003962
 1961 Fit      -0.004369
 1962 Fit      -0.006891
 1963 Fit      -0.008278
 1964 Fit      -0.008691
 1965 Fit      -0.008472
 1966 Fit      -0.007982
 1967 Fit      -0.007513
 1968 Fit      -0.006422
 1969 Fit      -0.006354
 1970 Fit      -0.006278
 1971 Fit      -0.005869
 1972 Fit      -0.004693
 1973 Fit      -0.004898
 1974 Fit      -0.007168
 1975 Fit      -0.008101
 1976 Fit      -0.008148
 1977 Fit      -0.007713
 1978 Fit      -0.007139
 1979 Fit      -0.006670
 1980 Fit      -0.005970
 1981 Fit      -0.005958
 1982 Fit      -0.005979
 1983 Fit      -0.005733
 1984 Fit      -0.004846
 1985 Fit      -0.002938
 1986 Fit      -0.004847
 1987 Fit      -0.007078
 1988 Fit      -0.007885
 1989 Fit      -0.007813
 1990 Fit      -0.007294
 1991 Fit      -0.006675
 1992 Fit      -0.006197
 1993 Fit      -0.005970
 1994 Fit      -0.005958
 1995 Fit      -0.005979
 1996 Fit      -0.005733
 1997 Fit      -0.004846
 1998 Fit      -0.002938
 1999 Fit      -0.004847
 2000 Fit      -0.007078
 2001 Fit      -0.007885
 2002 Fit      -0.007813
 2003 Fit      -0.007294
 2004 Fit      -0.006675
 2005 Fit      -0.006197
 2006 Fit      -0.006422
 2007 Fit      -0.006354
 2008 Fit      -0.006278
 2009 Fit      -0.005869
 2010 Fit      -0.004693
 2011 Fit      -0.004898
 2012 Fit      -0.007169
 2013 Fit      -0.008101
 2014 Fit      -0.008148
 2015 Fit      -0.007713
 2016 Fit      -0.007139
 2017 Fit      -0.006671
 2018 Fit      -0.007209
 2019 Fit      -0.007029
 2020 Fit      -0.006738
 2021 Fit      -0.005920
 2022 Fit      -0.003962
 2023 Fit      -0.004369
 2024 Fit      -0.006891
 2025 Fit      -0.008278
 2026 Fit      -0.008692
 2027 Fit      -0.008472
 2028 Fit      -0.007983
 2029 Fit      -0.007513
 2030 Fit      -0.008132
 2031 Fit      -0.007796
 2032 Fit      -0.007220
 2033 Fit      -0.005954
 2034 Fit      -0.003388
 2035 Fit      -0.005621
 2036 Fit      -0.007110
 2037 Fit      -0.008477
 2038 Fit      -0.009174
 2039 Fit      -0.009229
 2040 Fit      -0.008907
 2041 Fit      -0.008489
 2042 Fit      -0.008956
 2043 Fit      -0.008399
 2044 Fit      -0.007399
 2045 Fit      -0.005541
 2046 Fit      -0.008141
 2047 Fit      -0.008471
 2048 Fit      -0.009281
 2049 Fit      -0.009750
 2050 Fit      -0.009715
 2051 Fit      -0.009383
 2052 Fit      -0.009482
 2053 Fit      -0.008628
 2054 Fit      -0.007190
 2055 Fit      -0.005727
 2056 Fit      -0.006019
 2057 Fit      -0.008170
 2058 Fit      -0.009878
 2059 Fit      -0.009889
 2060 Fit      -0.009478
 2061 Fit      -0.009735
 2062 Fit      -0.010069
 2063 Fit      -0.009962
 2064 Fit      -0.009622
 2065 Fit      -0.008551
 2066 Fit      -0.008214
 2067 Fit      -0.009345
 2068 Fit      -0.009825
 2069 Fit      -0.010026
 2070 Fit      -0.009466
 2071 Fit      -0.005416
 2072 Fit      -0.000600
 2073 Fit      -0.004959
 2074 Fit      -0.008343
 2075 Fit       0.006801
 2076 Fit       0.005873
 2077 Fit       0.001174
 2078 Fit      -0.004460
 2079 Fit      -0.008589
 2080 Fit      -0.010234
 2081 Fit      -0.010265
 2082 Fit       0.005985
 2083 Fit      -0.000724
 2084 Fit      -0.006343
 2085 Fit      -0.009942
 2086 Fit      -0.011175
 2087 Fit      -0.010446
 2088 Fit       0.007775
 2089 Fit       0.000338
 2090 Fit      -0.005702
 2091 Fit      -0.009805
 2092 Fit      -0.011657
 2093 Fit      -0.011139
 2094 Fit       0.004973
 2095 Fit      -0.002143
 2096 Fit      -0.007530
 2097 Fit      -0.010921
 2098 Fit      -0.012074
 2099 Fit      -0.010728
 2100 Fit       0.001813
 2101 Fit      -0.004753
 2102 Fit      -0.009386
 2103 Fit      -0.011866
 2104 Fit      -0.011905
 2105 Fit      -0.008991
 2106 Fit       0.001813
 2107 Fit      -0.004753
 2108 Fit      -0.009387
 2109 Fit      -0.011866
 2110 Fit      -0.011905
 2111 Fit      -0.008991
 2112 Fit       0.004972
 2113 Fit      -0.002144
 2114 Fit      -0.007531
 2115 Fit      -0.010921
 2116 Fit      -0.012074
 2117 Fit      -0.010728
 2118 Fit       0.007772
 2119 Fit       0.000336
 2120 Fit      -0.005704
 2121 Fit      -0.009806
 2122 Fit      -0.011658
 2123 Fit      -0.011140
 2124 Fit       0.005982
 2125 Fit      -0.000726
 2126 Fit      -0.006345
 2127 Fit      -0.009943
 2128 Fit      -0.011176
 2129 Fit      -0.010447
 2130 Fit       0.006797
 2131 Fit       0.005870
 2132 Fit       0.001171
 2133 Fit      -0.004463
 2134 Fit      -0.008591
 2135 Fit      -0.010235
 2136 Fit      -0.010266
 2137 Fit      -0.000603
 2138 Fit      -0.004961
 2139 Fit      -0.008344
 2140 Fit      -0.005418
 2141 Fit      -0.000780
 2142 Fit      -0.000236
 2143 Fit       0.001981
 2144 Fit       0.003564
 2145 Fit      -0.002343
 2146 Fit       0.000506
 2147 Fit       0.002429
 2148 Fit       0.003784
 2149 Fit       0.004860
 2150 Fit      -0.001154
 2151 Fit       0.001425
 2152 Fit       0.003124
 2153 Fit       0.004259
 2154 Fit       0.005101
 2155 Fit      -0.000156
 2156 Fit       0.002174
 2157 Fit       0.003565
 2158 Fit       0.004235
 2159 Fit       0.004123
 2160 Fit      -0.003254
 2161 Fit       0.000548
 2162 Fit       0.002430
 2163 Fit       0.002728
 2164 Fit       0.001037
 2165 Fit      -0.001278
 2166 Fit      -0.001532
 2167 Fit       0.000926
 2168 Fit       0.008097
 2169 Fit       0.009610
 2170 Fit       0.008656
 2171 Fit       0.010474
 2172 Fit       0.012611
 2173 Fit       0.007774
 2174 Fit       0.009323
 2175 Fit       0.011168
 2176 Fit       0.013499
 2177 Fit       0.016774
 2178 Fit       0.007661
 2179 Fit       0.009234
 2180 Fit       0.011093
 2181 Fit       0.013441
 2182 Fit       0.016847
 2183 Fit       0.007661
 2184 Fit       0.009234
 2185 Fit       0.011093
 2186 Fit       0.013441
 2187 Fit       0.016847
 2188 Fit       0.007774
 2189 Fit       0.009323
 2190 Fit       0.011168
 2191 Fit       0.013499
 2192 Fit       0.016774
 2193 Fit       0.008655
 2194 Fit       0.010474
 2195 Fit       0.012611
 2196 Fit       0.008097
 2197 Fit       0.009610
 2198 Fit       0.000926
 2199 Fit       0.000548
 2200 Fit       0.002430
 2201 Fit       0.002728
 2202 Fit       0.001036
 2203 Fit      -0.001278
 2204 Fit      -0.001532
 2205 Fit      -0.000156
 2206 Fit       0.002173
 2207 Fit       0.003565
 2208 Fit       0.004235
 2209 Fit       0.004123
 2210 Fit      -0.003254
 2211 Fit      -0.001154
 2212 Fit       0.001424
 2213 Fit       0.003123
 2214 Fit       0.004258
 2215 Fit       0.005101
 2216 Fit      -0.002344
 2217 Fit       0.000506
 2218 Fit       0.002428
 2219 Fit       0.003784
 2220 Fit       0.004860
 2221 Fit      -0.000236
 2222 Fit       0.001980
 2223 Fit       0.003563
 2224 Fit      -0.000781
 2225 Fit       0.012720
 2226 Fit       0.014919
 2227 Fit       0.015240
 2228 Fit       0.017109
 2229 Fit       0.020007
 2230 Fit       0.017487
 2231 Fit       0.018835
 2232 Fit       0.021531
 2233 Fit       0.026368
 2234 Fit       0.019398
 2235 Fit       0.021718
 2236 Fit       0.026279
 2237 Fit       0.019397
 2238 Fit       0.021717
 2239 Fit       0.026278
 2240 Fit       0.017486
 2241 Fit       0.018834
 2242 Fit       0.021530
 2243 Fit       0.026366
 2244 Fit       0.015239
 2245 Fit       0.017108
 2246 Fit       0.020005
 2247 Fit       0.012720
 2248 Fit       0.014917
 2249 Fit      -0.001937
 2250 Fit      -0.000445
 2251 Fit      -0.004072
 2252 Fit      -0.000484
 2253 Fit       0.001508
 2254 Fit       0.002497
 2255 Fit      -0.005165
 2256 Fit      -0.000779
 2257 Fit       0.001831
 2258 Fit       0.003410
 2259 Fit       0.004466
 2260 Fit       0.005547
 2261 Fit      -0.002807
 2262 Fit       0.000935
 2263 Fit       0.003176
 2264 Fit       0.004603
 2265 Fit       0.005775
 2266 Fit       0.007504
 2267 Fit      -0.002807
 2268 Fit       0.000934
 2269 Fit       0.003176
 2270 Fit       0.004603
 2271 Fit       0.005775
 2272 Fit       0.007504
 2273 Fit      -0.005166
 2274 Fit      -0.000779
 2275 Fit       0.001831
 2276 Fit       0.003410
 2277 Fit       0.004466
 2278 Fit       0.005547
 2279 Fit      -0.004073
 2280 Fit      -0.000484
 2281 Fit       0.001508
 2282 Fit       0.002497
 2283 Fit      -0.001937
 2284 Fit      -0.000446
 2285 Fit       0.000519
 2286 Fit      -0.000792
 2287 Fit       0.003392
 2288 Fit       0.002883
 2289 Fit       0.001357
 2290 Fit      -0.001635
 2291 Fit       0.006174
 2292 Fit       0.005399
 2293 Fit       0.004559
 2294 Fit       0.003177
 2295 Fit       0.000813
 2296 Fit       0.007310
 2297 Fit       0.006169
 2298 Fit       0.005103
 2299 Fit       0.003501
 2300 Fit       0.000852
 2301 Fit       0.007310
 2302 Fit       0.006169
 2303 Fit       0.005103
 2304 Fit       0.003501
 2305 Fit       0.000852
 2306 Fit       0.006174
 2307 Fit       0.005399
 2308 Fit       0.004559
 2309 Fit       0.003177
 2310 Fit       0.000813
 2311 Fit       0.003392
 2312 Fit       0.002883
 2313 Fit       0.001357
 2314 Fit      -0.001635
 2315 Fit       0.000519
 2316 Fit      -0.000792
 2317 Fit       0.017974
 2318 Fit       0.015435
 2319 Fit       0.009572
 2320 Fit       0.023621
 2321 Fit       0.022001
 2322 Fit       0.018784
 2323 Fit       0.013796
 2324 Fit       0.027854
 2325 Fit       0.025741
 2326 Fit       0.023045
 2327 Fit       0.019366
 2328 Fit       0.014383
 2329 Fit       0.028178
 2330 Fit       0.025486
 2331 Fit       0.022149
 2332 Fit       0.017741
 2333 Fit       0.011911
 2334 Fit       0.028178
 2335 Fit       0.025485
 2336 Fit       0.022149
 2337 Fit       0.017741
 2338 Fit       0.011910
 2339 Fit       0.027854
 2340 Fit       0.025741
 2341 Fit       0.023044
 2342 Fit       0.019365
 2343 Fit       0.014382
 2344 Fit       0.023620
 2345 Fit       0.021999
 2346 Fit       0.018783
 2347 Fit       0.013795
 2348 Fit       0.017972
 2349 Fit       0.015433
 2350 Fit       0.009570
 -----------------------------------------------------------------
 Leave Link  602 at Thu Jan 16 21:47:04 2014, MaxMem=   235929600 cpu:         0.5

 Test job not archived.
 1\1\GINC-G42\SP\RHF\Gen\C7H7Cl1O1\KOLAR\16-Jan-2014\0\\# hf/gen pop=mk
  iop(6/33=2,6/41=5,6/42=2)\\na resp\\0,1\C,0,-1.133273,2.149439,-0.000
 002\C,0,-0.261444,0.919518,0.000025\C,0,1.134449,1.036123,-0.000006\C,
 0,1.964561,-0.088014,0.000002\C,0,1.404259,-1.36833,-0.000003\C,0,0.02
 0327,-1.506047,-0.000006\C,0,-0.796771,-0.375718,0.000028\Cl,0,-2.5475
 03,-0.60468,-0.000006\O,0,3.328587,0.003745,0.000001\H,0,-1.786986,2.1
 736,0.879451\H,0,-0.525264,3.058774,-0.000077\H,0,-1.786977,2.173492,-
 0.879469\H,0,1.577221,2.03109,0.000031\H,0,2.055631,-2.235956,-0.00000
 5\H,0,-0.430609,-2.492744,-0.000004\H,0,3.583193,0.939516,-0.000059\\V
 ersion=AM64L-G09RevD.01\State=1-A\HF=-803.4895798\RMSD=8.805e-09\Dipol
 e=0.5623686,0.7892213,-0.0000389\Quadrupole=-2.511206,5.6132398,-3.102
 0339,2.9511728,-0.000274,-0.0000558\PG=C01 [X(C7H7Cl1O1)]\\@


 Until you make peace with who you are,
 you'll never be content with what you have.
                           -- Doris Mortman
 Job cpu time:       0 days  0 hours  0 minutes 10.8 seconds.
 File lengths (MBytes):  RWF=     10 Int=      0 D2E=      0 Chk=      2 Scr=      1
 Normal termination of Gaussian 09 at Thu Jan 16 21:47:05 2014.
10.25user 0.55system 0:18.08elapsed 59%CPU (0avgtext+0avgdata 1965744maxresident)k
274920inputs+21432outputs (13major+275452minor)pagefaults 0swaps
