Linux g30 2.6.38.6-client #1 SMP Tue Jun 12 11:27:21 CEST 2012 x86_64 GNU/Linux
Thu Jan 16 21:46:47 CET 2014

 Entering Gaussian System, Link 0=/usr/local/programs/common/gaussian/gaussian09_d01/arch/amd64-pgi_10.4.0-acml/g09/g09
 Initial command:
 /usr/local/programs/common/gaussian/gaussian09_d01/arch/amd64-pgi_10.4.0-acml/g09/l1.exe "/scratch/kolar/g09_17455/Gau-3039.inp" -scrdir="/scratch/kolar/g09_17455/"
 Entering Link 1 = /usr/local/programs/common/gaussian/gaussian09_d01/arch/amd64-pgi_10.4.0-acml/g09/l1.exe PID=      3045.
  
 Copyright (c) 1988,1990,1992,1993,1995,1998,2003,2009,2013,
            Gaussian, Inc.  All Rights Reserved.
  
 This is part of the Gaussian(R) 09 program.  It is based on
 the Gaussian(R) 03 system (copyright 2003, Gaussian, Inc.),
 the Gaussian(R) 98 system (copyright 1998, Gaussian, Inc.),
 the Gaussian(R) 94 system (copyright 1995, Gaussian, Inc.),
 the Gaussian 92(TM) system (copyright 1992, Gaussian, Inc.),
 the Gaussian 90(TM) system (copyright 1990, Gaussian, Inc.),
 the Gaussian 88(TM) system (copyright 1988, Gaussian, Inc.),
 the Gaussian 86(TM) system (copyright 1986, Carnegie Mellon
 University), and the Gaussian 82(TM) system (copyright 1983,
 Carnegie Mellon University). Gaussian is a federally registered
 trademark of Gaussian, Inc.
  
 This software contains proprietary and confidential information,
 including trade secrets, belonging to Gaussian, Inc.
  
 This software is provided under written license and may be
 used, copied, transmitted, or stored only in accord with that
 written license.
  
 The following legend is applicable only to US Government
 contracts under FAR:
  
                    RESTRICTED RIGHTS LEGEND
  
 Use, reproduction and disclosure by the US Government is
 subject to restrictions as set forth in subparagraphs (a)
 and (c) of the Commercial Computer Software - Restricted
 Rights clause in FAR 52.227-19.
  
 Gaussian, Inc.
 340 Quinnipiac St., Bldg. 40, Wallingford CT 06492
  
  
 ---------------------------------------------------------------
 Warning -- This program may not be used in any manner that
 competes with the business of Gaussian, Inc. or will provide
 assistance to any competitor of Gaussian, Inc.  The licensee
 of this program is prohibited from giving any competitor of
 Gaussian, Inc. access to this program.  By using this program,
 the user acknowledges that Gaussian, Inc. is engaged in the
 business of creating and licensing software in the field of
 computational chemistry and represents and warrants to the
 licensee that it is not a competitor of Gaussian, Inc. and that
 it will not use this program in any manner prohibited above.
 ---------------------------------------------------------------
  

 Cite this work as:
 Gaussian 09, Revision D.01,
 M. J. Frisch, G. W. Trucks, H. B. Schlegel, G. E. Scuseria, 
 M. A. Robb, J. R. Cheeseman, G. Scalmani, V. Barone, B. Mennucci, 
 G. A. Petersson, H. Nakatsuji, M. Caricato, X. Li, H. P. Hratchian, 
 A. F. Izmaylov, J. Bloino, G. Zheng, J. L. Sonnenberg, M. Hada, 
 M. Ehara, K. Toyota, R. Fukuda, J. Hasegawa, M. Ishida, T. Nakajima, 
 Y. Honda, O. Kitao, H. Nakai, T. Vreven, J. A. Montgomery, Jr., 
 J. E. Peralta, F. Ogliaro, M. Bearpark, J. J. Heyd, E. Brothers, 
 K. N. Kudin, V. N. Staroverov, T. Keith, R. Kobayashi, J. Normand, 
 K. Raghavachari, A. Rendell, J. C. Burant, S. S. Iyengar, J. Tomasi, 
 M. Cossi, N. Rega, J. M. Millam, M. Klene, J. E. Knox, J. B. Cross, 
 V. Bakken, C. Adamo, J. Jaramillo, R. Gomperts, R. E. Stratmann, 
 O. Yazyev, A. J. Austin, R. Cammi, C. Pomelli, J. W. Ochterski, 
 R. L. Martin, K. Morokuma, V. G. Zakrzewski, G. A. Voth, 
 P. Salvador, J. J. Dannenberg, S. Dapprich, A. D. Daniels, 
 O. Farkas, J. B. Foresman, J. V. Ortiz, J. Cioslowski, 
 and D. J. Fox, Gaussian, Inc., Wallingford CT, 2013.
 
 ******************************************
 Gaussian 09:  AM64L-G09RevD.01 24-Apr-2013
                16-Jan-2014 
 ******************************************
 %mem=1800mb
 -----------------------------------------
 # hf/gen pop=mk iop(6/33=2,6/41=5,6/42=2)
 -----------------------------------------
 1/38=1/1;
 2/12=2,17=6,18=5,40=1/2;
 3/5=7,11=9,16=1,25=1,30=1/1,2,3;
 4//1;
 5/5=2,38=5/2;
 6/7=2,8=2,9=2,10=2,15=8,20=1,28=1,33=2,41=5,42=2/1,2;
 99/5=1,9=1/99;
 -------
 na resp
 -------
 Symbolic Z-matrix:
 Charge =  0 Multiplicity = 1
 6                     1.14129   2.99459   0.34851 
 6                     1.68777   1.63557   0.06119 
 7                     2.86576   1.41591  -0.52296 
 6                     3.00198   0.06963  -0.59871 
 6                     1.89327  -0.54714  -0.05525 
 7                     1.04463   0.47054   0.37645 
 6                    -0.2694    0.35408   1.01147 
 6                    -1.39504   0.13848  -0.00815 
 1                    -1.12279  -0.70185  -0.65942 
 6                    -2.68922  -0.21568   0.72553 
 17                   -4.04995  -0.42663  -0.46052 
 8                    -1.51441   1.34344  -0.7452 
 7                     1.63736  -1.93628   0.05189 
 8                     2.52357  -2.69882  -0.33984 
 8                     0.54901  -2.31124   0.52371 
 1                     1.05361   3.1786    1.42714 
 1                     1.83329   3.72894  -0.0673 
 1                     0.15294   3.12707  -0.10144 
 1                     3.86681  -0.41171  -1.03181 
 1                    -0.23578  -0.47343   1.71786 
 1                    -0.4527    1.2841    1.55465 
 1                    -2.59538  -1.15878   1.26679 
 1                    -2.99315   0.58346   1.40508 
 1                    -2.18118   1.20097  -1.43717 
 
                          Input orientation:                          
 ---------------------------------------------------------------------
 Center     Atomic      Atomic             Coordinates (Angstroms)
 Number     Number       Type             X           Y           Z
 ---------------------------------------------------------------------
      1          6           0        1.141294    2.994586    0.348506
      2          6           0        1.687774    1.635568    0.061194
      3          7           0        2.865762    1.415909   -0.522959
      4          6           0        3.001976    0.069627   -0.598709
      5          6           0        1.893267   -0.547144   -0.055251
      6          7           0        1.044632    0.470538    0.376449
      7          6           0       -0.269400    0.354079    1.011472
      8          6           0       -1.395042    0.138484   -0.008146
      9          1           0       -1.122785   -0.701850   -0.659415
     10          6           0       -2.689221   -0.215678    0.725531
     11         17           0       -4.049951   -0.426627   -0.460524
     12          8           0       -1.514412    1.343435   -0.745200
     13          7           0        1.637361   -1.936279    0.051885
     14          8           0        2.523565   -2.698815   -0.339844
     15          8           0        0.549011   -2.311245    0.523707
     16          1           0        1.053612    3.178598    1.427136
     17          1           0        1.833288    3.728938   -0.067299
     18          1           0        0.152944    3.127070   -0.101439
     19          1           0        3.866807   -0.411708   -1.031814
     20          1           0       -0.235775   -0.473430    1.717858
     21          1           0       -0.452702    1.284104    1.554652
     22          1           0       -2.595375   -1.158782    1.266787
     23          1           0       -2.993150    0.583457    1.405078
     24          1           0       -2.181183    1.200967   -1.437166
 ---------------------------------------------------------------------
                    Distance matrix (angstroms):
                    1          2          3          4          5
     1  C    0.000000
     2  C    1.492688   0.000000
     3  N    2.495088   1.333094   0.000000
     4  C    3.593708   2.148202   1.355274   0.000000
     5  C    3.643122   2.195454   2.240106   1.380213   0.000000
     6  N    2.526053   1.367594   2.240352   2.223254   1.393637
     7  C    3.066245   2.525029   3.648452   3.657253   2.574341
     8  C    3.836342   3.427801   4.477868   4.437034   3.359357
     9  H    4.450348   3.725861   4.517968   4.196727   3.079857
    10  C    5.012064   4.798598   5.922722   5.850191   4.660331
    11  Cl   6.269629   6.119340   7.157229   7.070717   5.958239
    12  O    3.312894   3.315058   4.386407   4.694870   3.957600
    13  N    4.964624   3.572215   3.616155   2.511793   1.416567
    14  O    5.899094   4.432410   4.132987   2.821375   2.260079
    15  O    5.341661   4.133767   4.511599   3.597973   2.292219
    16  H    1.097721   2.156131   3.192778   4.191166   4.096785
    17  H    1.091340   2.102352   2.573661   3.877987   4.276520
    18  H    1.094001   2.146330   3.234986   4.208589   4.065797
    19  H    4.575647   3.183424   2.145043   1.080368   2.206100
    20  H    3.974743   3.300371   4.267364   4.018013   2.771673
    21  H    2.630848   2.633549   3.917403   4.248143   3.383612
    22  H    5.661837   5.254257   6.297320   6.026558   4.719088
    23  H    4.901379   4.982370   6.223918   6.341981   5.223781
    24  H    4.176667   4.171665   5.133579   5.371041   4.643999
                    6          7          8          9         10
     6  N    0.000000
     7  C    1.464069   0.000000
     8  C    2.492024   1.534005   0.000000
     9  H    2.673051   2.152932   1.097468   0.000000
    10  C    3.812402   2.502383   1.529252   2.146663   0.000000
    11  Cl   5.240249   4.131445   2.751825   2.946796   1.817364
    12  O    2.927243   2.369552   1.417535   2.084208   2.444189
    13  N    2.499888   3.130860   3.674740   3.106150   4.704634
    14  O    3.570030   4.352800   4.849306   4.169636   5.871468
    15  O    2.829424   2.830488   3.172283   2.604771   3.862419
    16  H    2.904757   3.146593   4.159115   4.914090   5.101192
    17  H    3.381725   4.120038   4.828765   5.359184   6.053236
    18  H    2.842648   3.017685   3.366988   4.074242   4.464946
    19  H    3.275093   4.676500   5.388661   5.011875   6.790301
    20  H    2.080840   1.088523   2.167355   2.547624   2.659050
    21  H    2.071729   1.092516   2.154713   3.048789   2.817588
    22  H    4.086201   2.786412   2.179255   2.467299   1.091426
    23  H    4.168274   2.761585   2.179255   3.067965   1.092142
    24  H    3.772083   3.219932   1.946532   2.312102   2.634814
                   11         12         13         14         15
    11  Cl   0.000000
    12  O    3.105337   0.000000
    13  N    5.906533   4.617959   0.000000
    14  O    6.956185   5.727945   1.232992   0.000000
    15  O    5.066650   4.384578   1.244074   2.189702   0.000000
    16  H    6.527424   3.831659   5.328606   6.310861   5.586518
    17  H    7.213588   4.166206   5.669857   6.470454   6.203424
    18  H    5.515617   2.525046   5.278684   6.294253   5.488438
    19  H    7.937358   5.667468   2.910180   2.741164   4.127427
    20  H    4.392662   3.317012   2.902418   4.098833   2.327971
    21  H    4.464049   2.533785   4.122807   5.320801   3.872055
    22  H    2.373909   3.387870   4.471749   5.581802   3.430379
    23  H    2.370141   2.718074   5.442594   6.652233   4.658650
    24  H    2.663679   0.971441   5.161479   6.208629   4.861545
                   16         17         18         19         20
    16  H    0.000000
    17  H    1.773162   0.000000
    18  H    1.774936   1.785208   0.000000
    19  H    5.181776   4.712795   5.213571   0.000000
    20  H    3.883857   5.012754   4.052721   4.939199   0.000000
    21  H    2.423706   3.719367   2.550680   5.312602   1.778375
    22  H    5.670422   6.729238   5.271985   6.899383   2.498176
    23  H    4.807445   5.946129   4.317113   7.347639   2.969505
    24  H    4.751752   4.937930   3.307898   6.272417   4.067234
                   21         22         23         24
    21  H    0.000000
    22  H    3.262147   0.000000
    23  H    2.639537   1.792413   0.000000
    24  H    3.456231   3.612663   3.019762   0.000000
 Stoichiometry    C7H10ClN3O3
 Framework group  C1[X(C7H10ClN3O3)]
 Deg. of freedom    66
 Full point group                 C1      NOp   1
 Largest Abelian subgroup         C1      NOp   1
 Largest concise Abelian subgroup C1      NOp   1
                         Standard orientation:                         
 ---------------------------------------------------------------------
 Center     Atomic      Atomic             Coordinates (Angstroms)
 Number     Number       Type             X           Y           Z
 ---------------------------------------------------------------------
      1          6           0        1.141294    2.994586    0.348506
      2          6           0        1.687774    1.635568    0.061194
      3          7           0        2.865762    1.415909   -0.522959
      4          6           0        3.001976    0.069627   -0.598709
      5          6           0        1.893267   -0.547144   -0.055251
      6          7           0        1.044632    0.470538    0.376449
      7          6           0       -0.269400    0.354079    1.011472
      8          6           0       -1.395042    0.138484   -0.008146
      9          1           0       -1.122785   -0.701850   -0.659415
     10          6           0       -2.689221   -0.215678    0.725531
     11         17           0       -4.049951   -0.426628   -0.460524
     12          8           0       -1.514412    1.343435   -0.745200
     13          7           0        1.637361   -1.936279    0.051885
     14          8           0        2.523565   -2.698815   -0.339844
     15          8           0        0.549011   -2.311245    0.523707
     16          1           0        1.053612    3.178598    1.427136
     17          1           0        1.833288    3.728938   -0.067299
     18          1           0        0.152944    3.127070   -0.101439
     19          1           0        3.866807   -0.411708   -1.031814
     20          1           0       -0.235775   -0.473430    1.717858
     21          1           0       -0.452702    1.284104    1.554652
     22          1           0       -2.595375   -1.158782    1.266787
     23          1           0       -2.993150    0.583457    1.405078
     24          1           0       -2.181183    1.200967   -1.437166
 ---------------------------------------------------------------------
 Rotational constants (GHZ):      0.8819555      0.3869976      0.2897304
 General basis read from cards:  (5D, 7F)
 There are   234 symmetry adapted cartesian basis functions of A   symmetry.
 There are   220 symmetry adapted basis functions of A   symmetry.
   220 basis functions,   456 primitive gaussians,   234 cartesian basis functions
    57 alpha electrons       57 beta electrons
       nuclear repulsion energy      1032.8380019182 Hartrees.
 NAtoms=   24 NActive=   24 NUniq=   24 SFac= 1.00D+00 NAtFMM=   60 NAOKFM=F Big=F
 Integral buffers will be    131072 words long.
 Raffenetti 1 integral format.
 Two-electron integral symmetry is turned on.
 One-electron integrals computed using PRISM.
 NBasis=   220 RedAO= T EigKep=  1.31D-03  NBF=   220
 NBsUse=   220 1.00D-06 EigRej= -1.00D+00 NBFU=   220
 ExpMin= 1.43D-01 ExpMax= 2.52D+04 ExpMxC= 3.78D+03 IAcc=1 IRadAn=         1 AccDes= 0.00D+00
 Harris functional with IExCor=  205 and IRadAn=       1 diagonalized for initial guess.
 HarFok:  IExCor=  205 AccDes= 0.00D+00 IRadAn=         1 IDoV= 1 UseB2=F ITyADJ=14
 ICtDFT=  3500011 ScaDFX=  1.000000  1.000000  1.000000  1.000000
 FoFCou: FMM=F IPFlag=           0 FMFlag=      100000 FMFlg1=           0
         NFxFlg=           0 DoJE=T BraDBF=F KetDBF=T FulRan=T
         wScrn=  0.000000 ICntrl=     500 IOpCl=  0 I1Cent=   200000004 NGrid=           0
         NMat0=    1 NMatS0=      1 NMatT0=    0 NMatD0=    1 NMtDS0=    0 NMtDT0=    0
 Petite list used in FoFCou.
 Requested convergence on RMS density matrix=1.00D-08 within 128 cycles.
 Requested convergence on MAX density matrix=1.00D-06.
 Requested convergence on             energy=1.00D-06.
 No special actions if energy rises.
 Integral accuracy reduced to 1.0D-05 until final iterations.
 Initial convergence to 1.0D-05 achieved.  Increase integral accuracy.
 SCF Done:  E(RHF) =  -1118.16916562     A.U. after   16 cycles
            NFock= 16  Conv=0.70D-08     -V/T= 2.0008

 **********************************************************************

            Population analysis using the SCF density.

 **********************************************************************

 Orbital symmetries:
 BldTbl:  Degeneracy threshold= 1.00D-02
       Occupied  (A) (A) (A) (A) (A) (A) (A) (A) (A) (A) (A) (A)
                 (A) (A) (A) (A) (A) (A) (A) (A) (A) (A) (A) (A)
                 (A) (A) (A) (A) (A) (A) (A) (A) (A) (A) (A) (A)
                 (A) (A) (A) (A) (A) (A) (A) (A) (A) (A) (A) (A)
                 (A) (A) (A) (A) (A) (A) (A) (A) (A)
       Virtual   (A) (A) (A) (A) (A) (A) (A) (A) (A) (A) (A) (A)
                 (A) (A) (A) (A) (A) (A) (A) (A) (A) (A) (A) (A)
                 (A) (A) (A) (A) (A) (A) (A) (A) (A) (A) (A) (A)
                 (A) (A) (A) (A) (A) (A) (A) (A) (A) (A) (A) (A)
                 (A) (A) (A) (A) (A) (A) (A) (A) (A) (A) (A) (A)
                 (A) (A) (A) (A) (A) (A) (A) (A) (A) (A) (A) (A)
                 (A) (A) (A) (A) (A) (A) (A) (A) (A) (A) (A) (A)
                 (A) (A) (A) (A) (A) (A) (A) (A) (A) (A) (A) (A)
                 (A) (A) (A) (A) (A) (A) (A) (A) (A) (A) (A) (A)
                 (A) (A) (A) (A) (A) (A) (A) (A) (A) (A) (A) (A)
                 (A) (A) (A) (A) (A) (A) (A) (A) (A) (A) (A) (A)
                 (A) (A) (A) (A) (A) (A) (A) (A) (A) (A) (A) (A)
                 (A) (A) (A) (A) (A) (A) (A) (A) (A) (A) (A) (A)
                 (A) (A) (A) (A) (A) (A) (A)
 The electronic state is 1-A.
 Alpha  occ. eigenvalues -- -104.82474 -20.60888 -20.60681 -20.59023 -15.86771
 Alpha  occ. eigenvalues --  -15.66243 -15.57462 -11.34373 -11.32597 -11.32142
 Alpha  occ. eigenvalues --  -11.31480 -11.30725 -11.29787 -11.24984 -10.56383
 Alpha  occ. eigenvalues --   -8.03225  -8.02916  -8.02898  -1.60082  -1.39783
 Alpha  occ. eigenvalues --   -1.39283  -1.37812  -1.22125  -1.15147  -1.12177
 Alpha  occ. eigenvalues --   -1.05940  -1.02735  -0.95439  -0.92866  -0.85215
 Alpha  occ. eigenvalues --   -0.82890  -0.79637  -0.76899  -0.74225  -0.72613
 Alpha  occ. eigenvalues --   -0.71609  -0.69139  -0.67986  -0.64836  -0.63990
 Alpha  occ. eigenvalues --   -0.61515  -0.59876  -0.59122  -0.58712  -0.57127
 Alpha  occ. eigenvalues --   -0.56781  -0.55297  -0.51965  -0.50387  -0.49512
 Alpha  occ. eigenvalues --   -0.48616  -0.45943  -0.45656  -0.45489  -0.45055
 Alpha  occ. eigenvalues --   -0.41645  -0.34903
 Alpha virt. eigenvalues --    0.04882   0.16435   0.17485   0.21207   0.22137
 Alpha virt. eigenvalues --    0.23410   0.25006   0.25921   0.27302   0.28150
 Alpha virt. eigenvalues --    0.29698   0.30444   0.31227   0.33993   0.34992
 Alpha virt. eigenvalues --    0.35036   0.37578   0.38833   0.39346   0.40851
 Alpha virt. eigenvalues --    0.42952   0.44244   0.47753   0.50350   0.54792
 Alpha virt. eigenvalues --    0.58794   0.60258   0.63282   0.63737   0.65854
 Alpha virt. eigenvalues --    0.67394   0.69975   0.71162   0.73847   0.74048
 Alpha virt. eigenvalues --    0.74796   0.75465   0.77054   0.77679   0.78867
 Alpha virt. eigenvalues --    0.79432   0.84346   0.84509   0.86538   0.88304
 Alpha virt. eigenvalues --    0.89141   0.90434   0.92904   0.93942   0.95758
 Alpha virt. eigenvalues --    0.98888   1.01227   1.02354   1.03438   1.04635
 Alpha virt. eigenvalues --    1.05981   1.07539   1.08371   1.10345   1.10587
 Alpha virt. eigenvalues --    1.11325   1.12647   1.13512   1.14106   1.14521
 Alpha virt. eigenvalues --    1.14912   1.16459   1.18156   1.18999   1.19673
 Alpha virt. eigenvalues --    1.19994   1.23188   1.24824   1.25178   1.26055
 Alpha virt. eigenvalues --    1.26903   1.28133   1.28626   1.31771   1.33465
 Alpha virt. eigenvalues --    1.36746   1.38363   1.42636   1.45463   1.46528
 Alpha virt. eigenvalues --    1.48894   1.50328   1.52520   1.55572   1.56911
 Alpha virt. eigenvalues --    1.57504   1.61952   1.63470   1.65173   1.66736
 Alpha virt. eigenvalues --    1.70389   1.73587   1.76442   1.80821   1.82467
 Alpha virt. eigenvalues --    1.84071   1.91542   1.91790   1.93901   1.97523
 Alpha virt. eigenvalues --    2.00094   2.01577   2.03741   2.06634   2.08520
 Alpha virt. eigenvalues --    2.10328   2.11700   2.12581   2.14802   2.16421
 Alpha virt. eigenvalues --    2.17715   2.18704   2.21787   2.24630   2.25052
 Alpha virt. eigenvalues --    2.26216   2.29075   2.30146   2.32731   2.35595
 Alpha virt. eigenvalues --    2.38657   2.41262   2.43693   2.44846   2.47420
 Alpha virt. eigenvalues --    2.48759   2.50411   2.51421   2.54022   2.57024
 Alpha virt. eigenvalues --    2.58155   2.62416   2.65935   2.68592   2.70772
 Alpha virt. eigenvalues --    2.74376   2.76906   2.80065   2.83757   2.84564
 Alpha virt. eigenvalues --    2.86573   2.87458   2.91339   2.94647   2.95871
 Alpha virt. eigenvalues --    3.01900   3.02833   3.06254   3.10317   3.13894
 Alpha virt. eigenvalues --    3.18630   3.23439   3.26364   3.31651   3.34599
 Alpha virt. eigenvalues --    3.45695   3.60684   3.65485
          Condensed to atoms (all electrons):
               1          2          3          4          5          6
     1  C    5.200293   0.346542  -0.047018   0.005120   0.001779  -0.056843
     2  C    0.346542   4.453669   0.559043  -0.120766  -0.092820   0.378990
     3  N   -0.047018   0.559043   6.799513   0.438882  -0.065897  -0.099102
     4  C    0.005120  -0.120766   0.438882   4.766064   0.579503  -0.072573
     5  C    0.001779  -0.092820  -0.065897   0.579503   4.841255   0.278223
     6  N   -0.056843   0.378990  -0.099102  -0.072573   0.278223   7.268297
     7  C   -0.003367  -0.028270   0.003013   0.003223  -0.026169   0.197081
     8  C    0.000828  -0.001660  -0.000083   0.000101  -0.000509  -0.056898
     9  H   -0.000060   0.000268  -0.000008   0.000026   0.000566  -0.002630
    10  C   -0.000041   0.000084   0.000000  -0.000002   0.000033   0.003138
    11  Cl   0.000000  -0.000002   0.000000   0.000000  -0.000001  -0.000117
    12  O   -0.004933   0.003062  -0.000025  -0.000039   0.000392   0.002733
    13  N   -0.000044   0.000963   0.004389  -0.043959   0.195376  -0.035388
    14  O    0.000000  -0.000112   0.000251   0.003907  -0.095782   0.001960
    15  O   -0.000001  -0.000018  -0.000064   0.002653  -0.078527  -0.004068
    16  H    0.383581  -0.039430   0.000549  -0.000176   0.000170  -0.001031
    17  H    0.386435  -0.036219   0.001480   0.000208  -0.000108   0.003157
    18  H    0.381863  -0.034529   0.000771  -0.000122   0.000088  -0.001019
    19  H   -0.000035   0.004248  -0.026215   0.385477  -0.033523   0.002245
    20  H    0.000008   0.001255  -0.000112   0.000022  -0.001816  -0.032236
    21  H   -0.001606  -0.003260   0.000094   0.000068   0.001974  -0.040331
    22  H    0.000000  -0.000006   0.000000   0.000000   0.000003  -0.000117
    23  H   -0.000007   0.000005   0.000000   0.000000  -0.000004  -0.000068
    24  H    0.000116  -0.000079   0.000001   0.000001  -0.000014  -0.000262
               7          8          9         10         11         12
     1  C   -0.003367   0.000828  -0.000060  -0.000041   0.000000  -0.004933
     2  C   -0.028270  -0.001660   0.000268   0.000084  -0.000002   0.003062
     3  N    0.003013  -0.000083  -0.000008   0.000000   0.000000  -0.000025
     4  C    0.003223   0.000101   0.000026  -0.000002   0.000000  -0.000039
     5  C   -0.026169  -0.000509   0.000566   0.000033  -0.000001   0.000392
     6  N    0.197081  -0.056898  -0.002630   0.003138  -0.000117   0.002733
     7  C    5.023952   0.327074  -0.040186  -0.058096   0.005348  -0.060915
     8  C    0.327074   4.855777   0.404045   0.311992  -0.058847   0.207527
     9  H   -0.040186   0.404045   0.502817  -0.051445  -0.001249  -0.034035
    10  C   -0.058096   0.311992  -0.051445   5.332469   0.206785  -0.055832
    11  Cl   0.005348  -0.058847  -0.001249   0.206785  17.031910  -0.001109
    12  O   -0.060915   0.207527  -0.034035  -0.055832  -0.001109   8.463808
    13  N    0.000162   0.000470  -0.000973   0.000001   0.000001  -0.000002
    14  O    0.000046  -0.000005  -0.000012   0.000000   0.000000   0.000000
    15  O   -0.008424  -0.003233   0.006052  -0.000170  -0.000006   0.000030
    16  H   -0.001206  -0.000005  -0.000001   0.000004   0.000000   0.000057
    17  H    0.000124  -0.000013   0.000001   0.000000   0.000000   0.000056
    18  H   -0.001017  -0.000383   0.000053   0.000055  -0.000001   0.007329
    19  H   -0.000039   0.000001   0.000002   0.000000   0.000000   0.000000
    20  H    0.399380  -0.041899   0.000272   0.000568  -0.000062   0.002044
    21  H    0.397363  -0.040699   0.003672  -0.002826  -0.000137   0.001020
    22  H   -0.002358  -0.030505   0.000529   0.369743  -0.040327   0.002489
    23  H   -0.004412  -0.032003   0.003991   0.373046  -0.045144   0.001509
    24  H    0.005819  -0.026475  -0.002965  -0.005267   0.009526   0.259348
              13         14         15         16         17         18
     1  C   -0.000044   0.000000  -0.000001   0.383581   0.386435   0.381863
     2  C    0.000963  -0.000112  -0.000018  -0.039430  -0.036219  -0.034529
     3  N    0.004389   0.000251  -0.000064   0.000549   0.001480   0.000771
     4  C   -0.043959   0.003907   0.002653  -0.000176   0.000208  -0.000122
     5  C    0.195376  -0.095782  -0.078527   0.000170  -0.000108   0.000088
     6  N   -0.035388   0.001960  -0.004068  -0.001031   0.003157  -0.001019
     7  C    0.000162   0.000046  -0.008424  -0.001206   0.000124  -0.001017
     8  C    0.000470  -0.000005  -0.003233  -0.000005  -0.000013  -0.000383
     9  H   -0.000973  -0.000012   0.006052  -0.000001   0.000001   0.000053
    10  C    0.000001   0.000000  -0.000170   0.000004   0.000000   0.000055
    11  Cl   0.000001   0.000000  -0.000006   0.000000   0.000000  -0.000001
    12  O   -0.000002   0.000000   0.000030   0.000057   0.000056   0.007329
    13  N    5.754714   0.346631   0.306696   0.000000   0.000000   0.000000
    14  O    0.346631   8.303948  -0.079979   0.000000   0.000000   0.000000
    15  O    0.306696  -0.079979   8.389135   0.000000   0.000000   0.000000
    16  H    0.000000   0.000000   0.000000   0.510925  -0.020776  -0.026555
    17  H    0.000000   0.000000   0.000000  -0.020776   0.451953  -0.016663
    18  H    0.000000   0.000000   0.000000  -0.026555  -0.016663   0.448360
    19  H   -0.000584   0.003133  -0.000028   0.000001  -0.000009   0.000002
    20  H   -0.000294   0.000002   0.004424   0.000026   0.000002   0.000022
    21  H   -0.000140   0.000002   0.000479   0.000664   0.000075  -0.000814
    22  H   -0.000002   0.000000   0.000463   0.000000   0.000000  -0.000001
    23  H    0.000000   0.000000  -0.000003   0.000000   0.000000   0.000010
    24  H    0.000000   0.000000   0.000002  -0.000001  -0.000002  -0.000105
              19         20         21         22         23         24
     1  C   -0.000035   0.000008  -0.001606   0.000000  -0.000007   0.000116
     2  C    0.004248   0.001255  -0.003260  -0.000006   0.000005  -0.000079
     3  N   -0.026215  -0.000112   0.000094   0.000000   0.000000   0.000001
     4  C    0.385477   0.000022   0.000068   0.000000   0.000000   0.000001
     5  C   -0.033523  -0.001816   0.001974   0.000003  -0.000004  -0.000014
     6  N    0.002245  -0.032236  -0.040331  -0.000117  -0.000068  -0.000262
     7  C   -0.000039   0.399380   0.397363  -0.002358  -0.004412   0.005819
     8  C    0.000001  -0.041899  -0.040699  -0.030505  -0.032003  -0.026475
     9  H    0.000002   0.000272   0.003672   0.000529   0.003991  -0.002965
    10  C    0.000000   0.000568  -0.002826   0.369743   0.373046  -0.005267
    11  Cl   0.000000  -0.000062  -0.000137  -0.040327  -0.045144   0.009526
    12  O    0.000000   0.002044   0.001020   0.002489   0.001509   0.259348
    13  N   -0.000584  -0.000294  -0.000140  -0.000002   0.000000   0.000000
    14  O    0.003133   0.000002   0.000002   0.000000   0.000000   0.000000
    15  O   -0.000028   0.004424   0.000479   0.000463  -0.000003   0.000002
    16  H    0.000001   0.000026   0.000664   0.000000   0.000000  -0.000001
    17  H   -0.000009   0.000002   0.000075   0.000000   0.000000  -0.000002
    18  H    0.000002   0.000022  -0.000814  -0.000001   0.000010  -0.000105
    19  H    0.398134  -0.000003   0.000002   0.000000   0.000000   0.000000
    20  H   -0.000003   0.443812  -0.018914   0.000710   0.000403  -0.000128
    21  H    0.000002  -0.018914   0.486729   0.000477   0.002098  -0.000114
    22  H    0.000000   0.000710   0.000477   0.479873  -0.022872   0.000074
    23  H    0.000000   0.000403   0.002098  -0.022872   0.494308  -0.000191
    24  H    0.000000  -0.000128  -0.000114   0.000074  -0.000191   0.279681
 Mulliken charges:
               1
     1  C   -0.592612
     2  C    0.609044
     3  N   -0.569461
     4  C    0.052381
     5  C    0.495808
     6  N   -0.733142
     7  C   -0.128129
     8  C    0.185399
     9  H    0.211269
    10  C   -0.424241
    11  Cl  -0.106567
    12  O   -0.794514
    13  N    0.471984
    14  O   -0.483988
    15  O   -0.535414
    16  H    0.193204
    17  H    0.230299
    18  H    0.242655
    19  H    0.267191
    20  H    0.242514
    21  H    0.214122
    22  H    0.241826
    23  H    0.229334
    24  H    0.481034
 Sum of Mulliken charges =   0.00000
 Mulliken charges with hydrogens summed into heavy atoms:
               1
     1  C    0.073547
     2  C    0.609044
     3  N   -0.569461
     4  C    0.319572
     5  C    0.495808
     6  N   -0.733142
     7  C    0.328508
     8  C    0.396669
    10  C    0.046919
    11  Cl  -0.106567
    12  O   -0.313480
    13  N    0.471984
    14  O   -0.483988
    15  O   -0.535414
 DipInt: DoE/N= T F RetVal/Mat= T F Init=T NMatP=  1 IDeriv=0 Min/MaxMlt=  0  4
 Entering OneElI...
 OneElI was handed   235786860 working-precision words.
 Multipole integrals L=0 to 4 MinM= 0 MaxM= 0.
 Requested accuracy = 0.1000D-12
 ShPair: Thresh= 1.00D-13 NBox=     0 BxSize= 0.00D+00 RnKept= 1.50D+01
         NSMCal=                 3003 NSMKep=                2658
 PrsmSu:  NPrtUS=   1 ThrOK=F IAlg=1 NPAlg=1 LenDen=           0.
 Prism:   IPart=     0 DynPar=F LinDyn=F Incr=          26.
 PRISM was handed   235541556 working-precision words and  2658 shell-pairs
 IPart=  0 NShTot=        2658 NBatch=          94 AvBLen=        28.3
 PrSmSu:  NxtVal=             27.
 Electronic moments (au):
       -114.00000000         -0.68411852          1.37308376          0.80411441
      -2331.33842626      -1047.92099347       -208.08757453          0.58111378
         -0.39696335          2.05519947       4783.59938170       -181.21321781
       -104.50130763      -2339.59719239        940.62820166       1236.47595671
        146.01108155        -92.97673107       -131.13549567       -101.53803796
     -95506.13015302     -25697.45219245      -1230.79441887      -4801.48784909
      -1726.96695192       1937.58993787       -900.88078016        218.31716308
        -58.67007233     -13126.53191239      -3836.26050305      -1576.87089322
       -501.01590008         73.93985688        -77.62379637
 Electronic spatial extent (au):  <R**2>=           3587.3470
 DipInt: DoE/N= F T RetVal/Mat= T F Init=T NMatP=  1 IDeriv=0 Min/MaxMlt=  0  4
 Nuclear    moments (au):
        114.00000000          0.00000000          0.00000000          0.00000000
       2256.35594686        973.61224425        145.95733441          0.00000000
         -0.00000567         -0.00005657      -4771.38254038        235.95725609
        100.48226222       2301.68320112       -948.08223368      -1231.69932766
       -166.08973301         88.51247846        139.19039825        112.04110248
      86937.94054326      22066.39803155        563.23574737       4509.90529413
       1714.59826175      -1807.92498399        913.36783322       -168.02388780
         45.87922819      10974.43147603       2476.53080949        897.38771630
        503.32700309        -16.64868256         11.94206691
 Total      moments (au):
          0.00000000         -0.68411852          1.37308376          0.80411441
        -74.98247940        -74.30874922        -62.13024012          0.58111378
         -0.39696902          2.05514290         12.21684131         54.74403828
         -4.01904541        -37.91399127         -7.45403203          4.77662905
        -20.07865146         -4.46425261          8.05490258         10.50306452
      -8568.18960976      -3631.05416090       -667.55867149       -291.58255496
        -12.36869017        129.66495387         12.48705305         50.29327528
        -12.79084414      -2152.10043637      -1359.72969357       -679.48317692
          2.31110301         57.29117432        -65.68172946
 Traceless Quadrup. (au):
         -4.50865649         -3.83492631          8.34358279          0.58111378
         -0.39696902          2.05514290
 Charge=              0.0000 electrons
 Dipole moment (field-independent basis, Debye):
    X=             -1.7389    Y=              3.4900    Z=              2.0439  Tot=              4.4024
 Quadrupole moment (field-independent basis, Debye-Ang):
   XX=           -100.8540   YY=            -99.9478   ZZ=            -83.5673
   XY=              0.7816   XZ=             -0.5339   YZ=              2.7642
 Traceless Quadrupole moment (field-independent basis, Debye-Ang):
   XX=             -6.0643   YY=             -5.1581   ZZ=             11.2224
   XY=              0.7816   XZ=             -0.5339   YZ=              2.7642
 Octapole moment (field-independent basis, Debye-Ang**2):
  XXX=              8.6955  YYY=             38.9647  ZZZ=             -2.8606  XYY=            -26.9857
  XXY=             -5.3055  XXZ=              3.3998  XZZ=            -14.2912  YZZ=             -3.1775
  YYZ=              5.7332  XYZ=              7.4757
 Hexadecapole moment (field-independent basis, Debye-Ang**3):
 XXXX=          -3227.1909 YYYY=          -1367.6290 ZZZZ=           -251.4346 XXXY=           -109.8240
 XXXZ=             -4.6586 YYYX=             48.8380 YYYZ=              4.7032 ZZZX=             18.9429
 ZZZY=             -4.8176 XXYY=           -810.5842 XXZZ=           -512.1394 YYZZ=           -255.9259
 XXYZ=              0.8705 YYXZ=             21.5786 ZZXY=            -24.7389
 N-N= 1.032838001918D+03 E-N=-4.704140524035D+03  KE= 1.117227877044D+03
 Entering OneElI...
 OneElI was handed   235819891 working-precision words.
 Calculate electrostatic properties
    NBasis =   220  MinDer = 0  MaxDer = 0
    NGrid  =    24  NMatD  =   1
 Requested accuracy = 0.1000D-12
 ShPair: Thresh= 1.00D-13 NBox=     0 BxSize= 0.00D+00 RnKept= 1.50D+01
         NSMCal=                 3003 NSMKep=                2448
 PrsmSu:  NPrtUS=   1 ThrOK=F IAlg=1 NPAlg=1 LenDen=           0.
 Prism:   IPart=     0 DynPar=F LinDyn=F Incr=         512.
 PRISM was handed   235595557 working-precision words and  2448 shell-pairs
 IPart=  0 NShTot=       58752 NBatch=        2449 AvBLen=        24.0
 PrSmSu:  NxtVal=            513.
 --------------------------------------------------------
       Center         ----      EFG at Nuclei      ----
                      3XX-RR        3YY-RR        3ZZ-RR
 --------------------------------------------------------
     1   Atom        0.081362     -0.104771      0.023409
     2   Atom        0.087705      0.149516     -0.237221
     3   Atom        0.100400      0.189953     -0.290353
     4   Atom        0.120830      0.128400     -0.249230
     5   Atom        0.095481     -0.300308      0.204827
     6   Atom       -0.145600     -0.354157      0.499756
     7   Atom       -0.264554      0.217648      0.046906
     8   Atom        0.096145     -0.123138      0.026994
     9   Atom        0.111447     -0.099852     -0.011595
    10   Atom       -0.167896      0.254612     -0.086716
    11   Atom       -1.160903      1.727280     -0.566377
    12   Atom        0.580764     -0.360395     -0.220369
    13   Atom        0.079225      0.425481     -0.504706
    14   Atom       -0.364051      0.710794     -0.346743
    15   Atom       -1.547005      1.949069     -0.402064
    16   Atom        0.150383      0.127253     -0.277636
    17   Atom       -0.026701     -0.062382      0.089083
    18   Atom       -0.207183      0.131589      0.075594
    19   Atom       -0.144728      0.060312      0.084417
    20   Atom        0.127505     -0.091130     -0.036375
    21   Atom        0.119192     -0.165105      0.045912
    22   Atom        0.135633     -0.176856      0.041223
    23   Atom        0.103364     -0.082612     -0.020751
    24   Atom       -0.070614      0.182026     -0.111412
 --------------------------------------------------------
                        XY            XZ            YZ
 --------------------------------------------------------
     1   Atom        0.060813      0.010954     -0.033346
     2   Atom       -0.159706     -0.211016      0.091337
     3   Atom        0.607095     -0.251064     -0.295622
     4   Atom       -0.040415     -0.245595      0.021760
     5   Atom        0.084963      0.071486     -0.047588
     6   Atom        0.055440      0.410169     -0.039458
     7   Atom       -0.043654      0.204855     -0.024572
     8   Atom        0.017374     -0.028186      0.250376
     9   Atom        0.076617      0.061250     -0.185749
    10   Atom       -0.064237     -0.351024     -0.059652
    11   Atom       -0.491517     -2.523206     -0.358076
    12   Atom       -0.111255     -1.438396      0.998184
    13   Atom        0.027889     -0.316823     -0.006429
    14   Atom        2.014048      0.045334     -0.855578
    15   Atom       -1.162750      0.597334      0.506585
    16   Atom        0.008601      0.036391     -0.069426
    17   Atom       -0.188358      0.110350      0.112853
    18   Atom        0.053835     -0.160345      0.021658
    19   Atom        0.163915      0.153007     -0.082420
    20   Atom        0.006971     -0.003364      0.221758
    21   Atom        0.055568      0.045070     -0.187105
    22   Atom        0.028057     -0.025173      0.187569
    23   Atom        0.088490      0.069381     -0.203143
    24   Atom       -0.073617     -0.334757     -0.050162
 --------------------------------------------------------


 ---------------------------------------------------------------------------------
              Nuclear Quadrupole Coupling Constant in Principal Axis System
 ---------------------------------------------------------------------------------

       Atom             a.u.   MegaHertz   Gauss  10(-4) cm-1        Axes

              Baa    -0.4689     2.252     0.804     0.751 -0.6334  0.7157  0.2943
     3 N(14)  Bbb    -0.4131     1.984     0.708     0.662  0.4301  0.0095  0.9027
              Bcc     0.8820    -4.236    -1.511    -1.413  0.6433  0.6984 -0.3139
 
              Baa    -0.4168     2.002     0.714     0.668 -0.6100  0.7315  0.3045
     6 N(14)  Bbb    -0.2823     1.356     0.484     0.452  0.6615  0.6817 -0.3126
              Bcc     0.6991    -3.357    -1.198    -1.120  0.4362 -0.0107  0.8998
 
              Baa    -3.4747   -66.662   -23.787   -22.236  0.7432  0.1156  0.6590
    11 Cl(35) Bbb     1.6533    31.718    11.318    10.580 -0.5823 -0.3732  0.7222
              Bcc     1.8215    34.945    12.469    11.656 -0.3294  0.9205  0.2101
 
              Baa    -0.6436     3.091     1.103     1.031  0.4016 -0.0050  0.9158
    13 N(14)  Bbb     0.2144    -1.029    -0.367    -0.343  0.9075 -0.1320 -0.3987
              Bcc     0.4293    -2.062    -0.736    -0.688  0.1229  0.9912 -0.0485
 

 ---------------------------------------------------------------------------------

 No NMR shielding tensors so no spin-rotation constants.
 Leave Link  601 at Thu Jan 16 21:49:31 2014, MaxMem=   235929600 cpu:         0.3
 FitSet:  NAtFit=    24 NAtPot=    24 NAtFrz=     0 MDM=    28 TotChg=   0.00000
 Merz-Kollman atomic radii used.
 Atom Element Radius
    1     6    1.50
    2     6    1.50
    3     7    1.50
    4     6    1.50
    5     6    1.50
    6     7    1.50
    7     6    1.50
    8     6    1.50
    9     1    1.20
   10     6    1.50
   11    17    1.70
   12     8    1.40
   13     7    1.50
   14     8    1.40
   15     8    1.40
   16     1    1.20
   17     1    1.20
   18     1    1.20
   19     1    1.20
   20     1    1.20
   21     1    1.20
   22     1    1.20
   23     1    1.20
   24     1    1.20
 Generate VDW surfaces: Layer= 5 Dens= 2 Start= 1.400 Inc= 0.179

 **********************************************************************

            Electrostatic Properties Using The SCF Density

 **********************************************************************

       Atomic Center    1 is at   1.141294  2.994586  0.348506
       Atomic Center    2 is at   1.687774  1.635568  0.061194
       Atomic Center    3 is at   2.865762  1.415909 -0.522959
       Atomic Center    4 is at   3.001976  0.069627 -0.598709
       Atomic Center    5 is at   1.893267 -0.547144 -0.055251
       Atomic Center    6 is at   1.044632  0.470538  0.376449
       Atomic Center    7 is at  -0.269400  0.354079  1.011472
       Atomic Center    8 is at  -1.395042  0.138484 -0.008146
       Atomic Center    9 is at  -1.122785 -0.701850 -0.659415
       Atomic Center   10 is at  -2.689221 -0.215678  0.725531
       Atomic Center   11 is at  -4.049951 -0.426628 -0.460524
       Atomic Center   12 is at  -1.514412  1.343435 -0.745200
       Atomic Center   13 is at   1.637361 -1.936279  0.051885
       Atomic Center   14 is at   2.523565 -2.698815 -0.339844
       Atomic Center   15 is at   0.549011 -2.311245  0.523707
       Atomic Center   16 is at   1.053612  3.178598  1.427136
       Atomic Center   17 is at   1.833288  3.728938 -0.067299
       Atomic Center   18 is at   0.152944  3.127070 -0.101439
       Atomic Center   19 is at   3.866807 -0.411708 -1.031814
       Atomic Center   20 is at  -0.235775 -0.473430  1.717858
       Atomic Center   21 is at  -0.452702  1.284104  1.554652
       Atomic Center   22 is at  -2.595375 -1.158782  1.266787
       Atomic Center   23 is at  -2.993150  0.583457  1.405078
       Atomic Center   24 is at  -2.181183  1.200967 -1.437166
      ESP Fit Center   25 is at   2.959947  2.994586  1.398506
      ESP Fit Center   26 is at   2.802716  3.734299  1.398506
      ESP Fit Center   27 is at  -0.637618  3.372705  1.398506
      ESP Fit Center   28 is at   0.575332  4.983734  0.713167
      ESP Fit Center   29 is at  -0.105013  4.644962  0.713167
      ESP Fit Center   30 is at   0.575332  4.983734 -0.016155
      ESP Fit Center   31 is at   1.859536  2.994586 -1.624848
      ESP Fit Center   32 is at   0.782173  3.616602 -1.624848
      ESP Fit Center   33 is at   1.141294  2.994586 -1.751494
      ESP Fit Center   34 is at   1.687774  1.635568  2.161194
      ESP Fit Center   35 is at   2.406016  1.635568  2.034549
      ESP Fit Center   36 is at   3.037628  1.635568  1.669887
      ESP Fit Center   37 is at   2.823343  2.365354  1.669887
      ESP Fit Center   38 is at   2.823343  0.905782  1.669887
      ESP Fit Center   39 is at   0.392598  2.015866 -1.547499
      ESP Fit Center   40 is at   0.392598  1.255270 -1.547499
      ESP Fit Center   41 is at   1.328653  2.257584 -1.912160
      ESP Fit Center   42 is at   0.969532  1.635568 -1.912160
      ESP Fit Center   43 is at   1.328653  1.013552 -1.912160
      ESP Fit Center   44 is at   3.584004  1.415909  1.450396
      ESP Fit Center   45 is at   3.224883  2.037925  1.450396
      ESP Fit Center   46 is at   3.224883  0.793893  1.450396
      ESP Fit Center   47 is at   4.215616  1.415909  1.085734
      ESP Fit Center   48 is at   4.001331  2.145695  1.085734
      ESP Fit Center   49 is at   3.426511  2.643780  1.085734
      ESP Fit Center   50 is at   4.684415  1.415909  0.527041
      ESP Fit Center   51 is at   4.527184  2.155622  0.527041
      ESP Fit Center   52 is at   4.082678  2.767432  0.527041
      ESP Fit Center   53 is at   3.427757  3.145551  0.527041
      ESP Fit Center   54 is at   4.933858  1.415909 -0.158298
      ESP Fit Center   55 is at   4.794204  2.162992 -0.158298
      ESP Fit Center   56 is at   4.394103  2.809177 -0.158298
      ESP Fit Center   57 is at   3.787592  3.267193 -0.158298
      ESP Fit Center   58 is at   4.933858  1.415909 -0.887620
      ESP Fit Center   59 is at   4.794204  2.162992 -0.887620
      ESP Fit Center   60 is at   4.394103  2.809177 -0.887620
      ESP Fit Center   61 is at   3.787592  3.267193 -0.887620
      ESP Fit Center   62 is at   4.684415  1.415909 -1.572959
      ESP Fit Center   63 is at   4.527184  2.155622 -1.572959
      ESP Fit Center   64 is at   4.082678  2.767432 -1.572959
      ESP Fit Center   65 is at   3.427757  3.145551 -1.572959
      ESP Fit Center   66 is at   2.675661  3.224600 -1.572959
      ESP Fit Center   67 is at   4.215616  1.415909 -2.131652
      ESP Fit Center   68 is at   4.001331  2.145695 -2.131652
      ESP Fit Center   69 is at   3.426511  2.643780 -2.131652
      ESP Fit Center   70 is at   2.673658  2.752024 -2.131652
      ESP Fit Center   71 is at   1.981795  2.436061 -2.131652
      ESP Fit Center   72 is at   1.570586  1.796207 -2.131652
      ESP Fit Center   73 is at   1.570586  1.035611 -2.131652
      ESP Fit Center   74 is at   3.584004  1.415909 -2.496313
      ESP Fit Center   75 is at   3.224883  2.037925 -2.496313
      ESP Fit Center   76 is at   2.506641  2.037925 -2.496313
      ESP Fit Center   77 is at   2.147520  1.415909 -2.496313
      ESP Fit Center   78 is at   2.865762  1.415909 -2.622959
      ESP Fit Center   79 is at   3.720218  0.069627  1.374646
      ESP Fit Center   80 is at   4.351830  0.069627  1.009984
      ESP Fit Center   81 is at   4.137545 -0.660159  1.009984
      ESP Fit Center   82 is at   4.820629  0.069627  0.451291
      ESP Fit Center   83 is at   4.663399  0.809340  0.451291
      ESP Fit Center   84 is at   4.218893 -1.281896  0.451291
      ESP Fit Center   85 is at   4.663399 -0.670086  0.451291
      ESP Fit Center   86 is at   4.930418  0.816710 -0.234048
      ESP Fit Center   87 is at   4.137545  0.799413 -2.207402
      ESP Fit Center   88 is at   1.706801  0.449925 -2.207402
      ESP Fit Center   89 is at   1.706801 -0.310671 -2.207402
      ESP Fit Center   90 is at   2.118010 -0.950524 -2.207402
      ESP Fit Center   91 is at   2.809872 -1.266487 -2.207402
      ESP Fit Center   92 is at   3.361097  0.691643 -2.572063
      ESP Fit Center   93 is at   2.642855  0.691643 -2.572063
      ESP Fit Center   94 is at   2.283734  0.069627 -2.572063
      ESP Fit Center   95 is at   2.642855 -0.552389 -2.572063
      ESP Fit Center   96 is at   3.001976  0.069627 -2.698709
      ESP Fit Center   97 is at   1.893267 -0.547144  2.044749
      ESP Fit Center   98 is at   2.611509 -0.547144  1.918104
      ESP Fit Center   99 is at   2.252388 -1.169160  1.918104
      ESP Fit Center  100 is at   3.243121 -0.547144  1.553442
      ESP Fit Center  101 is at   3.028837  0.182642  1.553442
      ESP Fit Center  102 is at   3.028837 -1.276930  1.553442
      ESP Fit Center  103 is at   3.554690 -1.286857  0.994749
      ESP Fit Center  104 is at   0.598092 -0.166846 -1.663944
      ESP Fit Center  105 is at   0.598092 -0.927442 -1.663944
      ESP Fit Center  106 is at   1.175025 -0.547144 -2.028605
      ESP Fit Center  107 is at   1.534146 -1.169160 -2.028605
      ESP Fit Center  108 is at   1.762874  0.470538  2.349804
      ESP Fit Center  109 is at   1.403753  1.092554  2.349804
      ESP Fit Center  110 is at   1.403753 -0.151478  2.349804
      ESP Fit Center  111 is at   2.394486  0.470538  1.985142
      ESP Fit Center  112 is at   0.326390  0.470538 -1.596905
      ESP Fit Center  113 is at   1.044632  0.470538 -1.723551
      ESP Fit Center  114 is at  -0.987642  0.354079  2.984827
      ESP Fit Center  115 is at   1.080454  0.354079  2.620165
      ESP Fit Center  116 is at   0.866169  1.083865  2.620165
      ESP Fit Center  117 is at  -1.703585 -2.233294 -0.285580
      ESP Fit Center  118 is at  -1.703585 -2.233294 -1.033250
      ESP Fit Center  119 is at  -0.925360 -2.327787 -1.033250
      ESP Fit Center  120 is at   0.190692 -0.701850 -1.706878
      ESP Fit Center  121 is at  -0.060160  0.070192 -1.706878
      ESP Fit Center  122 is at  -2.185410 -1.473893 -1.706878
      ESP Fit Center  123 is at  -1.528672 -1.951041 -1.706878
      ESP Fit Center  124 is at  -0.716898 -1.951041 -1.706878
      ESP Fit Center  125 is at  -0.060160 -1.473893 -1.706878
      ESP Fit Center  126 is at  -0.393860 -0.701850 -2.173043
      ESP Fit Center  127 is at  -0.758323 -0.070583 -2.173043
      ESP Fit Center  128 is at  -1.851710 -0.701850 -2.173043
      ESP Fit Center  129 is at  -1.487247 -1.333118 -2.173043
      ESP Fit Center  130 is at  -0.758323 -1.333118 -2.173043
      ESP Fit Center  131 is at  -1.122785 -0.701850 -2.339415
      ESP Fit Center  132 is at  -1.970979 -0.215678  2.698886
      ESP Fit Center  133 is at  -3.984396 -0.595976  2.334224
      ESP Fit Center  134 is at  -4.785411 -0.426628  1.802991
      ESP Fit Center  135 is at  -4.417681 -1.063555  1.802991
      ESP Fit Center  136 is at  -4.749415  0.784880  1.464937
      ESP Fit Center  137 is at  -5.261459  0.272837  1.464937
      ESP Fit Center  138 is at  -5.448880 -0.426628  1.464937
      ESP Fit Center  139 is at  -5.261459 -1.126092  1.464937
      ESP Fit Center  140 is at  -4.749415 -1.638136  1.464937
      ESP Fit Center  141 is at  -4.786793  1.352266  0.938405
      ESP Fit Center  142 is at  -5.411457  0.934879  0.938405
      ESP Fit Center  143 is at  -5.828844  0.310214  0.938405
      ESP Fit Center  144 is at  -5.975411 -0.426628  0.938405
      ESP Fit Center  145 is at  -5.828844 -1.163469  0.938405
      ESP Fit Center  146 is at  -5.411457 -1.788134  0.938405
      ESP Fit Center  147 is at  -4.786793 -2.205521  0.938405
      ESP Fit Center  148 is at  -4.049951 -2.352088  0.938405
      ESP Fit Center  149 is at  -3.494291  1.767624  0.274937
      ESP Fit Center  150 is at  -4.236870  1.829156  0.274937
      ESP Fit Center  151 is at  -4.959194  1.646239  0.274937
      ESP Fit Center  152 is at  -5.582988  1.238694  0.274937
      ESP Fit Center  153 is at  -6.040653  0.650686  0.274937
      ESP Fit Center  154 is at  -6.282594 -0.054065  0.274937
      ESP Fit Center  155 is at  -6.282594 -0.799190  0.274937
      ESP Fit Center  156 is at  -6.040653 -1.503941  0.274937
      ESP Fit Center  157 is at  -5.582988 -2.091949  0.274937
      ESP Fit Center  158 is at  -4.959194 -2.499494  0.274937
      ESP Fit Center  159 is at  -4.236870 -2.682411  0.274937
      ESP Fit Center  160 is at  -3.494291 -2.620879  0.274937
      ESP Fit Center  161 is at  -3.872093  1.946717 -0.460524
      ESP Fit Center  162 is at  -4.579551  1.893701 -0.460524
      ESP Fit Center  163 is at  -5.239951  1.634513 -0.460524
      ESP Fit Center  164 is at  -5.794614  1.192184 -0.460524
      ESP Fit Center  165 is at  -6.194257  0.606016 -0.460524
      ESP Fit Center  166 is at  -6.403368 -0.071907 -0.460524
      ESP Fit Center  167 is at  -6.403368 -0.781348 -0.460524
      ESP Fit Center  168 is at  -6.194257 -1.459271 -0.460524
      ESP Fit Center  169 is at  -5.794614 -2.045439 -0.460524
      ESP Fit Center  170 is at  -5.239951 -2.487768 -0.460524
      ESP Fit Center  171 is at  -4.579551 -2.746956 -0.460524
      ESP Fit Center  172 is at  -3.872093 -2.799973 -0.460524
      ESP Fit Center  173 is at  -3.180439 -2.642107 -0.460524
      ESP Fit Center  174 is at  -2.566045 -2.287387 -0.460524
      ESP Fit Center  175 is at  -4.236870  1.829156 -1.195984
      ESP Fit Center  176 is at  -4.959194  1.646239 -1.195984
      ESP Fit Center  177 is at  -5.582988  1.238694 -1.195984
      ESP Fit Center  178 is at  -6.040653  0.650686 -1.195984
      ESP Fit Center  179 is at  -6.282594 -0.054065 -1.195984
      ESP Fit Center  180 is at  -6.282594 -0.799190 -1.195984
      ESP Fit Center  181 is at  -6.040653 -1.503941 -1.195984
      ESP Fit Center  182 is at  -5.582988 -2.091949 -1.195984
      ESP Fit Center  183 is at  -4.959194 -2.499494 -1.195984
      ESP Fit Center  184 is at  -4.236870 -2.682411 -1.195984
      ESP Fit Center  185 is at  -3.494291 -2.620879 -1.195984
      ESP Fit Center  186 is at  -2.811926 -2.321566 -1.195984
      ESP Fit Center  187 is at  -2.263720 -1.816907 -1.195984
      ESP Fit Center  188 is at  -4.049951  1.498833 -1.859453
      ESP Fit Center  189 is at  -4.786793  1.352266 -1.859453
      ESP Fit Center  190 is at  -5.411457  0.934879 -1.859453
      ESP Fit Center  191 is at  -5.828844  0.310214 -1.859453
      ESP Fit Center  192 is at  -5.975411 -0.426628 -1.859453
      ESP Fit Center  193 is at  -5.828844 -1.163469 -1.859453
      ESP Fit Center  194 is at  -5.411457 -1.788134 -1.859453
      ESP Fit Center  195 is at  -4.786793 -2.205521 -1.859453
      ESP Fit Center  196 is at  -4.049951 -2.352088 -1.859453
      ESP Fit Center  197 is at  -3.313109 -2.205521 -1.859453
      ESP Fit Center  198 is at  -2.688445 -1.788134 -1.859453
      ESP Fit Center  199 is at  -2.271057 -1.163469 -1.859453
      ESP Fit Center  200 is at  -2.651022 -0.426628 -2.385984
      ESP Fit Center  201 is at  -4.049951  0.972301 -2.385984
      ESP Fit Center  202 is at  -4.749415  0.784880 -2.385984
      ESP Fit Center  203 is at  -5.261459  0.272837 -2.385984
      ESP Fit Center  204 is at  -5.448880 -0.426628 -2.385984
      ESP Fit Center  205 is at  -5.261459 -1.126092 -2.385984
      ESP Fit Center  206 is at  -4.749415 -1.638136 -2.385984
      ESP Fit Center  207 is at  -4.049951 -1.825556 -2.385984
      ESP Fit Center  208 is at  -3.350486 -1.638136 -2.385984
      ESP Fit Center  209 is at  -2.838443 -1.126092 -2.385984
      ESP Fit Center  210 is at  -3.314490 -0.426628 -2.724038
      ESP Fit Center  211 is at  -3.682221  0.210300 -2.724038
      ESP Fit Center  212 is at  -4.417681  0.210300 -2.724038
      ESP Fit Center  213 is at  -4.785411 -0.426628 -2.724038
      ESP Fit Center  214 is at  -4.417681 -1.063555 -2.724038
      ESP Fit Center  215 is at  -3.682221 -1.063555 -2.724038
      ESP Fit Center  216 is at  -4.049951 -0.426628 -2.840524
      ESP Fit Center  217 is at  -1.514412  2.729364  0.640729
      ESP Fit Center  218 is at  -2.207377  2.543685  0.640729
      ESP Fit Center  219 is at  -1.703693  3.144319  0.004860
      ESP Fit Center  220 is at  -2.419814  2.911637  0.004860
      ESP Fit Center  221 is at  -2.979383  2.407799  0.004860
      ESP Fit Center  222 is at  -2.050792  3.228613 -0.745200
      ESP Fit Center  223 is at  -2.695576  2.907548 -0.745200
      ESP Fit Center  224 is at  -3.180838  2.375242 -0.745200
      ESP Fit Center  225 is at   0.296392  1.343435 -1.495259
      ESP Fit Center  226 is at   0.139840  2.079955 -1.495259
      ESP Fit Center  227 is at  -0.954843  3.065612 -1.495259
      ESP Fit Center  228 is at  -1.703693  3.144319 -1.495259
      ESP Fit Center  229 is at  -2.419814  2.911637 -1.495259
      ESP Fit Center  230 is at  -0.128483  1.343435 -2.131129
      ESP Fit Center  231 is at  -0.314162  2.036399 -2.131129
      ESP Fit Center  232 is at  -0.821447  2.543685 -2.131129
      ESP Fit Center  233 is at  -1.514412  2.729364 -2.131129
      ESP Fit Center  234 is at  -0.821447  0.143185 -2.131129
      ESP Fit Center  235 is at  -0.314162  0.650470 -2.131129
      ESP Fit Center  236 is at  -0.764353  1.343435 -2.556004
      ESP Fit Center  237 is at  -1.139382  1.993005 -2.556004
      ESP Fit Center  238 is at   1.637361 -1.936279  2.151885
      ESP Fit Center  239 is at   2.355604 -1.936279  2.025240
      ESP Fit Center  240 is at   1.996482 -1.314263  2.025240
      ESP Fit Center  241 is at   1.996482 -2.558295  2.025240
      ESP Fit Center  242 is at   2.987215 -1.936279  1.660578
      ESP Fit Center  243 is at   2.198111 -3.164149  1.660578
      ESP Fit Center  244 is at   2.772931 -2.666065  1.660578
      ESP Fit Center  245 is at   0.342186 -1.555981 -1.556808
      ESP Fit Center  246 is at   0.342186 -2.316577 -1.556808
      ESP Fit Center  247 is at   0.753395 -2.956430 -1.556808
      ESP Fit Center  248 is at   1.278240 -1.314263 -1.921469
      ESP Fit Center  249 is at   0.919119 -1.936279 -1.921469
      ESP Fit Center  250 is at   1.278240 -2.558295 -1.921469
      ESP Fit Center  251 is at   1.637361 -1.936279 -2.048115
      ESP Fit Center  252 is at   3.273625 -2.698815  1.470960
      ESP Fit Center  253 is at   2.898595 -3.348385  1.470960
      ESP Fit Center  254 is at   3.909495 -2.698815  1.046085
      ESP Fit Center  255 is at   3.723815 -2.005850  1.046085
      ESP Fit Center  256 is at   1.830601 -3.899065  1.046085
      ESP Fit Center  257 is at   2.523565 -4.084744  1.046085
      ESP Fit Center  258 is at   3.216530 -3.899065  1.046085
      ESP Fit Center  259 is at   3.723815 -3.391779  1.046085
      ESP Fit Center  260 is at   4.334369 -2.698815  0.410216
      ESP Fit Center  261 is at   4.177817 -1.962295  0.410216
      ESP Fit Center  262 is at   1.618163 -4.267017  0.410216
      ESP Fit Center  263 is at   2.334285 -4.499699  0.410216
      ESP Fit Center  264 is at   3.083134 -4.420992  0.410216
      ESP Fit Center  265 is at   3.735230 -4.044504  0.410216
      ESP Fit Center  266 is at   4.177817 -3.435335  0.410216
      ESP Fit Center  267 is at   4.483565 -2.698815 -0.339844
      ESP Fit Center  268 is at   4.351211 -1.990781 -0.339844
      ESP Fit Center  269 is at   1.342401 -4.262929 -0.339844
      ESP Fit Center  270 is at   1.987186 -4.583993 -0.339844
      ESP Fit Center  271 is at   2.704411 -4.650454 -0.339844
      ESP Fit Center  272 is at   3.397212 -4.453335 -0.339844
      ESP Fit Center  273 is at   3.972023 -4.019258 -0.339844
      ESP Fit Center  274 is at   4.351211 -3.406848 -0.339844
      ESP Fit Center  275 is at   4.334369 -2.698815 -1.089903
      ESP Fit Center  276 is at   1.058594 -3.763179 -1.089903
      ESP Fit Center  277 is at   1.618163 -4.267017 -1.089903
      ESP Fit Center  278 is at   2.334285 -4.499699 -1.089903
      ESP Fit Center  279 is at   3.083134 -4.420992 -1.089903
      ESP Fit Center  280 is at   3.735230 -4.044504 -1.089903
      ESP Fit Center  281 is at   4.177817 -3.435335 -1.089903
      ESP Fit Center  282 is at   3.909495 -2.698815 -1.725773
      ESP Fit Center  283 is at   3.723815 -2.005850 -1.725773
      ESP Fit Center  284 is at   1.323315 -3.391779 -1.725773
      ESP Fit Center  285 is at   1.830601 -3.899065 -1.725773
      ESP Fit Center  286 is at   2.523565 -4.084744 -1.725773
      ESP Fit Center  287 is at   3.216530 -3.899065 -1.725773
      ESP Fit Center  288 is at   3.723815 -3.391779 -1.725773
      ESP Fit Center  289 is at   3.273625 -2.698815 -2.150648
      ESP Fit Center  290 is at   2.898595 -2.049244 -2.150648
      ESP Fit Center  291 is at   2.148536 -2.049244 -2.150648
      ESP Fit Center  292 is at   1.773506 -2.698815 -2.150648
      ESP Fit Center  293 is at   2.148536 -3.348385 -2.150648
      ESP Fit Center  294 is at   2.898595 -3.348385 -2.150648
      ESP Fit Center  295 is at   2.523565 -2.698815 -2.299844
      ESP Fit Center  296 is at   0.549011 -2.311245  2.483707
      ESP Fit Center  297 is at   1.299071 -2.311245  2.334511
      ESP Fit Center  298 is at   0.924041 -1.661674  2.334511
      ESP Fit Center  299 is at  -0.201048 -2.311245  2.334511
      ESP Fit Center  300 is at   0.173982 -2.960816  2.334511
      ESP Fit Center  301 is at   0.924041 -2.960816  2.334511
      ESP Fit Center  302 is at  -0.836918 -2.311245  1.909636
      ESP Fit Center  303 is at  -0.651239 -3.004210  1.909636
      ESP Fit Center  304 is at  -0.143953 -3.511495  1.909636
      ESP Fit Center  305 is at   0.549011 -3.697174  1.909636
      ESP Fit Center  306 is at   1.241976 -3.511495  1.909636
      ESP Fit Center  307 is at   1.749261 -3.004210  1.909636
      ESP Fit Center  308 is at  -1.222222 -2.687732  1.273767
      ESP Fit Center  309 is at  -0.915960 -3.375609  1.273767
      ESP Fit Center  310 is at  -0.356391 -3.879447  1.273767
      ESP Fit Center  311 is at   0.359731 -4.112129  1.273767
      ESP Fit Center  312 is at   1.108580 -4.033422  1.273767
      ESP Fit Center  313 is at   1.760676 -3.656935  1.273767
      ESP Fit Center  314 is at  -1.377616 -2.671394  0.523707
      ESP Fit Center  315 is at  -1.117414 -3.343052  0.523707
      ESP Fit Center  316 is at  -0.632153 -3.875359  0.523707
      ESP Fit Center  317 is at   0.012632 -4.196423  0.523707
      ESP Fit Center  318 is at   0.729857 -4.262884  0.523707
      ESP Fit Center  319 is at  -1.222222 -2.687732 -0.226352
      ESP Fit Center  320 is at  -0.915960 -3.375609 -0.226352
      ESP Fit Center  321 is at  -0.356391 -3.879447 -0.226352
      ESP Fit Center  322 is at   0.359731 -4.112129 -0.226352
      ESP Fit Center  323 is at  -0.651239 -3.004210 -0.862222
      ESP Fit Center  324 is at  -0.143953 -3.511495 -0.862222
      ESP Fit Center  325 is at   0.549011 -3.697174 -0.862222
      ESP Fit Center  326 is at  -0.201048 -2.311245 -1.287097
      ESP Fit Center  327 is at   0.173982 -2.960816 -1.287097
      ESP Fit Center  328 is at   1.053612  3.178598  3.107136
      ESP Fit Center  329 is at   1.782536  3.178598  2.940764
      ESP Fit Center  330 is at   1.418074  3.809865  2.940764
      ESP Fit Center  331 is at   0.689149  3.809865  2.940764
      ESP Fit Center  332 is at   0.324687  3.178598  2.940764
      ESP Fit Center  333 is at   0.689149  2.547331  2.940764
      ESP Fit Center  334 is at   1.418074  2.547331  2.940764
      ESP Fit Center  335 is at   2.367089  3.178598  2.474599
      ESP Fit Center  336 is at   2.116237  3.950640  2.474599
      ESP Fit Center  337 is at   1.459498  4.427789  2.474599
      ESP Fit Center  338 is at   0.647725  4.427789  2.474599
      ESP Fit Center  339 is at  -0.009013  3.950640  2.474599
      ESP Fit Center  340 is at  -0.259865  3.178598  2.474599
      ESP Fit Center  341 is at   1.459498  1.929407  2.474599
      ESP Fit Center  342 is at   2.116237  2.406556  2.474599
      ESP Fit Center  343 is at   2.691491  3.178598  1.800971
      ESP Fit Center  344 is at   2.503881  3.939758  1.800971
      ESP Fit Center  345 is at   1.984033  4.526546  1.800971
      ESP Fit Center  346 is at   1.251036  4.804535  1.800971
      ESP Fit Center  347 is at   0.472812  4.710041  1.800971
      ESP Fit Center  348 is at  -0.172358  4.264713  1.800971
      ESP Fit Center  349 is at  -0.536673  3.570568  1.800971
      ESP Fit Center  350 is at   3.146764  3.728938  0.980164
      ESP Fit Center  351 is at   2.895913  4.500980  0.980164
      ESP Fit Center  352 is at   2.239174  4.978129  0.980164
      ESP Fit Center  353 is at   1.427401  4.978129  0.980164
      ESP Fit Center  354 is at   3.471166  3.728938  0.306536
      ESP Fit Center  355 is at   3.283557  4.490098  0.306536
      ESP Fit Center  356 is at   2.763709  5.076886  0.306536
      ESP Fit Center  357 is at   2.030712  5.354875  0.306536
      ESP Fit Center  358 is at   1.252488  5.260381  0.306536
      ESP Fit Center  359 is at   3.471166  3.728938 -0.441134
      ESP Fit Center  360 is at   3.283557  4.490098 -0.441134
      ESP Fit Center  361 is at   2.763709  5.076886 -0.441134
      ESP Fit Center  362 is at   2.030712  5.354875 -0.441134
      ESP Fit Center  363 is at   1.252488  5.260381 -0.441134
      ESP Fit Center  364 is at   3.146764  3.728938 -1.114762
      ESP Fit Center  365 is at   2.895913  4.500980 -1.114762
      ESP Fit Center  366 is at   2.239174  4.978129 -1.114762
      ESP Fit Center  367 is at   1.427401  4.978129 -1.114762
      ESP Fit Center  368 is at   0.770662  4.500980 -1.114762
      ESP Fit Center  369 is at   2.562212  3.728938 -1.580927
      ESP Fit Center  370 is at   2.197750  4.360205 -1.580927
      ESP Fit Center  371 is at   1.468825  4.360205 -1.580927
      ESP Fit Center  372 is at   1.833288  3.728938 -1.747299
      ESP Fit Center  373 is at  -0.909681  3.899112  0.946024
      ESP Fit Center  374 is at  -1.160533  3.127070  0.946024
      ESP Fit Center  375 is at  -0.427856  4.658513  0.272396
      ESP Fit Center  376 is at  -1.073026  4.213185  0.272396
      ESP Fit Center  377 is at  -1.437341  3.519040  0.272396
      ESP Fit Center  378 is at  -0.427856  4.658513 -0.475274
      ESP Fit Center  379 is at  -1.073026  4.213185 -0.475274
      ESP Fit Center  380 is at  -1.437341  3.519040 -0.475274
      ESP Fit Center  381 is at   0.558830  4.376261 -1.148902
      ESP Fit Center  382 is at  -0.252943  4.376261 -1.148902
      ESP Fit Center  383 is at  -0.909681  3.899112 -1.148902
      ESP Fit Center  384 is at   0.517406  3.758337 -1.615067
      ESP Fit Center  385 is at  -0.211519  3.758337 -1.615067
      ESP Fit Center  386 is at  -0.575981  3.127070 -1.615067
      ESP Fit Center  387 is at   0.517406  2.495803 -1.615067
      ESP Fit Center  388 is at   0.152944  3.127070 -1.781439
      ESP Fit Center  389 is at   5.180284 -0.411708  0.015649
      ESP Fit Center  390 is at   4.272694 -1.660898  0.015649
      ESP Fit Center  391 is at   4.929432 -1.183750  0.015649
      ESP Fit Center  392 is at   5.504686 -0.411708 -0.657979
      ESP Fit Center  393 is at   5.317077  0.349453 -0.657979
      ESP Fit Center  394 is at   4.797228 -1.759656 -0.657979
      ESP Fit Center  395 is at   5.317077 -1.172868 -0.657979
      ESP Fit Center  396 is at   5.504686 -0.411708 -1.405649
      ESP Fit Center  397 is at   5.317077  0.349453 -1.405649
      ESP Fit Center  398 is at   4.797228  0.936240 -1.405649
      ESP Fit Center  399 is at   4.064232 -2.037645 -1.405649
      ESP Fit Center  400 is at   4.797228 -1.759656 -1.405649
      ESP Fit Center  401 is at   5.317077 -1.172868 -1.405649
      ESP Fit Center  402 is at   5.180284 -0.411708 -2.079277
      ESP Fit Center  403 is at   4.929432  0.360335 -2.079277
      ESP Fit Center  404 is at   3.460920 -1.660898 -2.079277
      ESP Fit Center  405 is at   4.272694 -1.660898 -2.079277
      ESP Fit Center  406 is at   4.929432 -1.183750 -2.079277
      ESP Fit Center  407 is at   4.595732 -0.411708 -2.545442
      ESP Fit Center  408 is at   4.231269  0.219560 -2.545442
      ESP Fit Center  409 is at   3.502345 -1.042975 -2.545442
      ESP Fit Center  410 is at   4.231269 -1.042975 -2.545442
      ESP Fit Center  411 is at   3.866807 -0.411708 -2.711814
      ESP Fit Center  412 is at  -0.235775 -0.473430  3.397858
      ESP Fit Center  413 is at   0.493150 -0.473430  3.231486
      ESP Fit Center  414 is at   0.128687  0.157837  3.231486
      ESP Fit Center  415 is at  -0.600237  0.157837  3.231486
      ESP Fit Center  416 is at  -0.964700 -0.473430  3.231486
      ESP Fit Center  417 is at  -0.600237 -1.104697  3.231486
      ESP Fit Center  418 is at   0.128687 -1.104697  3.231486
      ESP Fit Center  419 is at   1.077702 -0.473430  2.765321
      ESP Fit Center  420 is at  -1.549252 -0.473430  2.765321
      ESP Fit Center  421 is at  -1.298400 -1.245472  2.765321
      ESP Fit Center  422 is at  -0.641662 -1.722621  2.765321
      ESP Fit Center  423 is at   0.170112 -1.722621  2.765321
      ESP Fit Center  424 is at   0.826850 -1.245472  2.765321
      ESP Fit Center  425 is at  -0.816575 -2.004874  2.091693
      ESP Fit Center  426 is at   1.214495 -1.234590  2.091693
      ESP Fit Center  427 is at  -0.452702  1.284104  3.234652
      ESP Fit Center  428 is at   0.276223  1.284104  3.068280
      ESP Fit Center  429 is at  -0.088240  1.915371  3.068280
      ESP Fit Center  430 is at  -0.817164  1.915371  3.068280
      ESP Fit Center  431 is at  -1.181627  1.284104  3.068280
      ESP Fit Center  432 is at  -0.817164  0.652837  3.068280
      ESP Fit Center  433 is at   0.860775  1.284104  2.602115
      ESP Fit Center  434 is at   0.609923  2.056146  2.602115
      ESP Fit Center  435 is at  -0.046815  2.533295  2.602115
      ESP Fit Center  436 is at  -0.858589  2.533295  2.602115
      ESP Fit Center  437 is at  -1.515327  2.056146  2.602115
      ESP Fit Center  438 is at  -1.766179  1.284104  2.602115
      ESP Fit Center  439 is at  -1.033502  2.815547  1.928487
      ESP Fit Center  440 is at  -1.678672  2.370218  1.928487
      ESP Fit Center  441 is at  -1.033502  2.815547  1.180817
      ESP Fit Center  442 is at  -1.678672  2.370218  1.180817
      ESP Fit Center  443 is at  -2.595375 -1.158782  2.946787
      ESP Fit Center  444 is at  -1.866450 -1.158782  2.780415
      ESP Fit Center  445 is at  -2.230913 -0.527515  2.780415
      ESP Fit Center  446 is at  -3.324300 -1.158782  2.780415
      ESP Fit Center  447 is at  -2.959837 -1.790050  2.780415
      ESP Fit Center  448 is at  -2.230913 -1.790050  2.780415
      ESP Fit Center  449 is at  -3.908852 -1.158782  2.314250
      ESP Fit Center  450 is at  -3.658000 -1.930825  2.314250
      ESP Fit Center  451 is at  -3.001262 -2.407973  2.314250
      ESP Fit Center  452 is at  -2.189488 -2.407973  2.314250
      ESP Fit Center  453 is at  -1.532750 -1.930825  2.314250
      ESP Fit Center  454 is at  -4.185660 -1.550752  1.640622
      ESP Fit Center  455 is at  -3.821345 -2.244897  1.640622
      ESP Fit Center  456 is at  -3.176175 -2.690226  1.640622
      ESP Fit Center  457 is at  -2.397950 -2.784719  1.640622
      ESP Fit Center  458 is at  -1.664954 -2.506730  1.640622
      ESP Fit Center  459 is at  -1.145105 -1.919943  1.640622
      ESP Fit Center  460 is at  -3.176175 -2.690226  0.892952
      ESP Fit Center  461 is at  -2.397950 -2.784719  0.892952
      ESP Fit Center  462 is at  -1.664954 -2.506730  0.892952
      ESP Fit Center  463 is at  -2.189488 -2.407973  0.219324
      ESP Fit Center  464 is at  -2.993150  0.583457  3.085078
      ESP Fit Center  465 is at  -2.264225  0.583457  2.918706
      ESP Fit Center  466 is at  -2.628688  1.214724  2.918706
      ESP Fit Center  467 is at  -3.357612  1.214724  2.918706
      ESP Fit Center  468 is at  -3.722075  0.583457  2.918706
      ESP Fit Center  469 is at  -3.357612 -0.047811  2.918706
      ESP Fit Center  470 is at  -2.628688 -0.047811  2.918706
      ESP Fit Center  471 is at  -1.930525  1.355499  2.452541
      ESP Fit Center  472 is at  -2.587263  1.832647  2.452541
      ESP Fit Center  473 is at  -3.399037  1.832647  2.452541
      ESP Fit Center  474 is at  -4.055775  1.355499  2.452541
      ESP Fit Center  475 is at  -4.306627  0.583457  2.452541
      ESP Fit Center  476 is at  -4.055775 -0.188586  2.452541
      ESP Fit Center  477 is at  -2.062729  1.931404  1.778913
      ESP Fit Center  478 is at  -2.795726  2.209393  1.778913
      ESP Fit Center  479 is at  -3.573950  2.114900  1.778913
      ESP Fit Center  480 is at  -4.219120  1.669571  1.778913
      ESP Fit Center  481 is at  -4.583435  0.975427  1.778913
      ESP Fit Center  482 is at  -4.583435  0.191486  1.778913
      ESP Fit Center  483 is at  -2.795726  2.209393  1.031243
      ESP Fit Center  484 is at  -3.573950  2.114900  1.031243
      ESP Fit Center  485 is at  -4.219120  1.669571  1.031243
      ESP Fit Center  486 is at  -3.399037  1.832647  0.357615
      ESP Fit Center  487 is at  -3.407153  2.287081 -1.063331
      ESP Fit Center  488 is at  -2.761983  2.732410 -1.811001
      ESP Fit Center  489 is at  -3.407153  2.287081 -1.811001
      ESP Fit Center  490 is at  -3.771468  1.592937 -1.811001
      ESP Fit Center  491 is at  -1.775296  2.450157 -2.484629
      ESP Fit Center  492 is at  -2.587070  2.450157 -2.484629
      ESP Fit Center  493 is at  -3.243808  1.973009 -2.484629
      ESP Fit Center  494 is at  -3.494660  1.200967 -2.484629
      ESP Fit Center  495 is at  -2.587070 -0.048224 -2.484629
      ESP Fit Center  496 is at  -1.775296 -0.048224 -2.484629
      ESP Fit Center  497 is at  -1.118558  0.428924 -2.484629
      ESP Fit Center  498 is at  -1.452258  1.200967 -2.950794
      ESP Fit Center  499 is at  -1.816721  1.832234 -2.950794
      ESP Fit Center  500 is at  -2.545645  1.832234 -2.950794
      ESP Fit Center  501 is at  -2.910108  1.200967 -2.950794
      ESP Fit Center  502 is at  -2.545645  0.569699 -2.950794
      ESP Fit Center  503 is at  -1.816721  0.569699 -2.950794
      ESP Fit Center  504 is at  -2.181183  1.200967 -3.117166
      ESP Fit Center  505 is at   3.057311  2.994586  1.740575
      ESP Fit Center  506 is at   2.911463  3.727814  1.740575
      ESP Fit Center  507 is at   0.955291  5.239307  1.080360
      ESP Fit Center  508 is at   0.236509  5.057287  1.080360
      ESP Fit Center  509 is at  -0.384225  4.651741  1.080360
      ESP Fit Center  510 is at   0.409440  5.247000  0.348506
      ESP Fit Center  511 is at   0.236509  5.057287 -0.383347
      ESP Fit Center  512 is at   0.408065  4.764756 -1.043562
      ESP Fit Center  513 is at   0.775367  3.628390 -1.903908
      ESP Fit Center  514 is at   1.141294  2.994586 -2.019822
      ESP Fit Center  515 is at   1.687774  1.635568  2.429522
      ESP Fit Center  516 is at   2.419627  1.635568  2.313608
      ESP Fit Center  517 is at   3.079842  1.635568  1.977212
      ESP Fit Center  518 is at   2.858856  2.388177  1.977212
      ESP Fit Center  519 is at   2.858856  0.882959  1.977212
      ESP Fit Center  520 is at   0.352094  2.027759 -1.854824
      ESP Fit Center  521 is at   1.321847  2.269372 -2.191220
      ESP Fit Center  522 is at   0.955920  1.635568 -2.191220
      ESP Fit Center  523 is at   3.597615  1.415909  1.729455
      ESP Fit Center  524 is at   3.231689  0.782105  1.729455
      ESP Fit Center  525 is at   4.257830  1.415909  1.393059
      ESP Fit Center  526 is at   4.036844  2.168518  1.393059
      ESP Fit Center  527 is at   3.444048  2.682179  1.393059
      ESP Fit Center  528 is at   4.781780  1.415909  0.869110
      ESP Fit Center  529 is at   4.635931  2.149137  0.869110
      ESP Fit Center  530 is at   4.220591  2.770738  0.869110
      ESP Fit Center  531 is at   3.598990  3.186079  0.869110
      ESP Fit Center  532 is at   5.118176  1.415909  0.208895
      ESP Fit Center  533 is at   4.996134  2.147267  0.208895
      ESP Fit Center  534 is at   4.643233  2.799370  0.208895
      ESP Fit Center  535 is at   4.097715  3.301555  0.208895
      ESP Fit Center  536 is at   5.234090  1.415909 -0.522959
      ESP Fit Center  537 is at   5.118176  2.147763 -0.522959
      ESP Fit Center  538 is at   4.781780  2.807978 -0.522959
      ESP Fit Center  539 is at   4.257830  3.331927 -0.522959
      ESP Fit Center  540 is at   5.118176  1.415909 -1.254812
      ESP Fit Center  541 is at   4.996134  2.147267 -1.254812
      ESP Fit Center  542 is at   4.643233  2.799370 -1.254812
      ESP Fit Center  543 is at   4.097715  3.301555 -1.254812
      ESP Fit Center  544 is at   3.418697  3.599400 -1.254812
      ESP Fit Center  545 is at   4.781780  1.415909 -1.915027
      ESP Fit Center  546 is at   4.635931  2.149137 -1.915027
      ESP Fit Center  547 is at   4.220591  2.770738 -1.915027
      ESP Fit Center  548 is at   3.598990  3.186079 -1.915027
      ESP Fit Center  549 is at   2.865762  3.331927 -1.915027
      ESP Fit Center  550 is at   2.132534  3.186079 -1.915027
      ESP Fit Center  551 is at   4.257830  1.415909 -2.438977
      ESP Fit Center  552 is at   4.036844  2.168518 -2.438977
      ESP Fit Center  553 is at   3.444048  2.682179 -2.438977
      ESP Fit Center  554 is at   2.667650  2.793808 -2.438977
      ESP Fit Center  555 is at   1.954151  2.467964 -2.438977
      ESP Fit Center  556 is at   1.530082  1.808100 -2.438977
      ESP Fit Center  557 is at   1.530082  1.023718 -2.438977
      ESP Fit Center  558 is at   3.597615  1.415909 -2.775373
      ESP Fit Center  559 is at   3.231689  2.049713 -2.775373
      ESP Fit Center  560 is at   2.499835  2.049713 -2.775373
      ESP Fit Center  561 is at   2.133908  1.415909 -2.775373
      ESP Fit Center  562 is at   2.865762  1.415909 -2.891287
      ESP Fit Center  563 is at   3.733830  0.069627  1.653705
      ESP Fit Center  564 is at   4.394044  0.069627  1.317309
      ESP Fit Center  565 is at   4.173058 -0.682982  1.317309
      ESP Fit Center  566 is at   4.917994  0.069627  0.793360
      ESP Fit Center  567 is at   4.772146  0.802855  0.793360
      ESP Fit Center  568 is at   4.356805 -1.285202  0.793360
      ESP Fit Center  569 is at   4.772146 -0.663601  0.793360
      ESP Fit Center  570 is at   5.132348  0.800985  0.133145
      ESP Fit Center  571 is at   4.173058  0.822236 -2.514727
      ESP Fit Center  572 is at   1.666296  0.461818 -2.514727
      ESP Fit Center  573 is at   1.666296 -0.322564 -2.514727
      ESP Fit Center  574 is at   2.090365 -0.982428 -2.514727
      ESP Fit Center  575 is at   2.803864 -1.308272 -2.514727
      ESP Fit Center  576 is at   3.367903  0.703431 -2.851123
      ESP Fit Center  577 is at   2.636049  0.703431 -2.851123
      ESP Fit Center  578 is at   2.270122  0.069627 -2.851123
      ESP Fit Center  579 is at   2.636049 -0.564177 -2.851123
      ESP Fit Center  580 is at   3.001976  0.069627 -2.967037
      ESP Fit Center  581 is at   2.625121 -0.547144  2.197163
      ESP Fit Center  582 is at   3.285335 -0.547144  1.860767
      ESP Fit Center  583 is at   3.064349  0.205465  1.860767
      ESP Fit Center  584 is at   3.064349 -1.299753  1.860767
      ESP Fit Center  585 is at   3.663437 -1.280372  1.336818
      ESP Fit Center  586 is at   0.557587 -0.154953 -1.971269
      ESP Fit Center  587 is at   0.557587 -0.939335 -1.971269
      ESP Fit Center  588 is at   1.161413 -0.547144 -2.307665
      ESP Fit Center  589 is at   1.527340 -1.180948 -2.307665
      ESP Fit Center  590 is at   1.776486  0.470538  2.628863
      ESP Fit Center  591 is at   1.410559  1.104342  2.628863
      ESP Fit Center  592 is at   1.410559 -0.163266  2.628863
      ESP Fit Center  593 is at   2.436700  0.470538  2.292467
      ESP Fit Center  594 is at   1.622918 -0.795732  2.292467
      ESP Fit Center  595 is at   2.215714 -0.282071  2.292467
      ESP Fit Center  596 is at   0.312778  0.470538 -1.875965
      ESP Fit Center  597 is at  -1.001254  0.354079  3.263886
      ESP Fit Center  598 is at   1.122668  0.354079  2.927490
      ESP Fit Center  599 is at   0.901682  1.106688  2.927490
      ESP Fit Center  600 is at  -1.847841 -2.452290 -0.659415
      ESP Fit Center  601 is at  -1.512294 -2.408403 -1.384471
      ESP Fit Center  602 is at  -0.733275 -2.408403 -1.384471
      ESP Fit Center  603 is at   0.216944 -0.701850 -1.999144
      ESP Fit Center  604 is at   0.004267  0.022462 -1.999144
      ESP Fit Center  605 is at  -2.000121 -1.714350 -1.999144
      ESP Fit Center  606 is at  -1.313448 -2.027942 -1.999144
      ESP Fit Center  607 is at  -0.566241 -1.920510 -1.999144
      ESP Fit Center  608 is at   0.004267 -1.426162 -1.999144
      ESP Fit Center  609 is at  -0.397729 -0.701850 -2.409855
      ESP Fit Center  610 is at  -0.760257 -0.073933 -2.409855
      ESP Fit Center  611 is at  -1.847841 -0.701850 -2.409855
      ESP Fit Center  612 is at  -1.485313 -1.329767 -2.409855
      ESP Fit Center  613 is at  -0.760257 -1.329767 -2.409855
      ESP Fit Center  614 is at  -1.122785 -0.701850 -2.554077
      ESP Fit Center  615 is at  -1.957367 -0.215678  2.977945
[...]
 2331 Fit       0.011435
 2332 Fit       0.011747
 2333 Fit       0.012103
 2334 Fit       0.010518
 2335 Fit       0.010749
 2336 Fit       0.009386
 2337 Fit       0.009492
 2338 Fit       0.007947
 2339 Fit       0.008124
 2340 Fit       0.006130
 2341 Fit       0.003187
 2342 Fit       0.004068
 2343 Fit      -0.001380
 2344 Fit       0.001342
 2345 Fit       0.000232
 2346 Fit      -0.002085
 2347 Fit       0.016612
 2348 Fit       0.010718
 2349 Fit       0.004636
 2350 Fit       0.006226
 2351 Fit       0.005544
 2352 Fit      -0.001828
 2353 Fit       0.000097
 2354 Fit       0.000928
 2355 Fit       0.001684
 2356 Fit      -0.003787
 2357 Fit      -0.004267
 2358 Fit      -0.002353
 2359 Fit      -0.006364
 2360 Fit      -0.007871
 2361 Fit      -0.007431
 2362 Fit      -0.004484
 2363 Fit      -0.007820
 2364 Fit      -0.010222
 2365 Fit      -0.010976
 2366 Fit      -0.009628
 2367 Fit      -0.005792
 2368 Fit      -0.008383
 2369 Fit      -0.011677
 2370 Fit      -0.013275
 2371 Fit      -0.012833
 2372 Fit      -0.009978
 2373 Fit      -0.008350
 2374 Fit      -0.012422
 2375 Fit      -0.014677
 2376 Fit      -0.014915
 2377 Fit      -0.012855
 2378 Fit      -0.008096
 2379 Fit      -0.012814
 2380 Fit      -0.015473
 2381 Fit      -0.015980
 2382 Fit      -0.014140
 2383 Fit      -0.009673
 2384 Fit      -0.007980
 2385 Fit      -0.012947
 2386 Fit      -0.015709
 2387 Fit      -0.016222
 2388 Fit      -0.014410
 2389 Fit      -0.010319
 2390 Fit      -0.008181
 2391 Fit      -0.013081
 2392 Fit      -0.015543
 2393 Fit      -0.015488
 2394 Fit      -0.013074
 2395 Fit      -0.008990
 2396 Fit      -0.008596
 2397 Fit      -0.012843
 2398 Fit      -0.014629
 2399 Fit      -0.013874
 2400 Fit      -0.011201
 2401 Fit      -0.007899
 2402 Fit      -0.005252
 2403 Fit      -0.003808
 2404 Fit      -0.001585
 2405 Fit      -0.008920
 2406 Fit      -0.012215
 2407 Fit      -0.012802
 2408 Fit      -0.011001
 2409 Fit      -0.008330
 2410 Fit      -0.006096
 2411 Fit      -0.004407
 2412 Fit      -0.008818
 2413 Fit      -0.010678
 2414 Fit      -0.008956
 2415 Fit      -0.006534
 2416 Fit      -0.008053
 2417 Fit       0.004099
 2418 Fit       0.000849
 2419 Fit       0.001177
 2420 Fit      -0.001051
 2421 Fit      -0.002602
 2422 Fit      -0.001510
 2423 Fit      -0.000690
 2424 Fit      -0.001738
 2425 Fit      -0.004303
 2426 Fit      -0.002641
 2427 Fit      -0.001084
 2428 Fit      -0.001368
 2429 Fit      -0.004587
 2430 Fit      -0.001697
 2431 Fit      -0.000269
 2432 Fit      -0.000152
 2433 Fit      -0.004098
 2434 Fit      -0.003055
 2435 Fit      -0.003351
 2436 Fit       0.000036
 2437 Fit      -0.004376
 2438 Fit      -0.003604
 2439 Fit      -0.000987
 2440 Fit      -0.000478
 2441 Fit      -0.001584
 2442 Fit      -0.002044
 2443 Fit      -0.001630
 2444 Fit      -0.004761
 2445 Fit      -0.004658
 2446 Fit      -0.002185
 2447 Fit      -0.001389
 2448 Fit      -0.000832
 2449 Fit      -0.002366
 2450 Fit       0.010255
 2451 Fit       0.006135
 2452 Fit       0.008391
 2453 Fit       0.005401
 2454 Fit       0.002707
 2455 Fit       0.001760
 2456 Fit       0.002554
 2457 Fit       0.005158
 2458 Fit       0.004132
 2459 Fit       0.001675
 2460 Fit       0.000334
 2461 Fit       0.018014
 2462 Fit       0.013554
 2463 Fit       0.016676
 2464 Fit       0.013276
 2465 Fit       0.009355
 2466 Fit       0.023465
 2467 Fit       0.021661
 2468 Fit       0.023991
 2469 Fit       0.025651
 2470 Fit       0.025522
 2471 Fit       0.019899
 2472 Fit       0.022406
 2473 Fit       0.028104
 2474 Fit       0.017933
 2475 Fit       0.020753
 2476 Fit       0.024965
 2477 Fit      -0.000158
 2478 Fit       0.007200
 2479 Fit       0.003910
 2480 Fit       0.004362
 2481 Fit       0.006420
 2482 Fit       0.008378
 2483 Fit       0.007956
 2484 Fit       0.007330
 2485 Fit       0.010707
 2486 Fit       0.023833
 2487 Fit       0.026926
 2488 Fit       0.021088
 2489 Fit       0.020979
 2490 Fit       0.023601
 2491 Fit       0.018196
 2492 Fit       0.017463
 2493 Fit       0.014035
 2494 Fit       0.014083
 2495 Fit       0.010170
 2496 Fit       0.007325
 2497 Fit       0.007105
 2498 Fit       0.009561
 2499 Fit       0.007494
 2500 Fit       0.004396
 2501 Fit       0.002710
 2502 Fit       0.002207
 2503 Fit       0.002867
 2504 Fit       0.004887
 2505 Fit       0.008706
 2506 Fit       0.007050
 2507 Fit       0.003674
 2508 Fit       0.001363
 2509 Fit      -0.000115
 2510 Fit      -0.000929
 2511 Fit      -0.001160
 2512 Fit      -0.000784
 2513 Fit       0.000326
 2514 Fit       0.002379
 2515 Fit       0.005686
 2516 Fit       0.007354
 2517 Fit       0.003923
 2518 Fit       0.001310
 2519 Fit      -0.000558
 2520 Fit      -0.001831
 2521 Fit      -0.002663
 2522 Fit      -0.003158
 2523 Fit      -0.003348
 2524 Fit      -0.003184
 2525 Fit      -0.002554
 2526 Fit      -0.001316
 2527 Fit       0.000660
 2528 Fit       0.003456
 2529 Fit       0.008695
 2530 Fit       0.006735
 2531 Fit       0.004100
 2532 Fit       0.001666
 2533 Fit      -0.000268
 2534 Fit      -0.001680
 2535 Fit      -0.002668
 2536 Fit      -0.003363
 2537 Fit      -0.003878
 2538 Fit      -0.004276
 2539 Fit      -0.004558
 2540 Fit      -0.004664
 2541 Fit      -0.004498
 2542 Fit      -0.003961
 2543 Fit      -0.003000
 2544 Fit      -0.001681
 2545 Fit      -0.000300
 2546 Fit       0.004906
 2547 Fit       0.003005
 2548 Fit       0.000965
 2549 Fit      -0.000704
 2550 Fit      -0.001909
 2551 Fit      -0.002727
 2552 Fit      -0.003295
 2553 Fit      -0.003749
 2554 Fit      -0.004185
 2555 Fit      -0.004638
 2556 Fit      -0.005080
 2557 Fit      -0.005434
 2558 Fit      -0.005596
 2559 Fit      -0.005483
 2560 Fit      -0.005083
 2561 Fit      -0.004534
 2562 Fit      -0.004228
 2563 Fit      -0.004977
 2564 Fit       0.004692
 2565 Fit       0.002515
 2566 Fit       0.000543
 2567 Fit      -0.000921
 2568 Fit      -0.001889
 2569 Fit      -0.002493
 2570 Fit      -0.002904
 2571 Fit      -0.003276
 2572 Fit      -0.003717
 2573 Fit      -0.004265
 2574 Fit      -0.004894
 2575 Fit      -0.005521
 2576 Fit      -0.006035
 2577 Fit      -0.006338
 2578 Fit      -0.006389
 2579 Fit      -0.006257
 2580 Fit      -0.006148
 2581 Fit      -0.006363
 2582 Fit       0.005292
 2583 Fit       0.002391
 2584 Fit       0.000402
 2585 Fit      -0.000845
 2586 Fit      -0.001565
 2587 Fit      -0.001987
 2588 Fit      -0.002320
 2589 Fit      -0.002721
 2590 Fit      -0.003279
 2591 Fit      -0.003998
 2592 Fit      -0.004815
 2593 Fit      -0.005614
 2594 Fit      -0.006265
 2595 Fit      -0.006664
 2596 Fit      -0.006754
 2597 Fit      -0.006520
 2598 Fit      -0.005840
 2599 Fit      -0.003997
 2600 Fit       0.007897
 2601 Fit       0.003726
 2602 Fit       0.001270
 2603 Fit      -0.000101
 2604 Fit      -0.000828
 2605 Fit      -0.001263
 2606 Fit      -0.001676
 2607 Fit      -0.002242
 2608 Fit      -0.003020
 2609 Fit      -0.003960
 2610 Fit      -0.004928
 2611 Fit      -0.005748
 2612 Fit      -0.006240
 2613 Fit      -0.006235
 2614 Fit      -0.005508
 2615 Fit      -0.003544
 2616 Fit       0.010264
 2617 Fit       0.005162
 2618 Fit       0.002288
 2619 Fit       0.000740
 2620 Fit      -0.000093
 2621 Fit      -0.000656
 2622 Fit      -0.001252
 2623 Fit      -0.002031
 2624 Fit      -0.002989
 2625 Fit      -0.003992
 2626 Fit      -0.004820
 2627 Fit      -0.005215
 2628 Fit      -0.004888
 2629 Fit      -0.003459
 2630 Fit      -0.000388
 2631 Fit       0.004688
 2632 Fit       0.012908
 2633 Fit       0.007960
 2634 Fit       0.003932
 2635 Fit       0.001740
 2636 Fit       0.000544
 2637 Fit      -0.000302
 2638 Fit      -0.001183
 2639 Fit      -0.002188
 2640 Fit      -0.003140
 2641 Fit      -0.003681
 2642 Fit      -0.003360
 2643 Fit      -0.001685
 2644 Fit       0.001742
 2645 Fit       0.006797
 2646 Fit       0.008824
 2647 Fit       0.013405
 2648 Fit       0.013086
 2649 Fit       0.008445
 2650 Fit       0.004242
 2651 Fit       0.001794
 2652 Fit       0.000355
 2653 Fit      -0.000800
 2654 Fit      -0.001709
 2655 Fit      -0.001771
 2656 Fit      -0.000160
 2657 Fit       0.003575
 2658 Fit       0.005327
 2659 Fit       0.006876
 2660 Fit       0.003858
 2661 Fit       0.001292
 2662 Fit       0.000171
 2663 Fit       0.001420
 2664 Fit       0.002847
 2665 Fit       0.010071
 2666 Fit       0.007392
 2667 Fit       0.005978
 2668 Fit       0.006241
 2669 Fit       0.004641
 2670 Fit       0.004779
 2671 Fit       0.005195
 2672 Fit       0.005009
 2673 Fit       0.005987
 2674 Fit       0.005289
 2675 Fit       0.005712
 2676 Fit       0.007389
 2677 Fit       0.004912
 2678 Fit       0.007065
 2679 Fit      -0.001187
 2680 Fit      -0.001543
 2681 Fit       0.000252
 2682 Fit       0.002844
 2683 Fit       0.005893
 2684 Fit       0.009779
 2685 Fit       0.006321
 2686 Fit       0.001827
 2687 Fit       0.002323
 2688 Fit       0.002253
 2689 Fit       0.004776
 2690 Fit       0.009033
 2691 Fit       0.010011
 2692 Fit       0.005336
 2693 Fit       0.007400
 2694 Fit       0.003902
 2695 Fit       0.010038
 2696 Fit      -0.001154
 2697 Fit       0.001882
 2698 Fit       0.006670
 2699 Fit      -0.006764
 2700 Fit      -0.002792
 2701 Fit      -0.000837
 2702 Fit      -0.012964
 2703 Fit      -0.009698
 2704 Fit      -0.005483
 2705 Fit      -0.017970
 2706 Fit      -0.005562
 2707 Fit      -0.011614
 2708 Fit       0.005716
 2709 Fit       0.002693
 2710 Fit      -0.003333
 2711 Fit      -0.000297
 2712 Fit      -0.006010
 2713 Fit      -0.003204
 2714 Fit      -0.007716
 2715 Fit      -0.016780
 2716 Fit      -0.014788
 2717 Fit      -0.011876
 2718 Fit      -0.009771
 2719 Fit      -0.005293
 2720 Fit      -0.022497
 2721 Fit      -0.020424
 2722 Fit      -0.018531
 2723 Fit      -0.016270
 2724 Fit      -0.013416
 2725 Fit      -0.011039
 2726 Fit      -0.006822
 2727 Fit      -0.025074
 2728 Fit      -0.023128
 2729 Fit      -0.021366
 2730 Fit      -0.019421
 2731 Fit      -0.017168
 2732 Fit      -0.014452
 2733 Fit      -0.011412
 2734 Fit      -0.006758
 2735 Fit      -0.026776
 2736 Fit      -0.025033
 2737 Fit      -0.023430
 2738 Fit      -0.021690
 2739 Fit      -0.019758
 2740 Fit      -0.017562
 2741 Fit      -0.014898
 2742 Fit      -0.011007
 2743 Fit      -0.028069
 2744 Fit      -0.026480
 2745 Fit      -0.025114
 2746 Fit      -0.023597
 2747 Fit      -0.021871
 2748 Fit      -0.019948
 2749 Fit      -0.017741
 2750 Fit      -0.014955
 2751 Fit      -0.010186
 2752 Fit      -0.026563
 2753 Fit      -0.025765
 2754 Fit      -0.024747
 2755 Fit      -0.023393
 2756 Fit      -0.021753
 2757 Fit      -0.019874
 2758 Fit      -0.017653
 2759 Fit      -0.014706
 2760 Fit      -0.009522
 2761 Fit      -0.023600
 2762 Fit      -0.024279
 2763 Fit      -0.024386
 2764 Fit      -0.023898
 2765 Fit      -0.022871
 2766 Fit      -0.021427
 2767 Fit      -0.019651
 2768 Fit      -0.017451
 2769 Fit      -0.014408
 2770 Fit      -0.009488
 2771 Fit      -0.019407
 2772 Fit      -0.021479
 2773 Fit      -0.022269
 2774 Fit      -0.022057
 2775 Fit      -0.021084
 2776 Fit      -0.019543
 2777 Fit      -0.017439
 2778 Fit      -0.014412
 2779 Fit      -0.010061
 2780 Fit      -0.014104
 2781 Fit      -0.017858
 2782 Fit      -0.019658
 2783 Fit      -0.019942
 2784 Fit      -0.019096
 2785 Fit      -0.017349
 2786 Fit      -0.014562
 2787 Fit      -0.010742
 2788 Fit      -0.012149
 2789 Fit      -0.015895
 2790 Fit      -0.017319
 2791 Fit      -0.016784
 2792 Fit      -0.014622
 2793 Fit      -0.010963
 2794 Fit      -0.006987
 2795 Fit      -0.005971
 2796 Fit      -0.008879
 2797 Fit      -0.013192
 2798 Fit      -0.013991
 2799 Fit      -0.010374
 2800 Fit       0.004015
 2801 Fit       0.002064
 2802 Fit      -0.001440
 2803 Fit      -0.003234
 2804 Fit       0.000826
 2805 Fit      -0.006015
 2806 Fit      -0.009310
 2807 Fit      -0.009039
 2808 Fit      -0.005285
 2809 Fit      -0.000939
 2810 Fit      -0.008082
 2811 Fit      -0.012519
 2812 Fit      -0.014653
 2813 Fit      -0.014532
 2814 Fit      -0.011946
 2815 Fit       0.001307
 2816 Fit      -0.007336
 2817 Fit      -0.013027
 2818 Fit      -0.016781
 2819 Fit      -0.018991
 2820 Fit      -0.019791
 2821 Fit      -0.002880
 2822 Fit      -0.010454
 2823 Fit      -0.015633
 2824 Fit      -0.019367
 2825 Fit      -0.022074
 2826 Fit      -0.024082
 2827 Fit      -0.008578
 2828 Fit      -0.014507
 2829 Fit      -0.018925
 2830 Fit      -0.022429
 2831 Fit      -0.025496
 2832 Fit      -0.010628
 2833 Fit      -0.015828
 2834 Fit      -0.020001
 2835 Fit      -0.023623
 2836 Fit      -0.027352
 2837 Fit      -0.009589
 2838 Fit      -0.014605
 2839 Fit      -0.018784
 2840 Fit      -0.022547
 2841 Fit      -0.026609
 2842 Fit      -0.008049
 2843 Fit      -0.013332
 2844 Fit      -0.017649
 2845 Fit      -0.021659
 2846 Fit      -0.008396
 2847 Fit      -0.013642
 2848 Fit      -0.018003
 2849 Fit      -0.005362
 2850 Fit      -0.011190
 2851 Fit       0.020248
 2852 Fit       0.017788
 2853 Fit       0.017699
 2854 Fit       0.019601
 2855 Fit       0.022652
 2856 Fit       0.023746
 2857 Fit       0.020611
 2858 Fit       0.015134
 2859 Fit       0.014940
 2860 Fit       0.015861
 2861 Fit       0.017364
 2862 Fit       0.019532
 2863 Fit       0.022877
 2864 Fit       0.021492
 2865 Fit       0.017270
 2866 Fit       0.012076
 2867 Fit       0.012223
 2868 Fit       0.013176
 2869 Fit       0.014375
 2870 Fit       0.015642
 2871 Fit       0.017080
 2872 Fit       0.019012
 2873 Fit       0.022073
 2874 Fit       0.013546
 2875 Fit       0.010718
 2876 Fit       0.012221
 2877 Fit       0.013498
 2878 Fit       0.014611
 2879 Fit       0.015715
 2880 Fit       0.017020
 2881 Fit       0.018885
 2882 Fit       0.022050
 2883 Fit       0.008326
 2884 Fit       0.001036
 2885 Fit       0.005000
 2886 Fit       0.007768
 2887 Fit       0.009759
 2888 Fit       0.011322
 2889 Fit      -0.002579
 2890 Fit       0.002776
 2891 Fit       0.006178
 2892 Fit       0.008409
 2893 Fit       0.009934
 2894 Fit       0.011111
 2895 Fit      -0.005389
 2896 Fit       0.001060
 2897 Fit       0.004944
 2898 Fit       0.007366
 2899 Fit       0.008901
 2900 Fit       0.009937
 2901 Fit      -0.006874
 2902 Fit      -0.000029
 2903 Fit       0.004014
 2904 Fit       0.006461
 2905 Fit       0.007932
 2906 Fit       0.008842
 2907 Fit      -0.005777
 2908 Fit       0.000701
 2909 Fit       0.004325
 2910 Fit       0.006304
 2911 Fit       0.007332
 2912 Fit      -0.003223
 2913 Fit       0.002087
 2914 Fit       0.004602
 2915 Fit      -0.000598
 2916 Fit       0.002268
 2917 Fit       0.013134
 2918 Fit       0.012020
 2919 Fit       0.011809
 2920 Fit       0.010715
 2921 Fit       0.008352
 2922 Fit       0.010126
 2923 Fit       0.008776
 2924 Fit       0.009127
 2925 Fit       0.008341
 2926 Fit       0.006600
 2927 Fit       0.007474
 2928 Fit       0.006484
 2929 Fit       0.005833
 2930 Fit       0.005311
 2931 Fit       0.003593
 2932 Fit       0.000988
 2933 Fit      -0.002559
 2934 Fit       0.000498
 2935 Fit       0.001782
 2936 Fit      -0.000167
 2937 Fit      -0.001327
 2938 Fit       0.001432
 2939 Fit       0.002356
 2940 Fit       0.000455
 2941 Fit      -0.004206
 2942 Fit      -0.005574
 2943 Fit      -0.000310
 2944 Fit       0.002119
 2945 Fit       0.002583
 2946 Fit       0.000785
 2947 Fit      -0.003402
 2948 Fit      -0.004068
 2949 Fit       0.000309
 2950 Fit       0.002423
 2951 Fit       0.002415
 2952 Fit       0.000447
 2953 Fit      -0.004005
 2954 Fit      -0.004456
 2955 Fit      -0.000181
 2956 Fit       0.002175
 2957 Fit       0.001878
 2958 Fit      -0.000330
 2959 Fit      -0.003348
 2960 Fit      -0.001031
 2961 Fit       0.001457
 2962 Fit       0.001077
 2963 Fit       0.000547
 2964 Fit       0.020297
 2965 Fit       0.018441
 2966 Fit       0.022755
 2967 Fit       0.018716
 2968 Fit       0.016429
 2969 Fit       0.017014
 2970 Fit       0.024261
 2971 Fit       0.018965
 2972 Fit       0.013659
 2973 Fit       0.011637
 2974 Fit       0.013577
 2975 Fit       0.016003
 2976 Fit       0.012508
 2977 Fit       0.006297
 2978 Fit       0.012387
 2979 Fit       0.025554
 2980 Fit       0.025527
 2981 Fit       0.026030
 2982 Fit       0.027017
 2983 Fit       0.026102
 2984 Fit       0.026360
 2985 Fit       0.026577
 2986 Fit       0.028388
 2987 Fit       0.026053
 2988 Fit       0.026653
 2989 Fit       0.024721
 2990 Fit       0.021643
 2991 Fit       0.022380
 2992 Fit       0.021334
 2993 Fit       0.023768
 2994 Fit       0.019214
 2995 Fit       0.017451
 2996 Fit       0.018805
 2997 Fit       0.015649
 2998 Fit       0.014455
 2999 Fit       0.014095
 3000 Fit       0.014792
 3001 Fit       0.012095
 3002 Fit       0.011592
 3003 Fit       0.011220
 3004 Fit       0.010479
 3005 Fit       0.009664
 3006 Fit       0.010822
 3007 Fit       0.008442
 3008 Fit       0.008139
 3009 Fit       0.006784
 3010 Fit       0.004166
 3011 Fit       0.004819
 3012 Fit       0.002416
 3013 Fit      -0.000677
 3014 Fit       0.023362
 3015 Fit       0.027242
 3016 Fit       0.025394
 3017 Fit       0.021997
 3018 Fit       0.020272
 3019 Fit       0.021600
 3020 Fit       0.026889
 3021 Fit       0.022709
 3022 Fit       0.019731
 3023 Fit       0.017834
 3024 Fit       0.017389
 3025 Fit       0.027884
 3026 Fit       0.023001
 3027 Fit       0.019774
 3028 Fit       0.017370
 3029 Fit       0.015431
 3030 Fit       0.014163
 3031 Fit       0.021215
 3032 Fit       0.018291
 3033 Fit       0.016014
 3034 Fit       0.013842
 3035 Fit       0.018437
 3036 Fit       0.015989
 3037 Fit       0.013975
 3038 Fit       0.011589
 3039 Fit       0.011738
 3040 Fit       0.009241
 3041 Fit       0.010781
 3042 Fit       0.011955
 3043 Fit       0.011542
 3044 Fit       0.010835
 3045 Fit       0.013025
 3046 Fit       0.013823
 3047 Fit       0.010419
 3048 Fit       0.013219
 3049 Fit       0.014733
 3050 Fit       0.014473
 3051 Fit       0.012992
 3052 Fit       0.010624
 3053 Fit       0.011844
 3054 Fit       0.012643
 3055 Fit       0.014630
 3056 Fit       0.014908
 3057 Fit       0.014283
 3058 Fit       0.013434
 3059 Fit       0.014217
 -----------------------------------------------------------------
 Leave Link  602 at Thu Jan 16 21:49:32 2014, MaxMem=   235929600 cpu:         1.1

 Test job not archived.
 1\1\GINC-G30\SP\RHF\Gen\C7H10Cl1N3O3\KOLAR\16-Jan-2014\0\\# hf/gen pop
 =mk iop(6/33=2,6/41=5,6/42=2)\\na resp\\0,1\C,0,1.141294,2.994586,0.34
 8506\C,0,1.687774,1.635568,0.061194\N,0,2.865762,1.415909,-0.522959\C,
 0,3.001976,0.069627,-0.598709\C,0,1.893267,-0.547144,-0.055251\N,0,1.0
 44632,0.470538,0.376449\C,0,-0.2694,0.354079,1.011472\C,0,-1.395042,0.
 138484,-0.008146\H,0,-1.122785,-0.70185,-0.659415\C,0,-2.689221,-0.215
 678,0.725531\Cl,0,-4.049951,-0.426627,-0.460524\O,0,-1.514412,1.343435
 ,-0.7452\N,0,1.637361,-1.936279,0.051885\O,0,2.523565,-2.698815,-0.339
 844\O,0,0.549011,-2.311245,0.523707\H,0,1.053612,3.178598,1.427136\H,0
 ,1.833288,3.728938,-0.067299\H,0,0.152944,3.12707,-0.101439\H,0,3.8668
 07,-0.411708,-1.031814\H,0,-0.235775,-0.47343,1.717858\H,0,-0.452702,1
 .284104,1.554652\H,0,-2.595375,-1.158782,1.266787\H,0,-2.99315,0.58345
 7,1.405078\H,0,-2.181183,1.200967,-1.437166\\Version=AM64L-G09RevD.01\
 State=1-A\HF=-1118.1691656\RMSD=6.951e-09\Dipole=-0.6841184,1.3730838,
 0.8041144\Quadrupole=-4.5086564,-3.8349264,8.3435828,0.5811139,-0.3969
 688,2.0551429\PG=C01 [X(C7H10Cl1N3O3)]\\@


 We find comfort among those who agree with us -- growth among those who don't.
 -- Frank A. Clark
 Job cpu time:       0 days  0 hours  2 minutes 40.5 seconds.
 File lengths (MBytes):  RWF=     28 Int=      0 D2E=      0 Chk=      3 Scr=      1
 Normal termination of Gaussian 09 at Thu Jan 16 21:49:32 2014.
160.10user 0.40system 2:45.35elapsed 97%CPU (0avgtext+0avgdata 603392maxresident)k
3840inputs+121304outputs (0major+170475minor)pagefaults 0swaps
