Linux g28 2.6.38.6-client #1 SMP Tue Jun 12 11:27:21 CEST 2012 x86_64 GNU/Linux
Fri Jan 17 11:54:31 CET 2014

 Entering Gaussian System, Link 0=/usr/local/programs/common/gaussian/gaussian09_d01/arch/amd64-pgi_10.4.0-acml/g09/g09
 Initial command:
 /usr/local/programs/common/gaussian/gaussian09_d01/arch/amd64-pgi_10.4.0-acml/g09/l1.exe "/scratch/kolar/g09_20304/Gau-2789.inp" -scrdir="/scratch/kolar/g09_20304/"
 Entering Link 1 = /usr/local/programs/common/gaussian/gaussian09_d01/arch/amd64-pgi_10.4.0-acml/g09/l1.exe PID=      2792.
  
 Copyright (c) 1988,1990,1992,1993,1995,1998,2003,2009,2013,
            Gaussian, Inc.  All Rights Reserved.
  
 This is part of the Gaussian(R) 09 program.  It is based on
 the Gaussian(R) 03 system (copyright 2003, Gaussian, Inc.),
 the Gaussian(R) 98 system (copyright 1998, Gaussian, Inc.),
 the Gaussian(R) 94 system (copyright 1995, Gaussian, Inc.),
 the Gaussian 92(TM) system (copyright 1992, Gaussian, Inc.),
 the Gaussian 90(TM) system (copyright 1990, Gaussian, Inc.),
 the Gaussian 88(TM) system (copyright 1988, Gaussian, Inc.),
 the Gaussian 86(TM) system (copyright 1986, Carnegie Mellon
 University), and the Gaussian 82(TM) system (copyright 1983,
 Carnegie Mellon University). Gaussian is a federally registered
 trademark of Gaussian, Inc.
  
 This software contains proprietary and confidential information,
 including trade secrets, belonging to Gaussian, Inc.
  
 This software is provided under written license and may be
 used, copied, transmitted, or stored only in accord with that
 written license.
  
 The following legend is applicable only to US Government
 contracts under FAR:
  
                    RESTRICTED RIGHTS LEGEND
  
 Use, reproduction and disclosure by the US Government is
 subject to restrictions as set forth in subparagraphs (a)
 and (c) of the Commercial Computer Software - Restricted
 Rights clause in FAR 52.227-19.
  
 Gaussian, Inc.
 340 Quinnipiac St., Bldg. 40, Wallingford CT 06492
  
  
 ---------------------------------------------------------------
 Warning -- This program may not be used in any manner that
 competes with the business of Gaussian, Inc. or will provide
 assistance to any competitor of Gaussian, Inc.  The licensee
 of this program is prohibited from giving any competitor of
 Gaussian, Inc. access to this program.  By using this program,
 the user acknowledges that Gaussian, Inc. is engaged in the
 business of creating and licensing software in the field of
 computational chemistry and represents and warrants to the
 licensee that it is not a competitor of Gaussian, Inc. and that
 it will not use this program in any manner prohibited above.
 ---------------------------------------------------------------
  

 Cite this work as:
 Gaussian 09, Revision D.01,
 M. J. Frisch, G. W. Trucks, H. B. Schlegel, G. E. Scuseria, 
 M. A. Robb, J. R. Cheeseman, G. Scalmani, V. Barone, B. Mennucci, 
 G. A. Petersson, H. Nakatsuji, M. Caricato, X. Li, H. P. Hratchian, 
 A. F. Izmaylov, J. Bloino, G. Zheng, J. L. Sonnenberg, M. Hada, 
 M. Ehara, K. Toyota, R. Fukuda, J. Hasegawa, M. Ishida, T. Nakajima, 
 Y. Honda, O. Kitao, H. Nakai, T. Vreven, J. A. Montgomery, Jr., 
 J. E. Peralta, F. Ogliaro, M. Bearpark, J. J. Heyd, E. Brothers, 
 K. N. Kudin, V. N. Staroverov, T. Keith, R. Kobayashi, J. Normand, 
 K. Raghavachari, A. Rendell, J. C. Burant, S. S. Iyengar, J. Tomasi, 
 M. Cossi, N. Rega, J. M. Millam, M. Klene, J. E. Knox, J. B. Cross, 
 V. Bakken, C. Adamo, J. Jaramillo, R. Gomperts, R. E. Stratmann, 
 O. Yazyev, A. J. Austin, R. Cammi, C. Pomelli, J. W. Ochterski, 
 R. L. Martin, K. Morokuma, V. G. Zakrzewski, G. A. Voth, 
 P. Salvador, J. J. Dannenberg, S. Dapprich, A. D. Daniels, 
 O. Farkas, J. B. Foresman, J. V. Ortiz, J. Cioslowski, 
 and D. J. Fox, Gaussian, Inc., Wallingford CT, 2013.
 
 ******************************************
 Gaussian 09:  AM64L-G09RevD.01 24-Apr-2013
                17-Jan-2014 
 ******************************************
 %mem=1800mb
 ------------------------------------------------------------------
 # hf/gen pseudo=read pop=(mk, readradii) iop(6/33=2,6/41=5,6/42=2)
 ------------------------------------------------------------------
 1/38=1/1;
 2/12=2,17=6,18=5,40=1/2;
 3/5=7,11=9,16=1,17=8,25=1,30=1/1,2,3;
 4//1;
 5/5=2,38=5/2;
 6/7=2,8=2,9=2,10=2,15=8,20=101,28=1,33=2,41=5,42=2/1,2;
 99/5=1,9=1/99;
 -------
 na resp
 -------
 Symbolic Z-matrix:
 Charge =  0 Multiplicity = 1
 6                     4.50529  -0.05945  -0.00036 
 8                     3.26744   0.66849  -0.00012 
 6                     2.14867  -0.0589   -0.00009 
 6                     0.86495   0.61257   0.00017 
 6                    -0.13962  -0.33198  -0.00013 
 16                    0.54993  -1.91271   0.00051 
 7                     2.14084  -1.36997  -0.00023 
 53                   -2.20775   0.00263  -0.00013 
 6                     0.70724   2.02365   0.00035 
 7                     0.58894   3.18085   0.00039 
 1                     4.57985  -0.6888    0.89124 
 1                     4.57968  -0.68847  -0.89221 
 1                     5.28528   0.70186  -0.0003 
 
                          Input orientation:                          
 ---------------------------------------------------------------------
 Center     Atomic      Atomic             Coordinates (Angstroms)
 Number     Number       Type             X           Y           Z
 ---------------------------------------------------------------------
      1          6           0        4.505294   -0.059446   -0.000364
      2          8           0        3.267441    0.668493   -0.000120
      3          6           0        2.148668   -0.058902   -0.000085
      4          6           0        0.864954    0.612567    0.000173
      5          6           0       -0.139622   -0.331980   -0.000133
      6         16           0        0.549926   -1.912709    0.000510
      7          7           0        2.140837   -1.369974   -0.000226
      8         53           0       -2.207751    0.002629   -0.000126
      9          6           0        0.707244    2.023647    0.000345
     10          7           0        0.588936    3.180853    0.000389
     11          1           0        4.579848   -0.688796    0.891241
     12          1           0        4.579679   -0.688474   -0.892209
     13          1           0        5.285276    0.701855   -0.000301
 ---------------------------------------------------------------------
                    Distance matrix (angstroms):
                    1          2          3          4          5
     1  C    0.000000
     2  O    1.436028   0.000000
     3  C    2.356626   1.334450   0.000000
     4  C    3.701848   2.403138   1.448721   0.000000
     5  C    4.652904   3.550919   2.304527   1.378892   0.000000
     6  S    4.368011   3.747998   2.447974   2.544850   1.724581
     7  N    2.703357   2.329074   1.311095   2.357615   2.505579
     8  I    6.713332   5.515533   4.356854   3.132657   2.095023
     9  C    4.331796   2.896731   2.532729   1.419866   2.503230
    10  N    5.083050   3.672376   3.595661   2.583075   3.587589
    11  H    1.093892   2.087863   2.664932   4.035838   4.816146
    12  H    1.093891   2.087858   2.664969   4.035869   4.816087
    13  H    1.089932   2.018111   3.227547   4.421224   5.522530
                    6          7          8          9         10
     6  S    0.000000
     7  N    1.680940   0.000000
     8  I    3.357574   4.560072   0.000000
     9  C    3.939498   3.684000   3.547071   0.000000
    10  N    5.093711   4.808162   4.233505   1.163238   0.000000
    11  H    4.304839   2.684677   6.880705   4.811248   5.629847
    12  H    4.305184   2.684777   6.880599   4.811237   5.629783
    13  H    5.409204   3.765630   7.525581   4.765030   5.310465
                   11         12         13
    11  H    0.000000
    12  H    1.783450   0.000000
    13  H    1.796214   1.796213   0.000000
 Stoichiometry    C5H3IN2OS
 Framework group  C1[X(C5H3IN2OS)]
 Deg. of freedom    33
 Full point group                 C1      NOp   1
 Largest Abelian subgroup         C1      NOp   1
 Largest concise Abelian subgroup C1      NOp   1
                         Standard orientation:                         
 ---------------------------------------------------------------------
 Center     Atomic      Atomic             Coordinates (Angstroms)
 Number     Number       Type             X           Y           Z
 ---------------------------------------------------------------------
      1          6           0       -4.505294   -0.059445    0.000364
      2          8           0       -3.267441    0.668493    0.000120
      3          6           0       -2.148668   -0.058902    0.000085
      4          6           0       -0.864954    0.612567   -0.000173
      5          6           0        0.139622   -0.331980    0.000133
      6         16           0       -0.549926   -1.912709   -0.000510
      7          7           0       -2.140837   -1.369974    0.000226
      8         53           0        2.207751    0.002629    0.000126
      9          6           0       -0.707244    2.023647   -0.000345
     10          7           0       -0.588936    3.180853   -0.000389
     11          1           0       -4.579848   -0.688795   -0.891241
     12          1           0       -4.579679   -0.688473    0.892209
     13          1           0       -5.285276    0.701856    0.000301
 ---------------------------------------------------------------------
 Rotational constants (GHZ):      1.4432171      0.4074109      0.3183621
 General basis read from cards:  (5D, 7F)
 ======================================================================================================
                                       Pseudopotential Parameters
 ======================================================================================================
  Center     Atomic      Valence      Angular      Power
  Number     Number     Electrons     Momentum     of R      Exponent        Coefficient   SO-Coeffient
 ======================================================================================================
    1          6
                                   No pseudopotential on this center.
    2          8
                                   No pseudopotential on this center.
    3          6
                                   No pseudopotential on this center.
    4          6
                                   No pseudopotential on this center.
    5          6
                                   No pseudopotential on this center.
    6         16
                                   No pseudopotential on this center.
    7          7
                                   No pseudopotential on this center.
    8         53            7
                                      F and up 
                                                     0        1.0715702       -0.07476210    0.00000000
                                                     1       44.1936028      -30.08112240    0.00000000
                                                     2       12.9367609      -75.37227210    0.00000000
                                                     2        3.1956412      -22.05637580    0.00000000
                                                     2        0.8589806       -1.69795850    0.00000000
                                      S - F
                                                     0      127.9202670        2.93800360    0.00000000
                                                     1       78.6211465       41.24712670    0.00000000
                                                     2       36.5146237      287.86800950    0.00000000
                                                     2        9.9065681      114.37585060    0.00000000
                                                     2        1.9420086       37.65477140    0.00000000
                                      P - F
                                                     0       13.0035304        2.22226300    0.00000000
                                                     1       76.0331404       39.40908310    0.00000000
                                                     2       24.1961684      177.40750020    0.00000000
                                                     2        6.4053433       77.98894620    0.00000000
                                                     2        1.5851786       25.75476410    0.00000000
                                      D - F
                                                     0       40.4278108        7.05243600    0.00000000
                                                     1       28.9084375       33.30416350    0.00000000
                                                     2       15.6268936      186.94538750    0.00000000
                                                     2        4.1442856       71.96883610    0.00000000
                                                     2        0.9377235        9.36306570    0.00000000
    9          6
                                   No pseudopotential on this center.
   10          7
                                   No pseudopotential on this center.
   11          1
                                   No pseudopotential on this center.
   12          1
                                   No pseudopotential on this center.
   13          1
                                   No pseudopotential on this center.
 ======================================================================================================
 There are   153 symmetry adapted cartesian basis functions of A   symmetry.
 There are   144 symmetry adapted basis functions of A   symmetry.
   144 basis functions,   300 primitive gaussians,   153 cartesian basis functions
    39 alpha electrons       39 beta electrons
       nuclear repulsion energy       533.8659865636 Hartrees.
 NAtoms=   13 NActive=   13 NUniq=   13 SFac= 1.00D+00 NAtFMM=   60 NAOKFM=F Big=F
 Integral buffers will be    131072 words long.
 Raffenetti 1 integral format.
 Two-electron integral symmetry is turned on.
 One-electron integrals computed using PRISM.
   1 Symmetry operations used in ECPInt.
 ECPInt:  NShTT=    1128 NPrTT=    7814 LenC2=    1098 LenP2D=    5119.
 LDataN:  DoStor=T MaxTD1= 5 Len=  102
 NBasis=   144 RedAO= T EigKep=  8.57D-04  NBF=   144
 NBsUse=   144 1.00D-06 EigRej= -1.00D+00 NBFU=   144
 ExpMin= 1.05D-01 ExpMax= 2.19D+04 ExpMxC= 3.30D+03 IAcc=1 IRadAn=         1 AccDes= 0.00D+00
 Harris functional with IExCor=  205 and IRadAn=       1 diagonalized for initial guess.
 HarFok:  IExCor=  205 AccDes= 0.00D+00 IRadAn=         1 IDoV= 1 UseB2=F ITyADJ=14
 ICtDFT=  3500011 ScaDFX=  1.000000  1.000000  1.000000  1.000000
 Defaulting to unpruned grid for atomic number  53.
 FoFCou: FMM=F IPFlag=           0 FMFlag=      100000 FMFlg1=           0
         NFxFlg=           0 DoJE=T BraDBF=F KetDBF=T FulRan=T
         wScrn=  0.000000 ICntrl=     500 IOpCl=  0 I1Cent=   200000004 NGrid=           0
         NMat0=    1 NMatS0=      1 NMatT0=    0 NMatD0=    1 NMtDS0=    0 NMtDT0=    0
 Petite list used in FoFCou.
 Keep R1 ints in memory in canonical form, NReq=56418905.
 Requested convergence on RMS density matrix=1.00D-08 within 128 cycles.
 Requested convergence on MAX density matrix=1.00D-06.
 Requested convergence on             energy=1.00D-06.
 No special actions if energy rises.
 SCF Done:  E(RHF) =  -783.458736465     A.U. after   16 cycles
            NFock= 16  Conv=0.82D-08     -V/T= 2.0113

 **********************************************************************

            Population analysis using the SCF density.

 **********************************************************************

 Orbital symmetries:
 BldTbl:  Degeneracy threshold= 1.00D-02
       Occupied  (A) (A) (A) (A) (A) (A) (A) (A) (A) (A) (A) (A)
                 (A) (A) (A) (A) (A) (A) (A) (A) (A) (A) (A) (A)
                 (A) (A) (A) (A) (A) (A) (A) (A) (A) (A) (A) (A)
                 (A) (A) (A)
       Virtual   (A) (A) (A) (A) (A) (A) (A) (A) (A) (A) (A) (A)
                 (A) (A) (A) (A) (A) (A) (A) (A) (A) (A) (A) (A)
                 (A) (A) (A) (A) (A) (A) (A) (A) (A) (A) (A) (A)
                 (A) (A) (A) (A) (A) (A) (A) (A) (A) (A) (A) (A)
                 (A) (A) (A) (A) (A) (A) (A) (A) (A) (A) (A) (A)
                 (A) (A) (A) (A) (A) (A) (A) (A) (A) (A) (A) (A)
                 (A) (A) (A) (A) (A) (A) (A) (A) (A) (A) (A) (A)
                 (A) (A) (A) (A) (A) (A) (A) (A) (A) (A) (A) (A)
                 (A) (A) (A) (A) (A) (A) (A) (A) (A)
 The electronic state is 1-A.
 Alpha  occ. eigenvalues --  -92.03023 -20.62634 -15.61026 -15.59553 -11.38486
 Alpha  occ. eigenvalues --  -11.37085 -11.31326 -11.29841 -11.29587  -9.04090
 Alpha  occ. eigenvalues --   -6.72271  -6.72129  -6.71943  -1.45824  -1.29530
 Alpha  occ. eigenvalues --   -1.22623  -1.12372  -1.05136  -0.97015  -0.93742
 Alpha  occ. eigenvalues --   -0.84861  -0.80188  -0.75189  -0.68650  -0.68461
 Alpha  occ. eigenvalues --   -0.63226  -0.59871  -0.57036  -0.56619  -0.53664
 Alpha  occ. eigenvalues --   -0.52275  -0.51783  -0.50356  -0.49210  -0.46286
 Alpha  occ. eigenvalues --   -0.44102  -0.40574  -0.37139  -0.36308
 Alpha virt. eigenvalues --    0.05822   0.06818   0.13656   0.16577   0.19785
 Alpha virt. eigenvalues --    0.21454   0.25687   0.29931   0.30033   0.30587
 Alpha virt. eigenvalues --    0.33489   0.36018   0.39998   0.41646   0.44086
 Alpha virt. eigenvalues --    0.48228   0.48759   0.50613   0.53163   0.54594
 Alpha virt. eigenvalues --    0.58638   0.59982   0.63059   0.69106   0.70789
 Alpha virt. eigenvalues --    0.71438   0.73797   0.73946   0.77039   0.80528
 Alpha virt. eigenvalues --    0.81674   0.82117   0.82225   0.85887   0.87851
 Alpha virt. eigenvalues --    0.90813   0.94936   0.95787   1.00152   1.02757
 Alpha virt. eigenvalues --    1.04713   1.07431   1.08442   1.10804   1.11428
 Alpha virt. eigenvalues --    1.14018   1.16910   1.18799   1.19790   1.20362
 Alpha virt. eigenvalues --    1.23816   1.25727   1.30137   1.32479   1.33567
 Alpha virt. eigenvalues --    1.36336   1.41896   1.47483   1.51262   1.53777
 Alpha virt. eigenvalues --    1.54707   1.58551   1.62993   1.65588   1.76343
 Alpha virt. eigenvalues --    1.78617   1.78932   1.82374   1.88819   1.92070
 Alpha virt. eigenvalues --    1.97045   1.97213   2.03231   2.08507   2.12427
 Alpha virt. eigenvalues --    2.14588   2.19535   2.23742   2.24267   2.24724
 Alpha virt. eigenvalues --    2.31859   2.34007   2.37659   2.41168   2.41830
 Alpha virt. eigenvalues --    2.51387   2.53444   2.56679   2.60529   2.62325
 Alpha virt. eigenvalues --    2.68068   2.75568   2.76016   2.87479   2.90467
 Alpha virt. eigenvalues --    2.95607   3.03709   3.12048   3.15885   3.16892
 Alpha virt. eigenvalues --    3.26204   3.39193   3.59306   3.78702  10.11598
          Condensed to atoms (all electrons):
               1          2          3          4          5          6
     1  C    4.874337   0.181907  -0.040737   0.003423  -0.000055   0.000141
     2  O    0.181907   8.421844   0.292257  -0.065968   0.003412   0.003318
     3  C   -0.040737   0.292257   4.168842   0.464247  -0.033181  -0.067924
     4  C    0.003423  -0.065968   0.464247   5.277851   0.442816  -0.103955
     5  C   -0.000055   0.003412  -0.033181   0.442816   5.760365   0.308344
     6  S    0.000141   0.003318  -0.067924  -0.103955   0.308344  15.095341
     7  N   -0.013120  -0.067758   0.532608  -0.085290  -0.067973   0.229574
     8  I    0.000002  -0.000019   0.000430  -0.053863   0.207218  -0.033124
     9  C   -0.000019  -0.002672  -0.039176   0.222133  -0.038951   0.002245
    10  N    0.000005  -0.000870  -0.001585  -0.090398  -0.000189  -0.000020
    11  H    0.390865  -0.032773  -0.003554  -0.000220   0.000001  -0.000236
    12  H    0.390869  -0.032771  -0.003553  -0.000220   0.000001  -0.000237
    13  H    0.394464  -0.029486   0.002675   0.000083   0.000006   0.000009
               7          8          9         10         11         12
     1  C   -0.013120   0.000002  -0.000019   0.000005   0.390865   0.390869
     2  O   -0.067758  -0.000019  -0.002672  -0.000870  -0.032773  -0.032771
     3  C    0.532608   0.000430  -0.039176  -0.001585  -0.003554  -0.003553
     4  C   -0.085290  -0.053863   0.222133  -0.090398  -0.000220  -0.000220
     5  C   -0.067973   0.207218  -0.038951  -0.000189   0.000001   0.000001
     6  S    0.229574  -0.033124   0.002245  -0.000020  -0.000236  -0.000237
     7  N    7.135659   0.002208   0.007862   0.000004   0.003536   0.003530
     8  I    0.002208   6.510235   0.002993  -0.000320   0.000000   0.000000
     9  C    0.007862   0.002993   4.598334   0.989088  -0.000001  -0.000001
    10  N    0.000004  -0.000320   0.989088   6.483586  -0.000001  -0.000001
    11  H    0.003536   0.000000  -0.000001  -0.000001   0.509856  -0.034329
    12  H    0.003530   0.000000  -0.000001  -0.000001  -0.034329   0.509858
    13  H    0.000210   0.000000  -0.000039   0.000001  -0.026859  -0.026859
              13
     1  C    0.394464
     2  O   -0.029486
     3  C    0.002675
     4  C    0.000083
     5  C    0.000006
     6  S    0.000009
     7  N    0.000210
     8  I    0.000000
     9  C   -0.000039
    10  N    0.000001
    11  H   -0.026859
    12  H   -0.026859
    13  H    0.485540
 Mulliken charges:
               1
     1  C   -0.182083
     2  O   -0.670420
     3  C    0.728652
     4  C   -0.010640
     5  C   -0.581814
     6  S    0.566525
     7  N   -0.681050
     8  I    0.364241
     9  C    0.258205
    10  N   -0.379300
    11  H    0.193714
    12  H    0.193713
    13  H    0.200258
 Sum of Mulliken charges =   0.00000
 Mulliken charges with hydrogens summed into heavy atoms:
               1
     1  C    0.405601
     2  O   -0.670420
     3  C    0.728652
     4  C   -0.010640
     5  C   -0.581814
     6  S    0.566525
     7  N   -0.681050
     8  I    0.364241
     9  C    0.258205
    10  N   -0.379300
 DipInt: DoE/N= T F RetVal/Mat= T F Init=T NMatP=  1 IDeriv=0 Min/MaxMlt=  0  4
 Entering OneElI...
 OneElI was handed   235867285 working-precision words.
 Multipole integrals L=0 to 4 MinM= 0 MaxM= 0.
 Requested accuracy = 0.1000D-12
 ShPair: Thresh= 1.00D-13 NBox=     0 BxSize= 0.00D+00 RnKept= 1.42D+01
         NSMCal=                 1128 NSMKep=                1055
 PrsmSu:  NPrtUS=   1 ThrOK=F IAlg=1 NPAlg=1 LenDen=           0.
 Prism:   IPart=     0 DynPar=F LinDyn=F Incr=          10.
 PRISM was handed   235756575 working-precision words and  1055 shell-pairs
 IPart=  0 NShTot=        1055 NBatch=          86 AvBLen=        12.3
 PrSmSu:  NxtVal=             11.
 Electronic moments (au):
        -78.00000000        191.80322573         -1.08308638          0.01086414
      -1423.13572248       -695.50557658        -64.46674378          1.87474621
          0.04512702          0.00293550       8425.05220715      -1081.62031635
         -0.00122302       1032.43946681        -14.20928633         -0.59871396
        111.97123109          7.57254009          0.42470493         -0.02883361
     -74683.32263847     -16540.24127453       -292.13194295        441.49920193
          4.65871845       1018.90033455          0.78038886          0.16920590
          0.02005820      -3916.54092421      -1481.53441499       -488.82237680
          0.12012783         -0.35849114        -61.23133639
 Electronic spatial extent (au):  <R**2>=           2183.1080
 DipInt: DoE/N= F T RetVal/Mat= T F Init=T NMatP=  1 IDeriv=0 Min/MaxMlt=  0  4
 Nuclear    moments (au):
         78.00000000       -191.91404705         -0.22852016         -0.01095986
       1377.90874846        625.07783154          5.67926140         -0.95339629
         -0.04581303          0.00001863      -8303.56527990       1000.68565981
          0.01558573       -944.95922024         15.74213227          0.61164740
        -49.15098106         -7.39058221         -0.42209976          0.02502667
      70041.45208428      13507.81370845         16.12686719       -428.55148974
         -4.70591623       -964.11229986         -0.65713993         -0.13335861
         -0.01737049       2407.87297269        425.37692398          9.61793717
         -0.09961510          0.38481497         63.96160868
 Total      moments (au):
          0.00000000         -0.11082132         -1.31160654         -0.00009573
        -45.22697402        -70.42774504        -58.78748238          0.92134993
         -0.00068602          0.00295414        121.48692725        -80.93465654
          0.01436271         87.48024657          1.53284594          0.01293344
         62.82025003          0.18195788          0.00260517         -0.00380695
      -4641.87055419      -3032.42756608       -276.00507577         12.94771220
         -0.04719778         54.78803468          0.12324893          0.03584728
          0.00268771      -1508.66795153      -1056.15749101       -479.20443963
          0.02051273          0.02632383          2.73027230
 Traceless Quadrup. (au):
         12.92042646        -12.28034456         -0.64008190          0.92134993
         -0.00068602          0.00295414
 Charge=              0.0000 electrons
 Dipole moment (field-independent basis, Debye):
    X=             -0.2817    Y=             -3.3338    Z=             -0.0002  Tot=              3.3456
 Quadrupole moment (field-independent basis, Debye-Ang):
   XX=            -60.8318   YY=            -94.7277   ZZ=            -79.0712
   XY=              1.2392   XZ=             -0.0009   YZ=              0.0040
 Traceless Quadrupole moment (field-independent basis, Debye-Ang):
   XX=             17.3784   YY=            -16.5175   ZZ=             -0.8609
   XY=              1.2392   XZ=             -0.0009   YZ=              0.0040
 Octapole moment (field-independent basis, Debye-Ang**2):
  XXX=             86.4697  YYY=            -57.6062  ZZZ=              0.0102  XYY=             62.2651
  XXY=              1.0910  XXZ=              0.0092  XZZ=             44.7130  YZZ=              0.1295
  YYZ=              0.0019  XYZ=             -0.0027
 Hexadecapole moment (field-independent basis, Debye-Ang**3):
 XXXX=          -1748.3509 YYYY=          -1142.1576 ZZZZ=           -103.9567 XXXY=              4.8767
 XXXZ=             -0.0178 YYYX=             20.6358 YYYZ=              0.0464 ZZZX=              0.0135
 ZZZY=              0.0010 XXYY=           -568.2367 XXZZ=           -397.7995 YYZZ=           -180.4914
 XXYZ=              0.0077 YYXZ=              0.0099 ZZXY=              1.0284
 N-N= 5.338659865636D+02 E-N=-2.912289227215D+03  KE= 7.747405104319D+02
 Entering OneElI...
 OneElI was handed   235881270 working-precision words.
 Calculate electrostatic properties
    NBasis =   144  MinDer = 0  MaxDer = 0
    NGrid  =    13  NMatD  =   1
 Requested accuracy = 0.1000D-12
 ShPair: Thresh= 1.00D-13 NBox=     0 BxSize= 0.00D+00 RnKept= 1.42D+01
         NSMCal=                 1128 NSMKep=                 992
 PrsmSu:  NPrtUS=   1 ThrOK=F IAlg=1 NPAlg=1 LenDen=           0.
 Prism:   IPart=     0 DynPar=F LinDyn=F Incr=         128.
 PRISM was handed   235776994 working-precision words and   992 shell-pairs
 IPart=  0 NShTot=       12896 NBatch=         992 AvBLen=        13.0
 PrSmSu:  NxtVal=            129.
 --------------------------------------------------------
       Center         ----      EFG at Nuclei      ----
                      3XX-RR        3YY-RR        3ZZ-RR
 --------------------------------------------------------
     1   Atom       -0.343731      0.098336      0.245396
     2   Atom       -1.806913      0.287344      1.519569
     3   Atom        0.086917      0.225431     -0.312348
     4   Atom        0.069425     -0.076698      0.007273
     5   Atom        0.003925      0.222088     -0.226014
     6   Atom       -2.283932     -0.110777      2.394709
     7   Atom       -0.081298      0.103225     -0.021927
     8   Atom       -0.102671      0.049988      0.052683
     9   Atom       -0.142611      0.336876     -0.194265
    10   Atom       -0.512522      0.862048     -0.349526
    11   Atom        0.130319      0.010041     -0.140360
    12   Atom        0.130326      0.010189     -0.140516
    13   Atom       -0.090727     -0.068911      0.159638
 --------------------------------------------------------
                        XY            XZ            YZ
 --------------------------------------------------------
     1   Atom       -0.307822      0.000109      0.000059
     2   Atom        0.186346      0.000287      0.000292
     3   Atom        0.115773     -0.000046      0.000018
     4   Atom       -0.019318     -0.000102      0.000113
     5   Atom       -0.148191      0.000026     -0.000070
     6   Atom       -0.861622      0.000802     -0.002193
     7   Atom        0.703334      0.000419     -0.000216
     8   Atom       -0.026231      0.000000     -0.000002
     9   Atom        0.049634      0.000017     -0.000058
    10   Atom        0.155055     -0.000100     -0.000127
    11   Atom       -0.027497     -0.019892     -0.205729
    12   Atom       -0.027449      0.019850      0.205682
    13   Atom        0.214268     -0.000015      0.000021
 --------------------------------------------------------


 ---------------------------------------------------------------------------------
              Nuclear Quadrupole Coupling Constant in Principal Axis System
 ---------------------------------------------------------------------------------

       Atom             a.u.   MegaHertz   Gauss  10(-4) cm-1        Axes

              Baa    -0.6984     3.354     1.197     1.119  0.7517 -0.6595 -0.0007
     7 N(14)  Bbb    -0.0219     0.105     0.038     0.035  0.0004 -0.0006  1.0000
              Bcc     0.7203    -3.459    -1.234    -1.154  0.6595  0.7517  0.0002
 
              Baa    -0.1071   -17.859    -6.373    -5.957  0.9863  0.1647  0.0000
     8 I(127) Bbb     0.0527     8.789     3.136     2.932 -0.0002  0.0012  1.0000
              Bcc     0.0544     9.070     3.236     3.026 -0.1647  0.9863 -0.0012
 
              Baa    -0.5298     2.544     0.908     0.849  0.9939 -0.1107  0.0005
    10 N(14)  Bbb    -0.3495     1.679     0.599     0.560 -0.0005  0.0002  1.0000
              Bcc     0.8793    -4.223    -1.507    -1.409  0.1107  0.9939 -0.0001
 

 ---------------------------------------------------------------------------------

 No NMR shielding tensors so no spin-rotation constants.
 Leave Link  601 at Fri Jan 17 11:54:41 2014, MaxMem=   235929600 cpu:         0.2
 FitSet:  NAtFit=    13 NAtPot=    13 NAtFrz=     0 MDM=    17 TotChg=   0.00000
 Merz-Kollman atomic radii used.
 Read replacement radii for each type of atom:
 Rad(53) =   2.700000000000D+00
 Atom Element Radius
    1     6    1.50
    2     8    1.40
    3     6    1.50
    4     6    1.50
    5     6    1.50
    6    16    1.75
    7     7    1.50
    8    53    2.70
    9     6    1.50
   10     7    1.50
   11     1    1.20
   12     1    1.20
   13     1    1.20
 Generate VDW surfaces: Layer= 5 Dens= 2 Start= 1.400 Inc= 0.179

 **********************************************************************

            Electrostatic Properties Using The SCF Density

 **********************************************************************

       Atomic Center    1 is at  -4.505294 -0.059445  0.000364
       Atomic Center    2 is at  -3.267441  0.668493  0.000120
       Atomic Center    3 is at  -2.148668 -0.058902  0.000085
       Atomic Center    4 is at  -0.864954  0.612567 -0.000173
       Atomic Center    5 is at   0.139622 -0.331980  0.000133
       Atomic Center    6 is at  -0.549926 -1.912709 -0.000510
       Atomic Center    7 is at  -2.140837 -1.369974  0.000226
       Atomic Center    8 is at   2.207751  0.002629  0.000126
       Atomic Center    9 is at  -0.707244  2.023647 -0.000345
       Atomic Center   10 is at  -0.588936  3.180853 -0.000389
       Atomic Center   11 is at  -4.579848 -0.688795 -0.891241
       Atomic Center   12 is at  -4.579679 -0.688473  0.892209
       Atomic Center   13 is at  -5.285276  0.701856  0.000301
      ESP Fit Center   14 is at  -4.146173  0.562571  1.973719
      ESP Fit Center   15 is at  -4.697398  1.276669  1.609057
      ESP Fit Center   16 is at  -5.800470  0.320852  1.609057
      ESP Fit Center   17 is at  -6.284206 -0.437565  1.050364
      ESP Fit Center   18 is at  -6.538177 -0.439457  0.365025
      ESP Fit Center   19 is at  -6.263625 -1.148158  0.365025
      ESP Fit Center   20 is at  -6.538177 -0.439457 -0.364297
      ESP Fit Center   21 is at  -6.263625 -1.148158 -0.364297
      ESP Fit Center   22 is at  -6.284206 -0.437565 -1.049636
      ESP Fit Center   23 is at  -4.697398  1.276669 -1.608329
      ESP Fit Center   24 is at  -5.800470  0.320852 -1.608329
      ESP Fit Center   25 is at  -4.146173  0.562571 -1.972990
      ESP Fit Center   26 is at  -3.267441  0.668493  1.960120
      ESP Fit Center   27 is at  -2.892411  1.318064  1.810924
      ESP Fit Center   28 is at  -3.642471  1.318064  1.810924
      ESP Fit Center   29 is at  -2.574476  1.868743  1.386049
      ESP Fit Center   30 is at  -3.267441  2.054423  1.386049
      ESP Fit Center   31 is at  -3.960406  1.868743  1.386049
      ESP Fit Center   32 is at  -2.707872  2.390670  0.750180
      ESP Fit Center   33 is at  -3.456722  2.469377  0.750180
      ESP Fit Center   34 is at  -4.172843  2.236696  0.750180
      ESP Fit Center   35 is at  -3.086595  2.620132  0.000120
      ESP Fit Center   36 is at  -3.803821  2.553672  0.000120
      ESP Fit Center   37 is at  -4.448605  2.232607  0.000120
      ESP Fit Center   38 is at  -2.707872  2.390670 -0.749939
      ESP Fit Center   39 is at  -3.456722  2.469377 -0.749939
      ESP Fit Center   40 is at  -4.172843  2.236696 -0.749939
      ESP Fit Center   41 is at  -2.574476  1.868743 -1.385809
      ESP Fit Center   42 is at  -3.267441  2.054423 -1.385809
      ESP Fit Center   43 is at  -3.960406  1.868743 -1.385809
      ESP Fit Center   44 is at  -2.892411  1.318064 -1.810684
      ESP Fit Center   45 is at  -3.642471  1.318064 -1.810684
      ESP Fit Center   46 is at  -3.267441  0.668493 -1.959880
      ESP Fit Center   47 is at  -2.148668 -0.058902  2.100085
      ESP Fit Center   48 is at  -1.430426 -0.058902  1.973440
      ESP Fit Center   49 is at  -1.789547  0.563114  1.973440
      ESP Fit Center   50 is at  -2.507789  0.563114  1.973440
      ESP Fit Center   51 is at  -2.866910 -0.058902  1.973440
      ESP Fit Center   52 is at  -2.507789 -0.680918  1.973440
      ESP Fit Center   53 is at  -1.789547 -0.680918  1.973440
      ESP Fit Center   54 is at  -1.430426 -0.058902 -1.973269
      ESP Fit Center   55 is at  -1.789547  0.563114 -1.973269
      ESP Fit Center   56 is at  -2.507789  0.563114 -1.973269
      ESP Fit Center   57 is at  -2.866910 -0.058902 -1.973269
      ESP Fit Center   58 is at  -2.507789 -0.680918 -1.973269
      ESP Fit Center   59 is at  -1.789547 -0.680918 -1.973269
      ESP Fit Center   60 is at  -2.148668 -0.058902 -2.099915
      ESP Fit Center   61 is at  -1.224075  1.234583  1.973182
      ESP Fit Center   62 is at  -1.583196  0.612567  1.973182
      ESP Fit Center   63 is at  -1.224075 -0.009449  1.973182
      ESP Fit Center   64 is at  -1.224075  1.234583 -1.973527
      ESP Fit Center   65 is at  -1.583196  0.612567 -1.973527
      ESP Fit Center   66 is at  -1.224075 -0.009449 -1.973527
      ESP Fit Center   67 is at  -0.549926 -1.912709  2.449490
      ESP Fit Center   68 is at  -0.928472 -1.257048  2.329579
      ESP Fit Center   69 is at  -1.307018 -1.912709  2.329579
      ESP Fit Center   70 is at  -0.928472 -2.568369  2.329579
      ESP Fit Center   71 is at  -0.171381 -2.568369  2.329579
      ESP Fit Center   72 is at  -1.269963 -0.665568  1.981582
      ESP Fit Center   73 is at  -1.797067 -2.632746  1.981582
      ESP Fit Center   74 is at  -1.269963 -3.159849  1.981582
      ESP Fit Center   75 is at  -0.549926 -3.352783  1.981582
      ESP Fit Center   76 is at   0.170111 -3.159849  1.981582
      ESP Fit Center   77 is at  -1.951477 -3.314259  1.439564
      ESP Fit Center   78 is at  -1.308440 -3.743923  1.439564
      ESP Fit Center   79 is at  -0.549926 -3.894801  1.439564
      ESP Fit Center   80 is at   0.208587 -3.743923  1.439564
      ESP Fit Center   81 is at   0.851624 -3.314259  1.439564
      ESP Fit Center   82 is at  -2.128052 -3.627011  0.756582
      ESP Fit Center   83 is at  -1.485912 -4.046542  0.756582
      ESP Fit Center   84 is at  -0.742343 -4.234839  0.756582
      ESP Fit Center   85 is at   0.022077 -4.171497  0.756582
      ESP Fit Center   86 is at   0.724511 -3.863381  0.756582
      ESP Fit Center   87 is at  -2.345903 -3.579132 -0.000510
      ESP Fit Center   88 is at  -1.774926 -4.034471 -0.000510
      ESP Fit Center   89 is at  -1.095103 -4.301282 -0.000510
      ESP Fit Center   90 is at  -0.366838 -4.355858 -0.000510
      ESP Fit Center   91 is at   0.345159 -4.193350 -0.000510
      ESP Fit Center   92 is at   0.977624 -3.828196 -0.000510
      ESP Fit Center   93 is at  -2.128052 -3.627011 -0.757602
      ESP Fit Center   94 is at  -1.485912 -4.046542 -0.757602
      ESP Fit Center   95 is at  -0.742343 -4.234839 -0.757602
      ESP Fit Center   96 is at   0.022077 -4.171497 -0.757602
      ESP Fit Center   97 is at   0.724511 -3.863381 -0.757602
      ESP Fit Center   98 is at  -1.951477 -3.314259 -1.440584
      ESP Fit Center   99 is at  -1.308440 -3.743923 -1.440584
      ESP Fit Center  100 is at  -0.549926 -3.894801 -1.440584
      ESP Fit Center  101 is at   0.208587 -3.743923 -1.440584
      ESP Fit Center  102 is at   0.851624 -3.314259 -1.440584
      ESP Fit Center  103 is at  -1.269963 -0.665568 -1.982602
      ESP Fit Center  104 is at  -1.797067 -2.632746 -1.982602
      ESP Fit Center  105 is at  -1.269963 -3.159849 -1.982602
      ESP Fit Center  106 is at  -0.549926 -3.352783 -1.982602
      ESP Fit Center  107 is at   0.170111 -3.159849 -1.982602
      ESP Fit Center  108 is at  -0.928472 -1.257048 -2.330598
      ESP Fit Center  109 is at  -1.307018 -1.912709 -2.330598
      ESP Fit Center  110 is at  -0.928472 -2.568369 -2.330598
      ESP Fit Center  111 is at  -0.171381 -2.568369 -2.330598
      ESP Fit Center  112 is at  -0.549926 -1.912709 -2.450510
      ESP Fit Center  113 is at  -2.140837 -1.369974  2.100226
      ESP Fit Center  114 is at  -1.781716 -0.747958  1.973581
      ESP Fit Center  115 is at  -2.499958 -0.747958  1.973581
      ESP Fit Center  116 is at  -2.859080 -1.369974  1.973581
      ESP Fit Center  117 is at  -2.499958 -1.991990  1.973581
      ESP Fit Center  118 is at  -3.436013 -1.750272  1.608919
      ESP Fit Center  119 is at  -3.024804 -2.390125  1.608919
      ESP Fit Center  120 is at  -2.332942 -2.706088  1.608919
      ESP Fit Center  121 is at  -3.612159 -2.438951  1.050226
      ESP Fit Center  122 is at  -3.050164 -2.944974  1.050226
      ESP Fit Center  123 is at  -3.899168 -2.458686  0.364887
      ESP Fit Center  124 is at  -3.387144 -3.020350  0.364887
      ESP Fit Center  125 is at  -2.706799 -3.359122  0.364887
      ESP Fit Center  126 is at  -3.899168 -2.458686 -0.364435
      ESP Fit Center  127 is at  -3.387144 -3.020350 -0.364435
      ESP Fit Center  128 is at  -2.706799 -3.359122 -0.364435
      ESP Fit Center  129 is at  -3.612159 -2.438951 -1.049774
      ESP Fit Center  130 is at  -3.050164 -2.944974 -1.049774
      ESP Fit Center  131 is at  -3.436013 -1.750272 -1.608467
      ESP Fit Center  132 is at  -3.024804 -2.390125 -1.608467
      ESP Fit Center  133 is at  -2.332942 -2.706088 -1.608467
      ESP Fit Center  134 is at  -1.781716 -0.747958 -1.973128
      ESP Fit Center  135 is at  -2.499958 -0.747958 -1.973128
      ESP Fit Center  136 is at  -2.859080 -1.369974 -1.973128
      ESP Fit Center  137 is at  -2.499958 -1.991990 -1.973128
      ESP Fit Center  138 is at  -2.140837 -1.369974 -2.099774
      ESP Fit Center  139 is at   2.207751  0.002629  3.780126
      ESP Fit Center  140 is at   2.945192  0.002629  3.707494
      ESP Fit Center  141 is at   2.576472  0.641272  3.707494
      ESP Fit Center  142 is at   1.839030  0.641272  3.707494
      ESP Fit Center  143 is at   1.470309  0.002629  3.707494
      ESP Fit Center  144 is at   1.839030 -0.636014  3.707494
      ESP Fit Center  145 is at   2.576472 -0.636014  3.707494
      ESP Fit Center  146 is at   3.654294  0.002629  3.492391
      ESP Fit Center  147 is at   3.460494  0.725901  3.492391
      ESP Fit Center  148 is at   2.931023  1.255372  3.492391
      ESP Fit Center  149 is at   2.207751  1.449172  3.492391
      ESP Fit Center  150 is at   1.484479  1.255372  3.492391
      ESP Fit Center  151 is at   0.955008  0.725901  3.492391
      ESP Fit Center  152 is at   0.761207  0.002629  3.492391
      ESP Fit Center  153 is at   0.955008 -0.720643  3.492391
      ESP Fit Center  154 is at   1.484479 -1.250114  3.492391
      ESP Fit Center  155 is at   2.207751 -1.443915  3.492391
      ESP Fit Center  156 is at   2.931023 -1.250114  3.492391
      ESP Fit Center  157 is at   3.460494 -0.720643  3.492391
      ESP Fit Center  158 is at   4.307806  0.002629  3.143081
      ESP Fit Center  159 is at   4.181158  0.720890  3.143081
      ESP Fit Center  160 is at   3.816487  1.352519  3.143081
      ESP Fit Center  161 is at   3.257779  1.821330  3.143081
      ESP Fit Center  162 is at   2.572422  2.070780  3.143081
      ESP Fit Center  163 is at   1.843080  2.070780  3.143081
      ESP Fit Center  164 is at   1.157723  1.821330  3.143081
      ESP Fit Center  165 is at   0.599015  1.352519  3.143081
      ESP Fit Center  166 is at   0.234344  0.720890  3.143081
      ESP Fit Center  167 is at   0.107695  0.002629  3.143081
      ESP Fit Center  168 is at   0.234344 -0.715632  3.143081
      ESP Fit Center  169 is at   0.599015 -1.347261  3.143081
      ESP Fit Center  170 is at   1.157723 -1.816073  3.143081
      ESP Fit Center  171 is at   1.843080 -2.065522  3.143081
      ESP Fit Center  172 is at   2.572422 -2.065522  3.143081
      ESP Fit Center  173 is at   3.257779 -1.816073  3.143081
      ESP Fit Center  174 is at   3.816487 -1.347261  3.143081
      ESP Fit Center  175 is at   4.181158 -0.715632  3.143081
      ESP Fit Center  176 is at   4.880614  0.002629  2.672990
      ESP Fit Center  177 is at   4.781497  0.723759  2.672990
      ESP Fit Center  178 is at   4.491497  1.391406  2.672990
      ESP Fit Center  179 is at   4.032122  1.956054  2.672990
      ESP Fit Center  180 is at   3.437442  2.375825  2.672990
      ESP Fit Center  181 is at   2.751561  2.619587  2.672990
      ESP Fit Center  182 is at   2.025348  2.669261  2.672990
      ESP Fit Center  183 is at   1.312663  2.521164  2.672990
      ESP Fit Center  184 is at   0.666363  2.186278  2.672990
      ESP Fit Center  185 is at   0.134380  1.689441  2.672990
      ESP Fit Center  186 is at  -0.243830  1.067501  2.672990
      ESP Fit Center  187 is at  -0.440218  0.366584  2.672990
      ESP Fit Center  188 is at  -0.440218 -0.361326  2.672990
      ESP Fit Center  189 is at  -0.243830 -1.062243  2.672990
      ESP Fit Center  190 is at   0.134380 -1.684183  2.672990
      ESP Fit Center  191 is at   0.666363 -2.181020  2.672990
      ESP Fit Center  192 is at   1.312663 -2.515906  2.672990
      ESP Fit Center  193 is at   2.025348 -2.664004  2.672990
      ESP Fit Center  194 is at   2.751561 -2.614329  2.672990
      ESP Fit Center  195 is at   3.437442 -2.370567  2.672990
      ESP Fit Center  196 is at   4.032122 -1.950796  2.672990
      ESP Fit Center  197 is at   4.491497 -1.386148  2.672990
      ESP Fit Center  198 is at   4.781497 -0.718501  2.672990
      ESP Fit Center  199 is at   5.350706  0.002629  2.100182
      ESP Fit Center  200 is at   5.265987  0.727444  2.100182
      ESP Fit Center  201 is at   5.016398  1.413185  2.100182
      ESP Fit Center  202 is at   4.615394  2.022881  2.100182
      ESP Fit Center  203 is at   4.084594  2.523666  2.100182
      ESP Fit Center  204 is at   3.452612  2.888541  2.100182
      ESP Fit Center  205 is at   2.753519  3.097835  2.100182
      ESP Fit Center  206 is at   2.025004  3.140267  2.100182
      ESP Fit Center  207 is at   1.306341  3.013547  2.100182
      ESP Fit Center  208 is at   0.636273  2.724508  2.100182
      ESP Fit Center  209 is at   0.050924  2.288732  2.100182
      ESP Fit Center  210 is at  -0.418150  1.729711  2.100182
      ESP Fit Center  211 is at  -0.745661  1.077583  2.100182
      ESP Fit Center  212 is at  -0.913953  0.367504  2.100182
      ESP Fit Center  213 is at  -0.913953 -0.362246  2.100182
      ESP Fit Center  214 is at   0.636273 -2.719250  2.100182
      ESP Fit Center  215 is at   1.306341 -3.008289  2.100182
      ESP Fit Center  216 is at   2.025004 -3.135009  2.100182
      ESP Fit Center  217 is at   2.753519 -3.092578  2.100182
      ESP Fit Center  218 is at   3.452612 -2.883283  2.100182
      ESP Fit Center  219 is at   4.084594 -2.518408  2.100182
      ESP Fit Center  220 is at   4.615394 -2.017624  2.100182
      ESP Fit Center  221 is at   5.016398 -1.407927  2.100182
      ESP Fit Center  222 is at   5.265987 -0.722186  2.100182
      ESP Fit Center  223 is at   5.700015  0.002629  1.446669
      ESP Fit Center  224 is at   5.623701  0.728712  1.446669
      ESP Fit Center  225 is at   5.398093  1.423061  1.446669
      ESP Fit Center  226 is at   5.033052  2.055331  1.446669
      ESP Fit Center  227 is at   4.544532  2.597887  1.446669
      ESP Fit Center  228 is at   3.953883  3.027019  1.446669
      ESP Fit Center  229 is at   3.286920  3.323970  1.446669
      ESP Fit Center  230 is at   2.572792  3.475763  1.446669
      ESP Fit Center  231 is at   1.842710  3.475763  1.446669
      ESP Fit Center  232 is at   1.128582  3.323970  1.446669
      ESP Fit Center  233 is at   1.128582 -3.318712  1.446669
      ESP Fit Center  234 is at   1.842710 -3.470505  1.446669
      ESP Fit Center  235 is at   2.572792 -3.470505  1.446669
      ESP Fit Center  236 is at   3.286920 -3.318712  1.446669
      ESP Fit Center  237 is at   3.953883 -3.021761  1.446669
      ESP Fit Center  238 is at   4.544532 -2.592630  1.446669
      ESP Fit Center  239 is at   5.033052 -2.050073  1.446669
      ESP Fit Center  240 is at   5.398093 -1.417803  1.446669
      ESP Fit Center  241 is at   5.623701 -0.723454  1.446669
      ESP Fit Center  242 is at   5.915119  0.002629  0.737567
      ESP Fit Center  243 is at   5.843883  0.725901  0.737567
      ESP Fit Center  244 is at   5.632913  1.421377  0.737567
      ESP Fit Center  245 is at   5.290315  2.062332  0.737567
      ESP Fit Center  246 is at   4.829256  2.624134  0.737567
      ESP Fit Center  247 is at   4.267454  3.085193  0.737567
      ESP Fit Center  248 is at   3.626499  3.427791  0.737567
      ESP Fit Center  249 is at   2.931023  3.638761  0.737567
      ESP Fit Center  250 is at   2.207751  3.709997  0.737567
      ESP Fit Center  251 is at   1.484479  3.638761  0.737567
      ESP Fit Center  252 is at   1.484479 -3.633503  0.737567
      ESP Fit Center  253 is at   2.207751 -3.704739  0.737567
      ESP Fit Center  254 is at   2.931023 -3.633503  0.737567
      ESP Fit Center  255 is at   3.626499 -3.422533  0.737567
      ESP Fit Center  256 is at   4.267454 -3.079935  0.737567
      ESP Fit Center  257 is at   4.829256 -2.618876  0.737567
      ESP Fit Center  258 is at   5.290315 -2.057075  0.737567
      ESP Fit Center  259 is at   5.632913 -1.416120  0.737567
      ESP Fit Center  260 is at   5.843883 -0.720643  0.737567
      ESP Fit Center  261 is at   5.987751  0.002629  0.000126
      ESP Fit Center  262 is at   5.919441  0.717999  0.000126
      ESP Fit Center  263 is at   5.716982  1.407513  0.000126
      ESP Fit Center  264 is at   5.387689  2.046251  0.000126
      ESP Fit Center  265 is at   4.943466  2.611128  0.000126
      ESP Fit Center  266 is at   4.400366  3.081726  0.000126
      ESP Fit Center  267 is at   3.778020  3.441038  0.000126
      ESP Fit Center  268 is at   3.098920  3.676077  0.000126
      ESP Fit Center  269 is at   2.387611  3.778347  0.000126
      ESP Fit Center  270 is at   1.669801  3.744154  0.000126
      ESP Fit Center  271 is at   1.669801 -3.738896  0.000126
      ESP Fit Center  272 is at   2.387611 -3.773090  0.000126
      ESP Fit Center  273 is at   3.098920 -3.670819  0.000126
      ESP Fit Center  274 is at   3.778020 -3.435780  0.000126
      ESP Fit Center  275 is at   4.400366 -3.076468  0.000126
      ESP Fit Center  276 is at   4.943466 -2.605870  0.000126
      ESP Fit Center  277 is at   5.387689 -2.040993  0.000126
      ESP Fit Center  278 is at   5.716982 -1.402255  0.000126
      ESP Fit Center  279 is at   5.919441 -0.712741  0.000126
      ESP Fit Center  280 is at   5.915119  0.002629 -0.737315
      ESP Fit Center  281 is at   5.843883  0.725901 -0.737315
      ESP Fit Center  282 is at   5.632913  1.421377 -0.737315
      ESP Fit Center  283 is at   5.290315  2.062332 -0.737315
      ESP Fit Center  284 is at   4.829256  2.624134 -0.737315
      ESP Fit Center  285 is at   4.267454  3.085193 -0.737315
      ESP Fit Center  286 is at   3.626499  3.427791 -0.737315
      ESP Fit Center  287 is at   2.931023  3.638761 -0.737315
      ESP Fit Center  288 is at   2.207751  3.709997 -0.737315
      ESP Fit Center  289 is at   1.484479  3.638761 -0.737315
      ESP Fit Center  290 is at   1.484479 -3.633503 -0.737315
      ESP Fit Center  291 is at   2.207751 -3.704739 -0.737315
      ESP Fit Center  292 is at   2.931023 -3.633503 -0.737315
      ESP Fit Center  293 is at   3.626499 -3.422533 -0.737315
      ESP Fit Center  294 is at   4.267454 -3.079935 -0.737315
      ESP Fit Center  295 is at   4.829256 -2.618876 -0.737315
      ESP Fit Center  296 is at   5.290315 -2.057075 -0.737315
      ESP Fit Center  297 is at   5.632913 -1.416120 -0.737315
      ESP Fit Center  298 is at   5.843883 -0.720643 -0.737315
      ESP Fit Center  299 is at   5.700015  0.002629 -1.446417
      ESP Fit Center  300 is at   5.623701  0.728712 -1.446417
      ESP Fit Center  301 is at   5.398093  1.423061 -1.446417
      ESP Fit Center  302 is at   5.033052  2.055331 -1.446417
      ESP Fit Center  303 is at   4.544532  2.597887 -1.446417
      ESP Fit Center  304 is at   3.953883  3.027019 -1.446417
      ESP Fit Center  305 is at   3.286920  3.323970 -1.446417
      ESP Fit Center  306 is at   2.572792  3.475763 -1.446417
      ESP Fit Center  307 is at   1.842710  3.475763 -1.446417
      ESP Fit Center  308 is at   1.128582  3.323970 -1.446417
      ESP Fit Center  309 is at   1.128582 -3.318712 -1.446417
      ESP Fit Center  310 is at   1.842710 -3.470505 -1.446417
      ESP Fit Center  311 is at   2.572792 -3.470505 -1.446417
      ESP Fit Center  312 is at   3.286920 -3.318712 -1.446417
      ESP Fit Center  313 is at   3.953883 -3.021761 -1.446417
      ESP Fit Center  314 is at   4.544532 -2.592630 -1.446417
      ESP Fit Center  315 is at   5.033052 -2.050073 -1.446417
      ESP Fit Center  316 is at   5.398093 -1.417803 -1.446417
      ESP Fit Center  317 is at   5.623701 -0.723454 -1.446417
      ESP Fit Center  318 is at   5.350706  0.002629 -2.099929
      ESP Fit Center  319 is at   5.265987  0.727444 -2.099929
      ESP Fit Center  320 is at   5.016398  1.413185 -2.099929
      ESP Fit Center  321 is at   4.615394  2.022881 -2.099929
      ESP Fit Center  322 is at   4.084594  2.523666 -2.099929
      ESP Fit Center  323 is at   3.452612  2.888541 -2.099929
      ESP Fit Center  324 is at   2.753519  3.097835 -2.099929
      ESP Fit Center  325 is at   2.025004  3.140267 -2.099929
      ESP Fit Center  326 is at   1.306341  3.013547 -2.099929
      ESP Fit Center  327 is at   0.636273  2.724508 -2.099929
      ESP Fit Center  328 is at   0.050924  2.288732 -2.099929
      ESP Fit Center  329 is at  -0.418150  1.729711 -2.099929
      ESP Fit Center  330 is at  -0.745661  1.077583 -2.099929
      ESP Fit Center  331 is at  -0.913953  0.367504 -2.099929
      ESP Fit Center  332 is at  -0.913953 -0.362246 -2.099929
      ESP Fit Center  333 is at   0.636273 -2.719250 -2.099929
      ESP Fit Center  334 is at   1.306341 -3.008289 -2.099929
      ESP Fit Center  335 is at   2.025004 -3.135009 -2.099929
      ESP Fit Center  336 is at   2.753519 -3.092578 -2.099929
      ESP Fit Center  337 is at   3.452612 -2.883283 -2.099929
      ESP Fit Center  338 is at   4.084594 -2.518408 -2.099929
      ESP Fit Center  339 is at   4.615394 -2.017624 -2.099929
      ESP Fit Center  340 is at   5.016398 -1.407927 -2.099929
      ESP Fit Center  341 is at   5.265987 -0.722186 -2.099929
      ESP Fit Center  342 is at   4.880614  0.002629 -2.672738
      ESP Fit Center  343 is at   4.781497  0.723759 -2.672738
      ESP Fit Center  344 is at   4.491497  1.391406 -2.672738
      ESP Fit Center  345 is at   4.032122  1.956054 -2.672738
      ESP Fit Center  346 is at   3.437442  2.375825 -2.672738
      ESP Fit Center  347 is at   2.751561  2.619587 -2.672738
      ESP Fit Center  348 is at   2.025348  2.669261 -2.672738
      ESP Fit Center  349 is at   1.312663  2.521164 -2.672738
      ESP Fit Center  350 is at   0.666363  2.186278 -2.672738
      ESP Fit Center  351 is at   0.134380  1.689441 -2.672738
      ESP Fit Center  352 is at  -0.243830  1.067501 -2.672738
      ESP Fit Center  353 is at  -0.440218  0.366584 -2.672738
      ESP Fit Center  354 is at  -0.440218 -0.361326 -2.672738
      ESP Fit Center  355 is at  -0.243830 -1.062243 -2.672738
      ESP Fit Center  356 is at   0.134380 -1.684183 -2.672738
      ESP Fit Center  357 is at   0.666363 -2.181020 -2.672738
      ESP Fit Center  358 is at   1.312663 -2.515906 -2.672738
      ESP Fit Center  359 is at   2.025348 -2.664004 -2.672738
      ESP Fit Center  360 is at   2.751561 -2.614329 -2.672738
      ESP Fit Center  361 is at   3.437442 -2.370567 -2.672738
      ESP Fit Center  362 is at   4.032122 -1.950796 -2.672738
      ESP Fit Center  363 is at   4.491497 -1.386148 -2.672738
      ESP Fit Center  364 is at   4.781497 -0.718501 -2.672738
      ESP Fit Center  365 is at   4.307806  0.002629 -3.142829
      ESP Fit Center  366 is at   4.181158  0.720890 -3.142829
      ESP Fit Center  367 is at   3.816487  1.352519 -3.142829
      ESP Fit Center  368 is at   3.257779  1.821330 -3.142829
      ESP Fit Center  369 is at   2.572422  2.070780 -3.142829
      ESP Fit Center  370 is at   1.843080  2.070780 -3.142829
      ESP Fit Center  371 is at   1.157723  1.821330 -3.142829
      ESP Fit Center  372 is at   0.599015  1.352519 -3.142829
      ESP Fit Center  373 is at   0.234344  0.720890 -3.142829
      ESP Fit Center  374 is at   0.107695  0.002629 -3.142829
      ESP Fit Center  375 is at   0.234344 -0.715632 -3.142829
      ESP Fit Center  376 is at   0.599015 -1.347261 -3.142829
      ESP Fit Center  377 is at   1.157723 -1.816073 -3.142829
      ESP Fit Center  378 is at   1.843080 -2.065522 -3.142829
      ESP Fit Center  379 is at   2.572422 -2.065522 -3.142829
      ESP Fit Center  380 is at   3.257779 -1.816073 -3.142829
      ESP Fit Center  381 is at   3.816487 -1.347261 -3.142829
      ESP Fit Center  382 is at   4.181158 -0.715632 -3.142829
      ESP Fit Center  383 is at   3.654294  0.002629 -3.492139
      ESP Fit Center  384 is at   3.460494  0.725901 -3.492139
      ESP Fit Center  385 is at   2.931023  1.255372 -3.492139
      ESP Fit Center  386 is at   2.207751  1.449172 -3.492139
      ESP Fit Center  387 is at   1.484479  1.255372 -3.492139
      ESP Fit Center  388 is at   0.955008  0.725901 -3.492139
      ESP Fit Center  389 is at   0.761207  0.002629 -3.492139
      ESP Fit Center  390 is at   0.955008 -0.720643 -3.492139
      ESP Fit Center  391 is at   1.484479 -1.250114 -3.492139
      ESP Fit Center  392 is at   2.207751 -1.443915 -3.492139
      ESP Fit Center  393 is at   2.931023 -1.250114 -3.492139
      ESP Fit Center  394 is at   3.460494 -0.720643 -3.492139
      ESP Fit Center  395 is at   2.945192  0.002629 -3.707242
      ESP Fit Center  396 is at   2.576472  0.641272 -3.707242
      ESP Fit Center  397 is at   1.839030  0.641272 -3.707242
      ESP Fit Center  398 is at   1.470309  0.002629 -3.707242
      ESP Fit Center  399 is at   1.839030 -0.636014 -3.707242
      ESP Fit Center  400 is at   2.576472 -0.636014 -3.707242
      ESP Fit Center  401 is at   2.207751  0.002629 -3.779874
      ESP Fit Center  402 is at  -0.707244  2.023647  2.099655
      ESP Fit Center  403 is at  -1.425486  2.023647  1.973010
      ESP Fit Center  404 is at  -1.066365  1.401631  1.973010
      ESP Fit Center  405 is at  -2.002419  2.403945  1.608348
      ESP Fit Center  406 is at  -2.002419  1.643349  1.608348
      ESP Fit Center  407 is at  -2.486155  2.401766  1.049655
      ESP Fit Center  408 is at  -2.486155  2.401766 -1.050345
      ESP Fit Center  409 is at  -2.002419  2.403945 -1.609038
      ESP Fit Center  410 is at  -2.002419  1.643349 -1.609038
      ESP Fit Center  411 is at  -1.425486  2.023647 -1.973699
      ESP Fit Center  412 is at  -1.066365  1.401631 -1.973699
      ESP Fit Center  413 is at  -0.707244  2.023647 -2.100345
      ESP Fit Center  414 is at  -0.588936  3.180853  2.099611
      ESP Fit Center  415 is at   0.129306  3.180853  1.972966
      ESP Fit Center  416 is at  -0.229815  3.802869  1.972966
      ESP Fit Center  417 is at  -0.948057  3.802869  1.972966
      ESP Fit Center  418 is at  -1.307178  3.180853  1.972966
      ESP Fit Center  419 is at   0.760918  3.180853  1.608304
      ESP Fit Center  420 is at   0.546634  3.910639  1.608304
      ESP Fit Center  421 is at  -0.028186  4.408723  1.608304
      ESP Fit Center  422 is at  -0.781040  4.516968  1.608304
      ESP Fit Center  423 is at  -1.472902  4.201005  1.608304
      ESP Fit Center  424 is at  -1.884111  3.561151  1.608304
      ESP Fit Center  425 is at  -1.884111  2.800555  1.608304
      ESP Fit Center  426 is at   1.072487  3.920566  1.049611
      ESP Fit Center  427 is at   0.627981  4.532376  1.049611
      ESP Fit Center  428 is at  -0.026941  4.910495  1.049611
      ESP Fit Center  429 is at  -0.779037  4.989544  1.049611
      ESP Fit Center  430 is at  -1.498263  4.755853  1.049611
      ESP Fit Center  431 is at  -2.060257  4.249831  1.049611
      ESP Fit Center  432 is at  -2.367847  3.558972  1.049611
      ESP Fit Center  433 is at  -2.367847  2.802734  1.049611
      ESP Fit Center  434 is at   1.339507  3.927936  0.364272
      ESP Fit Center  435 is at   0.939406  4.574121  0.364272
      ESP Fit Center  436 is at   0.332894  5.032137  0.364272
      ESP Fit Center  437 is at  -0.398116  5.240127  0.364272
      ESP Fit Center  438 is at  -1.154897  5.170001  0.364272
      ESP Fit Center  439 is at  -1.835242  4.831230  0.364272
      ESP Fit Center  440 is at  -2.347267  4.269566  0.364272
      ESP Fit Center  441 is at  -2.621819  3.560865  0.364272
      ESP Fit Center  442 is at   1.339507  3.927936 -0.365050
      ESP Fit Center  443 is at   0.939406  4.574121 -0.365050
      ESP Fit Center  444 is at   0.332894  5.032137 -0.365050
      ESP Fit Center  445 is at  -0.398116  5.240127 -0.365050
      ESP Fit Center  446 is at  -1.154897  5.170001 -0.365050
      ESP Fit Center  447 is at  -1.835242  4.831230 -0.365050
      ESP Fit Center  448 is at  -2.347267  4.269566 -0.365050
      ESP Fit Center  449 is at  -2.621819  3.560865 -0.365050
      ESP Fit Center  450 is at   1.072487  3.920566 -1.050389
      ESP Fit Center  451 is at   0.627981  4.532376 -1.050389
      ESP Fit Center  452 is at  -0.026941  4.910495 -1.050389
      ESP Fit Center  453 is at  -0.779037  4.989544 -1.050389
      ESP Fit Center  454 is at  -1.498263  4.755853 -1.050389
      ESP Fit Center  455 is at  -2.060257  4.249831 -1.050389
      ESP Fit Center  456 is at  -2.367847  3.558972 -1.050389
      ESP Fit Center  457 is at  -2.367847  2.802734 -1.050389
      ESP Fit Center  458 is at   0.760918  3.180853 -1.609082
      ESP Fit Center  459 is at   0.546634  3.910639 -1.609082
      ESP Fit Center  460 is at  -0.028186  4.408723 -1.609082
      ESP Fit Center  461 is at  -0.781040  4.516968 -1.609082
      ESP Fit Center  462 is at  -1.472902  4.201005 -1.609082
      ESP Fit Center  463 is at  -1.884111  3.561151 -1.609082
      ESP Fit Center  464 is at  -1.884111  2.800555 -1.609082
      ESP Fit Center  465 is at   0.129306  3.180853 -1.973743
      ESP Fit Center  466 is at  -0.229815  3.802869 -1.973743
      ESP Fit Center  467 is at  -0.948057  3.802869 -1.973743
      ESP Fit Center  468 is at  -1.307178  3.180853 -1.973743
      ESP Fit Center  469 is at  -0.588936  3.180853 -2.100389
      ESP Fit Center  470 is at  -5.805818 -1.774910 -0.517406
      ESP Fit Center  471 is at  -5.160648 -2.220239 -0.517406
      ESP Fit Center  472 is at  -4.382424 -2.314732 -0.517406
      ESP Fit Center  473 is at  -6.170133 -0.296825 -1.265076
      ESP Fit Center  474 is at  -6.170133 -1.080766 -1.265076
      ESP Fit Center  475 is at  -5.805818 -1.774910 -1.265076
      ESP Fit Center  476 is at  -5.160648 -2.220239 -1.265076
      ESP Fit Center  477 is at  -4.382424 -2.314732 -1.265076
      ESP Fit Center  478 is at  -3.266371 -0.688795 -1.938704
      ESP Fit Center  479 is at  -3.517223  0.083247 -1.938704
      ESP Fit Center  480 is at  -5.642473  0.083247 -1.938704
      ESP Fit Center  481 is at  -5.893325 -0.688795 -1.938704
      ESP Fit Center  482 is at  -5.642473 -1.460838 -1.938704
      ESP Fit Center  483 is at  -4.985735 -1.937986 -1.938704
      ESP Fit Center  484 is at  -4.173962 -1.937986 -1.938704
      ESP Fit Center  485 is at  -3.517223 -1.460838 -1.938704
      ESP Fit Center  486 is at  -3.850924 -0.688795 -2.404869
      ESP Fit Center  487 is at  -4.215386 -0.057528 -2.404869
      ESP Fit Center  488 is at  -4.944311 -0.057528 -2.404869
      ESP Fit Center  489 is at  -5.308773 -0.688795 -2.404869
      ESP Fit Center  490 is at  -4.944311 -1.320063 -2.404869
      ESP Fit Center  491 is at  -4.215386 -1.320063 -2.404869
      ESP Fit Center  492 is at  -4.579848 -0.688795 -2.571241
      ESP Fit Center  493 is at  -4.579679 -0.688473  2.572209
      ESP Fit Center  494 is at  -3.850755 -0.688473  2.405837
      ESP Fit Center  495 is at  -4.215217 -0.057206  2.405837
      ESP Fit Center  496 is at  -4.944142 -0.057206  2.405837
      ESP Fit Center  497 is at  -5.308604 -0.688473  2.405837
      ESP Fit Center  498 is at  -4.944142 -1.319741  2.405837
      ESP Fit Center  499 is at  -4.215217 -1.319741  2.405837
      ESP Fit Center  500 is at  -3.266202 -0.688473  1.939672
      ESP Fit Center  501 is at  -3.517054  0.083569  1.939672
      ESP Fit Center  502 is at  -5.642304  0.083569  1.939672
      ESP Fit Center  503 is at  -5.893156 -0.688473  1.939672
      ESP Fit Center  504 is at  -5.642304 -1.460516  1.939672
      ESP Fit Center  505 is at  -4.985566 -1.937664  1.939672
      ESP Fit Center  506 is at  -4.173793 -1.937664  1.939672
      ESP Fit Center  507 is at  -3.517054 -1.460516  1.939672
      ESP Fit Center  508 is at  -6.169964 -0.296503  1.266044
      ESP Fit Center  509 is at  -6.169964 -1.080444  1.266044
      ESP Fit Center  510 is at  -5.805649 -1.774588  1.266044
      ESP Fit Center  511 is at  -5.160479 -2.219917  1.266044
      ESP Fit Center  512 is at  -4.382255 -2.314410  1.266044
      ESP Fit Center  513 is at  -5.805649 -1.774588  0.518374
      ESP Fit Center  514 is at  -5.160479 -2.219917  0.518374
      ESP Fit Center  515 is at  -4.382255 -2.314410  0.518374
      ESP Fit Center  516 is at  -5.649738  1.333123  1.513929
      ESP Fit Center  517 is at  -6.014201  0.701856  1.513929
      ESP Fit Center  518 is at  -4.879389  1.951046  1.047764
      ESP Fit Center  519 is at  -5.691163  1.951046  1.047764
      ESP Fit Center  520 is at  -6.347901  1.473898  1.047764
      ESP Fit Center  521 is at  -6.598753  0.701856  1.047764
      ESP Fit Center  522 is at  -6.347901 -0.070187  1.047764
      ESP Fit Center  523 is at  -5.087852  2.327792  0.374136
      ESP Fit Center  524 is at  -5.866076  2.233299  0.374136
      ESP Fit Center  525 is at  -6.511246  1.787970  0.374136
      ESP Fit Center  526 is at  -6.875561  1.093826  0.374136
      ESP Fit Center  527 is at  -6.875561  0.309886  0.374136
      ESP Fit Center  528 is at  -5.087852  2.327792 -0.373534
      ESP Fit Center  529 is at  -5.866076  2.233299 -0.373534
      ESP Fit Center  530 is at  -6.511246  1.787970 -0.373534
      ESP Fit Center  531 is at  -6.875561  1.093826 -0.373534
      ESP Fit Center  532 is at  -6.875561  0.309886 -0.373534
      ESP Fit Center  533 is at  -4.879389  1.951046 -1.047162
      ESP Fit Center  534 is at  -5.691163  1.951046 -1.047162
      ESP Fit Center  535 is at  -6.347901  1.473898 -1.047162
      ESP Fit Center  536 is at  -6.598753  0.701856 -1.047162
      ESP Fit Center  537 is at  -6.347901 -0.070187 -1.047162
      ESP Fit Center  538 is at  -5.649738  1.333123 -1.513327
      ESP Fit Center  539 is at  -6.014201  0.701856 -1.513327
      ESP Fit Center  540 is at  -4.139367  0.574358  2.252778
      ESP Fit Center  541 is at  -4.703406  1.318454  1.916382
      ESP Fit Center  542 is at  -5.416905  0.992610  1.916382
      ESP Fit Center  543 is at  -5.840974  0.332745  1.916382
      ESP Fit Center  544 is at  -6.421312 -0.059445  1.392432
      ESP Fit Center  545 is at  -6.726988 -0.430181  0.732218
      ESP Fit Center  546 is at  -6.486233 -1.131476  0.732218
      ESP Fit Center  547 is at  -6.757708 -0.791299  0.000364
      ESP Fit Center  548 is at  -6.421312 -1.451514  0.000364
      ESP Fit Center  549 is at  -5.897363 -1.975463  0.000364
      ESP Fit Center  550 is at  -5.237148 -2.311859  0.000364
      ESP Fit Center  551 is at  -4.505294 -2.427774  0.000364
      ESP Fit Center  552 is at  -6.726988 -0.430181 -0.731490
      ESP Fit Center  553 is at  -6.486233 -1.131476 -0.731490
      ESP Fit Center  554 is at  -6.421312 -0.059445 -1.391704
      ESP Fit Center  555 is at  -4.703406  1.318454 -1.915654
      ESP Fit Center  556 is at  -5.416905  0.992610 -1.915654
      ESP Fit Center  557 is at  -5.840974  0.332745 -1.915654
      ESP Fit Center  558 is at  -4.139367  0.574358 -2.252050
      ESP Fit Center  559 is at  -3.267441  0.668493  2.210560
      ESP Fit Center  560 is at  -2.889434  1.323221  2.077254
      ESP Fit Center  561 is at  -3.645449  1.323221  2.077254
      ESP Fit Center  562 is at  -2.557019  1.898980  1.693415
      ESP Fit Center  563 is at  -3.267441  2.089337  1.693415
      ESP Fit Center  564 is at  -3.977863  1.898980  1.693415
      ESP Fit Center  565 is at  -3.267441  2.582790  1.105340
      ESP Fit Center  566 is at  -4.000011  2.437073  1.105340
      ESP Fit Center  567 is at  -3.645449  2.812280  0.383959
      ESP Fit Center  568 is at  -4.355870  2.553708  0.383959
      ESP Fit Center  569 is at  -3.645449  2.812280 -0.383719
      ESP Fit Center  570 is at  -4.355870  2.553708 -0.383719
      ESP Fit Center  571 is at  -3.267441  2.582790 -1.105100
      ESP Fit Center  572 is at  -4.000011  2.437073 -1.105100
      ESP Fit Center  573 is at  -2.557019  1.898980 -1.693175
      ESP Fit Center  574 is at  -3.267441  2.089337 -1.693175
      ESP Fit Center  575 is at  -3.977863  1.898980 -1.693175
      ESP Fit Center  576 is at  -2.889434  1.323221 -2.077014
      ESP Fit Center  577 is at  -3.645449  1.323221 -2.077014
      ESP Fit Center  578 is at  -3.267441  0.668493 -2.210320
      ESP Fit Center  579 is at  -2.148668 -0.058902  2.368413
      ESP Fit Center  580 is at  -1.416814 -0.058902  2.252499
      ESP Fit Center  581 is at  -1.782741  0.574902  2.252499
      ESP Fit Center  582 is at  -2.514595  0.574902  2.252499
      ESP Fit Center  583 is at  -2.880522 -0.058902  2.252499
      ESP Fit Center  584 is at  -2.514595 -0.692706  2.252499
      ESP Fit Center  585 is at  -1.782741 -0.692706  2.252499
      ESP Fit Center  586 is at  -2.346780  1.318997  1.916103
      ESP Fit Center  587 is at  -2.346780  1.318997 -1.915933
      ESP Fit Center  588 is at  -1.416814 -0.058902 -2.252329
      ESP Fit Center  589 is at  -1.782741  0.574902 -2.252329
      ESP Fit Center  590 is at  -2.514595  0.574902 -2.252329
      ESP Fit Center  591 is at  -2.880522 -0.058902 -2.252329
      ESP Fit Center  592 is at  -2.514595 -0.692706 -2.252329
      ESP Fit Center  593 is at  -1.782741 -0.692706 -2.252329
      ESP Fit Center  594 is at  -2.148668 -0.058902 -2.368243
      ESP Fit Center  595 is at  -1.230881  1.246371  2.252241
      ESP Fit Center  596 is at  -1.596808  0.612567  2.252241
      ESP Fit Center  597 is at  -1.230881  1.246371 -2.252587
      ESP Fit Center  598 is at  -1.596808  0.612567 -2.252587
      ESP Fit Center  599 is at  -0.549926 -1.912709  2.762540
      ESP Fit Center  600 is at  -0.907491 -1.293388  2.668391
      ESP Fit Center  601 is at  -1.265056 -1.912709  2.668391
      ESP Fit Center  602 is at  -0.907491 -2.532029  2.668391
      ESP Fit Center  603 is at  -0.192361 -2.532029  2.668391
      ESP Fit Center  604 is at  -1.746362 -1.221946  2.392361
      ESP Fit Center  605 is at  -1.931451 -1.912709  2.392361
      ESP Fit Center  606 is at  -1.746362 -2.603471  2.392361
      ESP Fit Center  607 is at  -1.240689 -3.109144  2.392361
      ESP Fit Center  608 is at  -0.549926 -3.294234  2.392361
      ESP Fit Center  609 is at   0.140836 -3.109144  2.392361
      ESP Fit Center  610 is at  -1.931451 -3.294234  1.953261
      ESP Fit Center  611 is at  -1.297602 -3.717758  1.953261
      ESP Fit Center  612 is at  -0.549926 -3.866480  1.953261
      ESP Fit Center  613 is at   0.197749 -3.717758  1.953261
      ESP Fit Center  614 is at  -2.485800 -3.319203  1.381015
      ESP Fit Center  615 is at  -1.956421 -3.848582  1.381015
      ESP Fit Center  616 is at  -1.289364 -4.188465  1.381015
      ESP Fit Center  617 is at  -0.549926 -4.305580  1.381015
      ESP Fit Center  618 is at   0.189512 -4.188465  1.381015
      ESP Fit Center  619 is at   0.856568 -3.848582  1.381015
      ESP Fit Center  620 is at  -2.620223 -3.597020  0.714620
      ESP Fit Center  621 is at  -2.089029 -4.093121  0.714620
      ESP Fit Center  622 is at  -1.443687 -4.427510  0.714620
      ESP Fit Center  623 is at  -0.732059 -4.575388  0.714620
      ESP Fit Center  624 is at  -0.006922 -4.525787  0.714620
      ESP Fit Center  625 is at   0.677942 -4.282387  0.714620
      ESP Fit Center  626 is at  -2.503697 -3.866480 -0.000510
      ESP Fit Center  627 is at  -1.931451 -4.305580 -0.000510
      ESP Fit Center  628 is at  -1.265056 -4.581610 -0.000510
      ESP Fit Center  629 is at  -0.549926 -4.675758 -0.000510
      ESP Fit Center  630 is at   0.165204 -4.581610 -0.000510
      ESP Fit Center  631 is at   0.831598 -4.305580 -0.000510
      ESP Fit Center  632 is at  -2.620223 -3.597020 -0.715640
      ESP Fit Center  633 is at  -2.089029 -4.093121 -0.715640
      ESP Fit Center  634 is at  -1.443687 -4.427510 -0.715640
      ESP Fit Center  635 is at  -0.732059 -4.575388 -0.715640
      ESP Fit Center  636 is at  -0.006922 -4.525787 -0.715640
      ESP Fit Center  637 is at   0.677942 -4.282387 -0.715640
      ESP Fit Center  638 is at  -2.485800 -3.319203 -1.382035
      ESP Fit Center  639 is at  -1.956421 -3.848582 -1.382035
      ESP Fit Center  640 is at  -1.289364 -4.188465 -1.382035
      ESP Fit Center  641 is at  -0.549926 -4.305580 -1.382035
      ESP Fit Center  642 is at   0.189512 -4.188465 -1.382035
      ESP Fit Center  643 is at   0.856568 -3.848582 -1.382035
      ESP Fit Center  644 is at  -1.931451 -3.294234 -1.954281
      ESP Fit Center  645 is at  -1.297602 -3.717758 -1.954281
      ESP Fit Center  646 is at  -0.549926 -3.866480 -1.954281
      ESP Fit Center  647 is at   0.197749 -3.717758 -1.954281
      ESP Fit Center  648 is at  -1.746362 -1.221946 -2.393381
      ESP Fit Center  649 is at  -1.931451 -1.912709 -2.393381
      ESP Fit Center  650 is at  -1.746362 -2.603471 -2.393381
      ESP Fit Center  651 is at  -1.240689 -3.109144 -2.393381
      ESP Fit Center  652 is at  -0.549926 -3.294234 -2.393381
      ESP Fit Center  653 is at   0.140836 -3.109144 -2.393381
      ESP Fit Center  654 is at  -0.907491 -1.293388 -2.669411
      ESP Fit Center  655 is at  -1.265056 -1.912709 -2.669411
      ESP Fit Center  656 is at  -0.907491 -2.532029 -2.669411
      ESP Fit Center  657 is at  -0.192361 -2.532029 -2.669411
      ESP Fit Center  658 is at  -0.549926 -1.912709 -2.763559
      ESP Fit Center  659 is at  -2.140837 -1.369974  2.368554
      ESP Fit Center  660 is at  -1.774910 -0.736170  2.252640
      ESP Fit Center  661 is at  -2.506764 -0.736170  2.252640
      ESP Fit Center  662 is at  -2.872691 -1.369974  2.252640
      ESP Fit Center  663 is at  -2.506764 -2.003778  2.252640
      ESP Fit Center  664 is at  -3.052448 -2.422029  1.916244
      ESP Fit Center  665 is at  -3.495666 -2.724803  1.392294
      ESP Fit Center  666 is at  -2.874066 -3.140143  1.392294
      ESP Fit Center  667 is at  -3.666356 -3.027129  0.732080
      ESP Fit Center  668 is at  -3.045622 -3.432674  0.732080
      ESP Fit Center  669 is at  -4.056855 -2.762042  0.000226
      ESP Fit Center  670 is at  -3.532906 -3.285991  0.000226
      ESP Fit Center  671 is at  -2.872691 -3.622388  0.000226
      ESP Fit Center  672 is at  -3.666356 -3.027129 -0.731628
      ESP Fit Center  673 is at  -3.045622 -3.432674 -0.731628
      ESP Fit Center  674 is at  -3.495666 -2.724803 -1.391842
      ESP Fit Center  675 is at  -2.874066 -3.140143 -1.391842
      ESP Fit Center  676 is at  -3.052448 -2.422029 -1.915792
      ESP Fit Center  677 is at  -1.774910 -0.736170 -2.252188
      ESP Fit Center  678 is at  -2.506764 -0.736170 -2.252188
      ESP Fit Center  679 is at  -2.872691 -1.369974 -2.252188
      ESP Fit Center  680 is at  -2.506764 -2.003778 -2.252188
      ESP Fit Center  681 is at  -2.140837 -1.369974 -2.368102
      ESP Fit Center  682 is at   2.207751  0.002629  4.263117
      ESP Fit Center  683 is at   2.948011  0.002629  4.198352
      ESP Fit Center  684 is at   2.577881  0.643713  4.198352
      ESP Fit Center  685 is at   1.837621  0.643713  4.198352
      ESP Fit Center  686 is at   1.467490  0.002629  4.198352
      ESP Fit Center  687 is at   1.837621 -0.638456  4.198352
      ESP Fit Center  688 is at   2.577881 -0.638456  4.198352
      ESP Fit Center  689 is at   3.665780  0.002629  4.006027
      ESP Fit Center  690 is at   3.470441  0.731643  4.006027
      ESP Fit Center  691 is at   2.936765  1.265319  4.006027
      ESP Fit Center  692 is at   2.207751  1.460658  4.006027
      ESP Fit Center  693 is at   1.478737  1.265319  4.006027
      ESP Fit Center  694 is at   0.945061  0.731643  4.006027
      ESP Fit Center  695 is at   0.749722  0.002629  4.006027
      ESP Fit Center  696 is at   0.945061 -0.726385  4.006027
      ESP Fit Center  697 is at   1.478737 -1.260061  4.006027
      ESP Fit Center  698 is at   2.207751 -1.455400  4.006027
      ESP Fit Center  699 is at   2.936765 -1.260061  4.006027
      ESP Fit Center  700 is at   3.470441 -0.726385  4.006027
      ESP Fit Center  701 is at   4.339246  0.002629  3.691984
      ESP Fit Center  702 is at   4.210701  0.731643  3.691984
      ESP Fit Center  703 is at   3.840571  1.372728  3.691984
      ESP Fit Center  704 is at   3.273499  1.848558  3.691984
      ESP Fit Center  705 is at   2.577881  2.101742  3.691984
      ESP Fit Center  706 is at   1.837621  2.101742  3.691984
      ESP Fit Center  707 is at   1.142003  1.848558  3.691984
      ESP Fit Center  708 is at   0.574931  1.372728  3.691984
      ESP Fit Center  709 is at   0.204800  0.731643  3.691984
      ESP Fit Center  710 is at   0.076256  0.002629  3.691984
      ESP Fit Center  711 is at   0.204800 -0.726385  3.691984
      ESP Fit Center  712 is at   0.574931 -1.367470  3.691984
      ESP Fit Center  713 is at   1.142003 -1.843300  3.691984
      ESP Fit Center  714 is at   1.837621 -2.096484  3.691984
      ESP Fit Center  715 is at   2.577881 -2.096484  3.691984
      ESP Fit Center  716 is at   3.273499 -1.843300  3.691984
      ESP Fit Center  717 is at   3.840571 -1.367470  3.691984
      ESP Fit Center  718 is at   4.210701 -0.726385  3.691984
      ESP Fit Center  719 is at   4.947948  0.002629  3.265766
      ESP Fit Center  720 is at   4.846334  0.741925  3.265766
      ESP Fit Center  721 is at   4.549029  1.426392  3.265766
      ESP Fit Center  722 is at   4.078081  2.005264  3.265766
      ESP Fit Center  723 is at   3.468420  2.435610  3.265766
      ESP Fit Center  724 is at   2.765261  2.685513  3.265766
      ESP Fit Center  725 is at   2.020753  2.736438  3.265766
      ESP Fit Center  726 is at   1.290115  2.584610  3.265766
      ESP Fit Center  727 is at   0.627533  2.241288  3.265766
      ESP Fit Center  728 is at   0.082149  1.731935  3.265766
      ESP Fit Center  729 is at  -0.305589  1.094327  3.265766
      ESP Fit Center  730 is at  -0.506924  0.375752  3.265766
      ESP Fit Center  731 is at  -0.506924 -0.370495  3.265766
      ESP Fit Center  732 is at  -0.305589 -1.089069  3.265766
      ESP Fit Center  733 is at   0.082149 -1.726677  3.265766
      ESP Fit Center  734 is at   0.627533 -2.236030  3.265766
      ESP Fit Center  735 is at   1.290115 -2.579352  3.265766
      ESP Fit Center  736 is at   2.020753 -2.731181  3.265766
      ESP Fit Center  737 is at   2.765261 -2.680255  3.265766
      ESP Fit Center  738 is at   3.468420 -2.430352  3.265766
      ESP Fit Center  739 is at   4.078081 -2.000006  3.265766
      ESP Fit Center  740 is at   4.549029 -1.421134  3.265766
      ESP Fit Center  741 is at   4.846334 -0.736668  3.265766
      ESP Fit Center  742 is at   5.473391  0.002629  2.740324
      ESP Fit Center  743 is at   5.391515  0.729302  2.740324
      ESP Fit Center  744 is at   5.149991  1.419537  2.740324
      ESP Fit Center  745 is at   4.760931  2.038722  2.740324
      ESP Fit Center  746 is at   4.243844  2.555809  2.740324
      ESP Fit Center  747 is at   3.624659  2.944869  2.740324
      ESP Fit Center  748 is at   2.934424  3.186393  2.740324
      ESP Fit Center  749 is at   2.207751  3.268269  2.740324
      ESP Fit Center  750 is at   1.481078  3.186393  2.740324
      ESP Fit Center  751 is at   0.790843  2.944869  2.740324
      ESP Fit Center  752 is at   0.171657  2.555809  2.740324
      ESP Fit Center  753 is at  -0.345430  2.038722  2.740324
      ESP Fit Center  754 is at  -0.734489  1.419537  2.740324
      ESP Fit Center  755 is at  -0.976013  0.729302  2.740324
      ESP Fit Center  756 is at  -1.057889  0.002629  2.740324
      ESP Fit Center  757 is at  -0.976013 -0.724044  2.740324
      ESP Fit Center  758 is at  -0.734489 -1.414279  2.740324
      ESP Fit Center  759 is at   0.171657 -2.550552  2.740324
      ESP Fit Center  760 is at   0.790843 -2.939611  2.740324
      ESP Fit Center  761 is at   1.481078 -3.181135  2.740324
      ESP Fit Center  762 is at   2.207751 -3.263011  2.740324
      ESP Fit Center  763 is at   2.934424 -3.181135  2.740324
      ESP Fit Center  764 is at   3.624659 -2.939611  2.740324
      ESP Fit Center  765 is at   4.243844 -2.550552  2.740324
      ESP Fit Center  766 is at   4.760931 -2.033465  2.740324
      ESP Fit Center  767 is at   5.149991 -1.414279  2.740324
      ESP Fit Center  768 is at   5.391515 -0.724044  2.740324
      ESP Fit Center  769 is at   5.899609  0.002629  2.131621
      ESP Fit Center  770 is at   5.828671  0.722875  2.131621
[...]
 2945 Fit       0.002323
 2946 Fit       0.001848
 2947 Fit       0.001180
 2948 Fit       0.000325
 2949 Fit      -0.000695
 2950 Fit      -0.001834
 2951 Fit      -0.003020
 2952 Fit      -0.004138
 2953 Fit      -0.005009
 2954 Fit      -0.005395
 2955 Fit      -0.005072
 2956 Fit      -0.003982
 2957 Fit      -0.002356
 2958 Fit      -0.000630
 2959 Fit       0.000758
 2960 Fit       0.001554
 2961 Fit       0.001814
 2962 Fit       0.001846
 2963 Fit       0.001927
 2964 Fit       0.002132
 2965 Fit       0.002383
 2966 Fit       0.002591
 2967 Fit       0.002720
 2968 Fit       0.002789
 2969 Fit       0.002826
 2970 Fit       0.002847
 2971 Fit       0.002843
 2972 Fit       0.002783
 2973 Fit       0.002624
 2974 Fit       0.002817
 2975 Fit       0.002384
 2976 Fit       0.001769
 2977 Fit       0.000964
 2978 Fit      -0.000024
 2979 Fit      -0.001179
 2980 Fit      -0.002477
 2981 Fit      -0.003876
 2982 Fit      -0.005307
 2983 Fit      -0.006639
 2984 Fit      -0.007648
 2985 Fit      -0.008019
 2986 Fit      -0.007459
 2987 Fit      -0.005910
 2988 Fit      -0.003680
 2989 Fit      -0.001304
 2990 Fit       0.000696
 2991 Fit       0.001919
 2992 Fit       0.002240
 2993 Fit       0.001995
 2994 Fit       0.001723
 2995 Fit       0.001729
 2996 Fit       0.002002
 2997 Fit       0.002380
 2998 Fit       0.002713
 2999 Fit       0.002934
 3000 Fit       0.003052
 3001 Fit       0.003110
 3002 Fit       0.003149
 3003 Fit       0.003191
 3004 Fit       0.003233
 3005 Fit       0.003254
 3006 Fit       0.003217
 3007 Fit       0.003084
 3008 Fit       0.003310
 3009 Fit       0.002908
 3010 Fit       0.002325
 3011 Fit       0.001552
 3012 Fit       0.000587
 3013 Fit      -0.000567
 3014 Fit      -0.001902
 3015 Fit      -0.003414
 3016 Fit      -0.005091
 3017 Fit      -0.006901
 3018 Fit      -0.008755
 3019 Fit      -0.010440
 3020 Fit      -0.011568
 3021 Fit      -0.011626
 3022 Fit      -0.010254
 3023 Fit      -0.007590
 3024 Fit      -0.004276
 3025 Fit      -0.001034
 3026 Fit       0.001591
 3027 Fit       0.003040
 3028 Fit       0.002984
 3029 Fit       0.002030
 3030 Fit       0.001240
 3031 Fit       0.001089
 3032 Fit       0.001446
 3033 Fit       0.002029
 3034 Fit       0.002596
 3035 Fit       0.003011
 3036 Fit       0.003251
 3037 Fit       0.003361
 3038 Fit       0.003406
 3039 Fit       0.003436
 3040 Fit       0.003482
 3041 Fit       0.003548
 3042 Fit       0.003620
 3043 Fit       0.003669
 3044 Fit       0.003658
 3045 Fit       0.003550
 3046 Fit       0.003775
 3047 Fit       0.003405
 3048 Fit       0.002862
 3049 Fit       0.002134
 3050 Fit       0.001217
 3051 Fit       0.000108
 3052 Fit      -0.001195
 3053 Fit      -0.002701
 3054 Fit      -0.004427
 3055 Fit      -0.006398
 3056 Fit      -0.008633
 3057 Fit      -0.011115
 3058 Fit      -0.013701
 3059 Fit      -0.015991
 3060 Fit      -0.017244
 3061 Fit      -0.009589
 3062 Fit      -0.004979
 3063 Fit      -0.000746
 3064 Fit       0.002880
 3065 Fit       0.002288
 3066 Fit       0.002958
 3067 Fit       0.003383
 3068 Fit       0.003596
 3069 Fit       0.003673
 3070 Fit       0.003688
 3071 Fit       0.003696
 3072 Fit       0.003730
 3073 Fit       0.003799
 3074 Fit       0.003894
 3075 Fit       0.003994
 3076 Fit       0.004066
 3077 Fit       0.004077
 3078 Fit       0.003991
 3079 Fit       0.004186
 3080 Fit       0.003838
 3081 Fit       0.003320
 3082 Fit       0.002621
 3083 Fit       0.001732
 3084 Fit       0.000650
 3085 Fit      -0.000632
 3086 Fit      -0.002129
 3087 Fit      -0.003868
 3088 Fit      -0.005898
 3089 Fit      -0.008292
 3090 Fit      -0.011144
 3091 Fit      -0.014534
 3092 Fit      -0.018416
 3093 Fit       0.003355
 3094 Fit       0.003758
 3095 Fit       0.003941
 3096 Fit       0.003983
 3097 Fit       0.003959
 3098 Fit       0.003931
 3099 Fit       0.003935
 3100 Fit       0.003985
 3101 Fit       0.004080
 3102 Fit       0.004202
 3103 Fit       0.004327
 3104 Fit       0.004421
 3105 Fit       0.004450
 3106 Fit       0.004382
 3107 Fit       0.004519
 3108 Fit       0.004185
 3109 Fit       0.003681
 3110 Fit       0.002995
 3111 Fit       0.002119
 3112 Fit       0.001047
 3113 Fit      -0.000230
 3114 Fit      -0.001730
 3115 Fit      -0.003485
 3116 Fit      -0.005557
 3117 Fit      -0.008044
 3118 Fit      -0.011106
 3119 Fit      -0.014969
 3120 Fit      -0.019907
 3121 Fit       0.004185
 3122 Fit       0.004309
 3123 Fit       0.004307
 3124 Fit       0.004238
 3125 Fit       0.004160
 3126 Fit       0.004114
 3127 Fit       0.004122
 3128 Fit       0.004189
 3129 Fit       0.004306
 3130 Fit       0.004451
 3131 Fit       0.004596
 3132 Fit       0.004708
 3133 Fit       0.004754
 3134 Fit       0.004701
 3135 Fit       0.004752
 3136 Fit       0.004433
 3137 Fit       0.003949
 3138 Fit       0.003288
 3139 Fit       0.002441
 3140 Fit       0.001403
 3141 Fit       0.000163
 3142 Fit      -0.001295
 3143 Fit      -0.003003
 3144 Fit      -0.005021
 3145 Fit      -0.007452
 3146 Fit      -0.010467
 3147 Fit      -0.014346
 3148 Fit      -0.019533
 3149 Fit       0.004724
 3150 Fit       0.004634
 3151 Fit       0.004508
 3152 Fit       0.004378
 3153 Fit       0.004279
 3154 Fit       0.004235
 3155 Fit       0.004258
 3156 Fit       0.004344
 3157 Fit       0.004478
 3158 Fit       0.004638
 3159 Fit       0.004794
 3160 Fit       0.004915
 3161 Fit       0.004968
 3162 Fit       0.004923
 3163 Fit       0.004873
 3164 Fit       0.004553
 3165 Fit       0.004063
 3166 Fit       0.003391
 3167 Fit       0.002528
 3168 Fit       0.001466
 3169 Fit       0.000196
 3170 Fit      -0.001302
 3171 Fit      -0.003065
 3172 Fit      -0.005160
 3173 Fit      -0.007707
 3174 Fit      -0.010910
 3175 Fit      -0.015120
 3176 Fit      -0.020942
 3177 Fit       0.005006
 3178 Fit       0.004818
 3179 Fit       0.004636
 3180 Fit       0.004473
 3181 Fit       0.004354
 3182 Fit       0.004300
 3183 Fit       0.004320
 3184 Fit       0.004408
 3185 Fit       0.004549
 3186 Fit       0.004718
 3187 Fit       0.004885
 3188 Fit       0.005016
 3189 Fit       0.005079
 3190 Fit       0.005040
 3191 Fit       0.004873
 3192 Fit       0.004553
 3193 Fit       0.004063
 3194 Fit       0.003391
 3195 Fit       0.002528
 3196 Fit       0.001466
 3197 Fit       0.000196
 3198 Fit      -0.001302
 3199 Fit      -0.003065
 3200 Fit      -0.005160
 3201 Fit      -0.007707
 3202 Fit      -0.010910
 3203 Fit      -0.015121
 3204 Fit      -0.020944
 3205 Fit       0.005008
 3206 Fit       0.004819
 3207 Fit       0.004637
 3208 Fit       0.004473
 3209 Fit       0.004354
 3210 Fit       0.004301
 3211 Fit       0.004320
 3212 Fit       0.004409
 3213 Fit       0.004549
 3214 Fit       0.004718
 3215 Fit       0.004885
 3216 Fit       0.005016
 3217 Fit       0.005079
 3218 Fit       0.005041
 3219 Fit       0.004753
 3220 Fit       0.004434
 3221 Fit       0.003949
 3222 Fit       0.003288
 3223 Fit       0.002441
 3224 Fit       0.001403
 3225 Fit       0.000163
 3226 Fit      -0.001295
 3227 Fit      -0.003003
 3228 Fit      -0.005022
 3229 Fit      -0.007453
 3230 Fit      -0.010468
 3231 Fit      -0.014348
 3232 Fit      -0.019537
 3233 Fit       0.004730
 3234 Fit       0.004638
 3235 Fit       0.004511
 3236 Fit       0.004380
 3237 Fit       0.004280
 3238 Fit       0.004237
 3239 Fit       0.004259
 3240 Fit       0.004345
 3241 Fit       0.004479
 3242 Fit       0.004638
 3243 Fit       0.004795
 3244 Fit       0.004916
 3245 Fit       0.004969
 3246 Fit       0.004924
 3247 Fit       0.004519
 3248 Fit       0.004185
 3249 Fit       0.003681
 3250 Fit       0.002995
 3251 Fit       0.002119
 3252 Fit       0.001047
 3253 Fit      -0.000231
 3254 Fit      -0.001730
 3255 Fit      -0.003486
 3256 Fit      -0.005558
 3257 Fit      -0.008046
 3258 Fit      -0.011109
 3259 Fit      -0.014974
 3260 Fit      -0.019914
 3261 Fit       0.004195
 3262 Fit       0.004316
 3263 Fit       0.004312
 3264 Fit       0.004241
 3265 Fit       0.004162
 3266 Fit       0.004116
 3267 Fit       0.004124
 3268 Fit       0.004191
 3269 Fit       0.004307
 3270 Fit       0.004452
 3271 Fit       0.004597
 3272 Fit       0.004709
 3273 Fit       0.004755
 3274 Fit       0.004701
 3275 Fit       0.004187
 3276 Fit       0.003839
 3277 Fit       0.003321
 3278 Fit       0.002621
 3279 Fit       0.001732
 3280 Fit       0.000650
 3281 Fit      -0.000632
 3282 Fit      -0.002129
 3283 Fit      -0.003869
 3284 Fit      -0.005899
 3285 Fit      -0.008294
 3286 Fit      -0.011147
 3287 Fit      -0.014540
 3288 Fit      -0.018425
 3289 Fit       0.003366
 3290 Fit       0.003767
 3291 Fit       0.003948
 3292 Fit       0.003988
 3293 Fit       0.003963
 3294 Fit       0.003934
 3295 Fit       0.003937
 3296 Fit       0.003987
 3297 Fit       0.004081
 3298 Fit       0.004204
 3299 Fit       0.004328
 3300 Fit       0.004422
 3301 Fit       0.004451
 3302 Fit       0.004383
 3303 Fit       0.003776
 3304 Fit       0.003406
 3305 Fit       0.002862
 3306 Fit       0.002135
 3307 Fit       0.001217
 3308 Fit       0.000108
 3309 Fit      -0.001195
 3310 Fit      -0.002702
 3311 Fit      -0.004429
 3312 Fit      -0.006400
 3313 Fit      -0.008636
 3314 Fit      -0.011120
 3315 Fit      -0.013708
 3316 Fit      -0.016000
 3317 Fit      -0.017256
 3318 Fit      -0.009595
 3319 Fit      -0.004980
 3320 Fit      -0.000745
 3321 Fit       0.002882
 3322 Fit       0.002300
 3323 Fit       0.002968
 3324 Fit       0.003391
 3325 Fit       0.003603
 3326 Fit       0.003678
 3327 Fit       0.003692
 3328 Fit       0.003699
 3329 Fit       0.003732
 3330 Fit       0.003801
 3331 Fit       0.003896
 3332 Fit       0.003995
 3333 Fit       0.004068
 3334 Fit       0.004078
 3335 Fit       0.003991
 3336 Fit       0.003311
 3337 Fit       0.002908
 3338 Fit       0.002325
 3339 Fit       0.001552
 3340 Fit       0.000587
 3341 Fit      -0.000567
 3342 Fit      -0.001903
 3343 Fit      -0.003415
 3344 Fit      -0.005093
 3345 Fit      -0.006904
 3346 Fit      -0.008758
 3347 Fit      -0.010445
 3348 Fit      -0.011575
 3349 Fit      -0.011633
 3350 Fit      -0.010260
 3351 Fit      -0.007594
 3352 Fit      -0.004277
 3353 Fit      -0.001034
 3354 Fit       0.001593
 3355 Fit       0.003044
 3356 Fit       0.002990
 3357 Fit       0.002037
 3358 Fit       0.001249
 3359 Fit       0.001098
 3360 Fit       0.001456
 3361 Fit       0.002038
 3362 Fit       0.002605
 3363 Fit       0.003019
 3364 Fit       0.003257
 3365 Fit       0.003366
 3366 Fit       0.003410
 3367 Fit       0.003439
 3368 Fit       0.003485
 3369 Fit       0.003550
 3370 Fit       0.003621
 3371 Fit       0.003670
 3372 Fit       0.003660
 3373 Fit       0.003551
 3374 Fit       0.002818
 3375 Fit       0.002385
 3376 Fit       0.001769
 3377 Fit       0.000964
 3378 Fit      -0.000024
 3379 Fit      -0.001180
 3380 Fit      -0.002477
 3381 Fit      -0.003877
 3382 Fit      -0.005309
 3383 Fit      -0.006642
 3384 Fit      -0.007652
 3385 Fit      -0.008023
 3386 Fit      -0.007463
 3387 Fit      -0.005913
 3388 Fit      -0.003681
 3389 Fit      -0.001303
 3390 Fit       0.000698
 3391 Fit       0.001922
 3392 Fit       0.002245
 3393 Fit       0.002001
 3394 Fit       0.001730
 3395 Fit       0.001736
 3396 Fit       0.002009
 3397 Fit       0.002387
 3398 Fit       0.002720
 3399 Fit       0.002939
 3400 Fit       0.003056
 3401 Fit       0.003114
 3402 Fit       0.003153
 3403 Fit       0.003194
 3404 Fit       0.003236
 3405 Fit       0.003255
 3406 Fit       0.003219
 3407 Fit       0.003085
 3408 Fit       0.002324
 3409 Fit       0.001849
 3410 Fit       0.001181
 3411 Fit       0.000325
 3412 Fit      -0.000695
 3413 Fit      -0.001835
 3414 Fit      -0.003021
 3415 Fit      -0.004139
 3416 Fit      -0.005011
 3417 Fit      -0.005398
 3418 Fit      -0.005074
 3419 Fit      -0.003984
 3420 Fit      -0.002357
 3421 Fit      -0.000629
 3422 Fit       0.000761
 3423 Fit       0.001558
 3424 Fit       0.001819
 3425 Fit       0.001851
 3426 Fit       0.001932
 3427 Fit       0.002137
 3428 Fit       0.002389
 3429 Fit       0.002596
 3430 Fit       0.002725
 3431 Fit       0.002792
 3432 Fit       0.002829
 3433 Fit       0.002850
 3434 Fit       0.002845
 3435 Fit       0.002784
 3436 Fit       0.002625
 3437 Fit       0.001856
 3438 Fit       0.001341
 3439 Fit       0.000633
 3440 Fit      -0.000241
 3441 Fit      -0.001218
 3442 Fit      -0.002194
 3443 Fit      -0.003009
 3444 Fit      -0.003460
 3445 Fit      -0.003349
 3446 Fit      -0.002611
 3447 Fit      -0.001425
 3448 Fit      -0.000161
 3449 Fit       0.000829
 3450 Fit       0.001406
 3451 Fit       0.001687
 3452 Fit       0.001876
 3453 Fit       0.002071
 3454 Fit       0.002253
 3455 Fit       0.002382
 3456 Fit       0.002450
 3457 Fit       0.002472
 3458 Fit       0.002453
 3459 Fit       0.002372
 3460 Fit       0.002189
 3461 Fit       0.001436
 3462 Fit       0.000857
 3463 Fit       0.000088
 3464 Fit      -0.000775
 3465 Fit      -0.001558
 3466 Fit      -0.002020
 3467 Fit      -0.001940
 3468 Fit      -0.001284
 3469 Fit      -0.000305
 3470 Fit       0.000601
 3471 Fit       0.001210
 3472 Fit       0.001570
 3473 Fit       0.001811
 3474 Fit       0.001980
 3475 Fit       0.002070
 3476 Fit       0.002080
 3477 Fit       0.002004
 3478 Fit       0.001807
 3479 Fit       0.001081
 3480 Fit       0.000438
 3481 Fit      -0.000316
 3482 Fit      -0.000871
 3483 Fit      -0.000879
 3484 Fit      -0.000292
 3485 Fit       0.000503
 3486 Fit       0.001108
 3487 Fit       0.001464
 3488 Fit       0.001638
 3489 Fit       0.001650
 3490 Fit       0.001481
 3491 Fit       0.000804
 3492 Fit       0.000150
 3493 Fit      -0.000053
 3494 Fit       0.000510
 3495 Fit       0.001057
 3496 Fit       0.001168
 3497 Fit       0.000612
 3498 Fit      -0.009016
 3499 Fit      -0.009014
 3500 Fit      -0.016232
 3501 Fit      -0.019596
 3502 Fit      -0.018822
 3503 Fit      -0.016684
 3504 Fit      -0.013330
 3505 Fit      -0.021204
 3506 Fit      -0.021980
 3507 Fit      -0.021678
 3508 Fit      -0.020405
 3509 Fit      -0.018359
 3510 Fit      -0.015672
 3511 Fit      -0.012111
 3512 Fit      -0.023324
 3513 Fit      -0.023936
 3514 Fit      -0.023655
 3515 Fit      -0.022577
 3516 Fit      -0.020886
 3517 Fit      -0.018808
 3518 Fit      -0.016591
 3519 Fit      -0.023700
 3520 Fit      -0.024920
 3521 Fit      -0.025397
 3522 Fit      -0.025135
 3523 Fit      -0.024211
 3524 Fit      -0.022765
 3525 Fit      -0.020990
 3526 Fit      -0.019157
 3527 Fit      -0.017771
 3528 Fit      -0.023920
 3529 Fit      -0.025394
 3530 Fit      -0.026180
 3531 Fit      -0.026258
 3532 Fit      -0.025668
 3533 Fit      -0.024511
 3534 Fit      -0.022941
 3535 Fit      -0.021168
 3536 Fit      -0.019530
 3537 Fit      -0.018840
 3538 Fit      -0.023892
 3539 Fit      -0.025460
 3540 Fit      -0.026376
 3541 Fit      -0.026612
 3542 Fit      -0.026192
 3543 Fit      -0.025196
 3544 Fit      -0.023757
 3545 Fit      -0.022055
 3546 Fit      -0.020353
 3547 Fit      -0.019203
 3548 Fit      -0.023921
 3549 Fit      -0.025395
 3550 Fit      -0.026180
 3551 Fit      -0.026258
 3552 Fit      -0.025668
 3553 Fit      -0.024511
 3554 Fit      -0.022941
 3555 Fit      -0.021168
 3556 Fit      -0.019530
 3557 Fit      -0.018839
 3558 Fit      -0.023700
 3559 Fit      -0.024921
 3560 Fit      -0.025398
 3561 Fit      -0.025136
 3562 Fit      -0.024211
 3563 Fit      -0.022765
 3564 Fit      -0.020990
 3565 Fit      -0.019157
 3566 Fit      -0.017769
 3567 Fit      -0.023325
 3568 Fit      -0.023936
 3569 Fit      -0.023655
 3570 Fit      -0.022578
 3571 Fit      -0.020886
 3572 Fit      -0.018808
 3573 Fit      -0.016590
 3574 Fit      -0.021205
 3575 Fit      -0.021981
 3576 Fit      -0.021678
 3577 Fit      -0.020406
 3578 Fit      -0.018359
 3579 Fit      -0.015672
 3580 Fit      -0.012109
 3581 Fit      -0.019597
 3582 Fit      -0.018823
 3583 Fit      -0.016685
 3584 Fit      -0.013330
 3585 Fit      -0.016233
 3586 Fit       0.004011
 3587 Fit       0.011180
 3588 Fit       0.008547
 3589 Fit       0.004753
 3590 Fit       0.012320
 3591 Fit       0.011129
 3592 Fit       0.009328
 3593 Fit       0.006723
 3594 Fit       0.003037
 3595 Fit       0.011392
 3596 Fit       0.010956
 3597 Fit       0.009799
 3598 Fit       0.007845
 3599 Fit       0.005045
 3600 Fit       0.001650
 3601 Fit       0.005369
 3602 Fit       0.005680
 3603 Fit       0.008469
 3604 Fit       0.009803
 3605 Fit       0.009974
 3606 Fit       0.009028
 3607 Fit       0.007101
 3608 Fit       0.004836
 3609 Fit       0.003963
 3610 Fit       0.006350
 3611 Fit       0.006586
 3612 Fit       0.007760
 3613 Fit       0.008783
 3614 Fit       0.008151
 3615 Fit       0.006650
 3616 Fit       0.007551
 3617 Fit       0.007550
 3618 Fit       0.006348
 3619 Fit       0.006585
 3620 Fit       0.007759
 3621 Fit       0.008783
 3622 Fit       0.008150
 3623 Fit       0.006648
 3624 Fit       0.005365
 3625 Fit       0.005677
 3626 Fit       0.008469
 3627 Fit       0.009803
 3628 Fit       0.009973
 3629 Fit       0.009027
 3630 Fit       0.007099
 3631 Fit       0.004832
 3632 Fit       0.003959
 3633 Fit       0.011392
 3634 Fit       0.010956
 3635 Fit       0.009798
 3636 Fit       0.007843
 3637 Fit       0.005042
 3638 Fit       0.001645
 3639 Fit       0.012320
 3640 Fit       0.011129
 3641 Fit       0.009328
 3642 Fit       0.006720
 3643 Fit       0.003033
 3644 Fit       0.011180
 3645 Fit       0.008546
 3646 Fit       0.004751
 3647 Fit       0.004010
 3648 Fit       0.007491
 3649 Fit       0.010076
 3650 Fit       0.000859
 3651 Fit       0.004978
 3652 Fit       0.007972
 3653 Fit       0.010147
 3654 Fit       0.011876
 3655 Fit      -0.000821
 3656 Fit       0.003710
 3657 Fit       0.006938
 3658 Fit       0.009258
 3659 Fit       0.010978
 3660 Fit       0.012385
 3661 Fit      -0.003307
 3662 Fit       0.002181
 3663 Fit       0.005963
 3664 Fit       0.008625
 3665 Fit       0.010539
 3666 Fit       0.012002
 3667 Fit       0.013307
 3668 Fit      -0.003308
 3669 Fit       0.002180
 3670 Fit       0.005963
 3671 Fit       0.008624
 3672 Fit       0.010539
 3673 Fit       0.012002
 3674 Fit       0.013307
 3675 Fit      -0.000823
 3676 Fit       0.003709
 3677 Fit       0.006937
 3678 Fit       0.009258
 3679 Fit       0.010978
 3680 Fit       0.012384
 3681 Fit       0.000857
 3682 Fit       0.004976
 3683 Fit       0.007971
 3684 Fit       0.010146
 3685 Fit       0.011875
 3686 Fit       0.007489
 3687 Fit       0.010075
 -----------------------------------------------------------------
 Leave Link  602 at Fri Jan 17 11:54:42 2014, MaxMem=   235929600 cpu:         0.8

 Test job not archived.
 1\1\GINC-G28\SP\RHF\Gen\C5H3I1N2O1S1\KOLAR\17-Jan-2014\0\\# hf/gen pse
 udo=read pop=(mk, readradii) iop(6/33=2,6/41=5,6/42=2)\\na resp\\0,1\C
 ,0,4.505294,-0.059446,-0.000364\O,0,3.267441,0.668493,-0.00012\C,0,2.1
 48668,-0.058902,-0.000085\C,0,0.864954,0.612567,0.000173\C,0,-0.139622
 ,-0.33198,-0.000133\S,0,0.549926,-1.912709,0.00051\N,0,2.140837,-1.369
 974,-0.000226\I,0,-2.207751,0.002629,-0.000126\C,0,0.707244,2.023647,0
 .000345\N,0,0.588936,3.180853,0.000389\H,0,4.579848,-0.688796,0.891241
 \H,0,4.579679,-0.688474,-0.892209\H,0,5.285276,0.701855,-0.000301\\Ver
 sion=AM64L-G09RevD.01\State=1-A\HF=-783.4587365\RMSD=8.151e-09\Dipole=
 0.1108212,-1.3116066,0.0000957\Quadrupole=12.9204263,-12.2803444,-0.64
 00819,-0.9213523,-0.000686,-0.0029541\PG=C01 [X(C5H3I1N2O1S1)]\\@


 GROWING OLD ISN'T SO BAD -- WHEN YOU CONSIDER THE ALTERNATIVE.

                     -- MAURICE CHEVALIER
 Job cpu time:       0 days  0 hours  0 minutes 10.9 seconds.
 File lengths (MBytes):  RWF=     10 Int=      0 D2E=      0 Chk=      2 Scr=      1
 Normal termination of Gaussian 09 at Fri Jan 17 11:54:42 2014.
10.44user 0.44system 0:11.31elapsed 96%CPU (0avgtext+0avgdata 1965776maxresident)k
8inputs+21968outputs (0major+276201minor)pagefaults 0swaps
