Linux g28 2.6.38.6-client #1 SMP Tue Jun 12 11:27:21 CEST 2012 x86_64 GNU/Linux
Fri Jan 17 11:54:31 CET 2014

 Entering Gaussian System, Link 0=/usr/local/programs/common/gaussian/gaussian09_d01/arch/amd64-pgi_10.4.0-acml/g09/g09
 Initial command:
 /usr/local/programs/common/gaussian/gaussian09_d01/arch/amd64-pgi_10.4.0-acml/g09/l1.exe "/scratch/kolar/g09_20325/Gau-2803.inp" -scrdir="/scratch/kolar/g09_20325/"
 Entering Link 1 = /usr/local/programs/common/gaussian/gaussian09_d01/arch/amd64-pgi_10.4.0-acml/g09/l1.exe PID=      2811.
  
 Copyright (c) 1988,1990,1992,1993,1995,1998,2003,2009,2013,
            Gaussian, Inc.  All Rights Reserved.
  
 This is part of the Gaussian(R) 09 program.  It is based on
 the Gaussian(R) 03 system (copyright 2003, Gaussian, Inc.),
 the Gaussian(R) 98 system (copyright 1998, Gaussian, Inc.),
 the Gaussian(R) 94 system (copyright 1995, Gaussian, Inc.),
 the Gaussian 92(TM) system (copyright 1992, Gaussian, Inc.),
 the Gaussian 90(TM) system (copyright 1990, Gaussian, Inc.),
 the Gaussian 88(TM) system (copyright 1988, Gaussian, Inc.),
 the Gaussian 86(TM) system (copyright 1986, Carnegie Mellon
 University), and the Gaussian 82(TM) system (copyright 1983,
 Carnegie Mellon University). Gaussian is a federally registered
 trademark of Gaussian, Inc.
  
 This software contains proprietary and confidential information,
 including trade secrets, belonging to Gaussian, Inc.
  
 This software is provided under written license and may be
 used, copied, transmitted, or stored only in accord with that
 written license.
  
 The following legend is applicable only to US Government
 contracts under FAR:
  
                    RESTRICTED RIGHTS LEGEND
  
 Use, reproduction and disclosure by the US Government is
 subject to restrictions as set forth in subparagraphs (a)
 and (c) of the Commercial Computer Software - Restricted
 Rights clause in FAR 52.227-19.
  
 Gaussian, Inc.
 340 Quinnipiac St., Bldg. 40, Wallingford CT 06492
  
  
 ---------------------------------------------------------------
 Warning -- This program may not be used in any manner that
 competes with the business of Gaussian, Inc. or will provide
 assistance to any competitor of Gaussian, Inc.  The licensee
 of this program is prohibited from giving any competitor of
 Gaussian, Inc. access to this program.  By using this program,
 the user acknowledges that Gaussian, Inc. is engaged in the
 business of creating and licensing software in the field of
 computational chemistry and represents and warrants to the
 licensee that it is not a competitor of Gaussian, Inc. and that
 it will not use this program in any manner prohibited above.
 ---------------------------------------------------------------
  

 Cite this work as:
 Gaussian 09, Revision D.01,
 M. J. Frisch, G. W. Trucks, H. B. Schlegel, G. E. Scuseria, 
 M. A. Robb, J. R. Cheeseman, G. Scalmani, V. Barone, B. Mennucci, 
 G. A. Petersson, H. Nakatsuji, M. Caricato, X. Li, H. P. Hratchian, 
 A. F. Izmaylov, J. Bloino, G. Zheng, J. L. Sonnenberg, M. Hada, 
 M. Ehara, K. Toyota, R. Fukuda, J. Hasegawa, M. Ishida, T. Nakajima, 
 Y. Honda, O. Kitao, H. Nakai, T. Vreven, J. A. Montgomery, Jr., 
 J. E. Peralta, F. Ogliaro, M. Bearpark, J. J. Heyd, E. Brothers, 
 K. N. Kudin, V. N. Staroverov, T. Keith, R. Kobayashi, J. Normand, 
 K. Raghavachari, A. Rendell, J. C. Burant, S. S. Iyengar, J. Tomasi, 
 M. Cossi, N. Rega, J. M. Millam, M. Klene, J. E. Knox, J. B. Cross, 
 V. Bakken, C. Adamo, J. Jaramillo, R. Gomperts, R. E. Stratmann, 
 O. Yazyev, A. J. Austin, R. Cammi, C. Pomelli, J. W. Ochterski, 
 R. L. Martin, K. Morokuma, V. G. Zakrzewski, G. A. Voth, 
 P. Salvador, J. J. Dannenberg, S. Dapprich, A. D. Daniels, 
 O. Farkas, J. B. Foresman, J. V. Ortiz, J. Cioslowski, 
 and D. J. Fox, Gaussian, Inc., Wallingford CT, 2013.
 
 ******************************************
 Gaussian 09:  AM64L-G09RevD.01 24-Apr-2013
                17-Jan-2014 
 ******************************************
 %mem=1800mb
 ------------------------------------------------------------------
 # hf/gen pseudo=read pop=(mk, readradii) iop(6/33=2,6/41=5,6/42=2)
 ------------------------------------------------------------------
 1/38=1/1;
 2/12=2,17=6,18=5,40=1/2;
 3/5=7,11=9,16=1,17=8,25=1,30=1/1,2,3;
 4//1;
 5/5=2,38=5/2;
 6/7=2,8=2,9=2,10=2,15=8,20=101,28=1,33=2,41=5,42=2/1,2;
 99/5=1,9=1/99;
 -------
 na resp
 -------
 Symbolic Z-matrix:
 Charge =  0 Multiplicity = 1
 6                    -3.81747   2.12933   0.00059 
 6                    -2.88256   0.94557   0.00015 
 6                    -3.34778  -0.33774   0.00006 
 6                    -2.40979  -1.46751  -0.00048 
 8                    -2.70983  -2.63995  -0.00138 
 8                    -1.04936  -1.1698    0.00021 
 6                    -0.56937   0.09759   0.00005 
 6                    -1.44997   1.20109  -0.00005 
 6                    -0.87978   2.48411  -0.00017 
 6                     0.4945    2.67092  -0.00025 
 6                     1.36137   1.56298  -0.00013 
 6                     0.81743   0.26812   0.00004 
 53                    2.1026   -1.42141   0.00022 
 8                     2.71011   1.66381  -0.00012 
 6                     3.30599   2.95413  -0.0005 
 6                    -4.81095  -0.71579   0.00032 
 1                    -3.64974   2.75948   0.8829 
 1                    -3.64978   2.76009  -0.8813 
 1                    -4.86402   1.82384   0.0005 
 1                    -1.52346   3.35675  -0.00026 
 1                     0.89521   3.67719  -0.00034 
 1                     3.03005   3.52421   0.89547 
 1                     4.38256   2.77822  -0.00061 
 1                     3.02979   3.5238   -0.89664 
 1                    -5.32998  -0.3279    0.88504 
 1                    -4.90496  -1.80242   0.00024 
 1                    -5.33035  -0.32781  -0.88413 
 
                          Input orientation:                          
 ---------------------------------------------------------------------
 Center     Atomic      Atomic             Coordinates (Angstroms)
 Number     Number       Type             X           Y           Z
 ---------------------------------------------------------------------
      1          6           0       -3.817471    2.129331    0.000591
      2          6           0       -2.882560    0.945571    0.000149
      3          6           0       -3.347784   -0.337737    0.000064
      4          6           0       -2.409794   -1.467509   -0.000484
      5          8           0       -2.709830   -2.639947   -0.001379
      6          8           0       -1.049363   -1.169798    0.000209
      7          6           0       -0.569374    0.097594    0.000047
      8          6           0       -1.449965    1.201091   -0.000049
      9          6           0       -0.879780    2.484113   -0.000168
     10          6           0        0.494497    2.670924   -0.000245
     11          6           0        1.361367    1.562978   -0.000128
     12          6           0        0.817429    0.268124    0.000040
     13         53           0        2.102598   -1.421413    0.000218
     14          8           0        2.710114    1.663808   -0.000119
     15          6           0        3.305994    2.954127   -0.000497
     16          6           0       -4.810955   -0.715789    0.000324
     17          1           0       -3.649740    2.759482    0.882903
     18          1           0       -3.649776    2.760089   -0.881296
     19          1           0       -4.864015    1.823836    0.000501
     20          1           0       -1.523457    3.356753   -0.000255
     21          1           0        0.895207    3.677194   -0.000340
     22          1           0        3.030055    3.524209    0.895467
     23          1           0        4.382556    2.778223   -0.000611
     24          1           0        3.029786    3.523802   -0.896635
     25          1           0       -5.329985   -0.327902    0.885035
     26          1           0       -4.904959   -1.802423    0.000241
     27          1           0       -5.330349   -0.327806   -0.884129
 ---------------------------------------------------------------------
                    Distance matrix (angstroms):
                    1          2          3          4          5
     1  C    0.000000
     2  C    1.508425   0.000000
     3  C    2.511380   1.365032   0.000000
     4  C    3.862488   2.458956   1.468404   0.000000
     5  O    4.896211   3.589676   2.388966   1.210220   0.000000
     6  O    4.306585   2.799178   2.444395   1.392625   2.217767
     7  C    3.831200   2.463716   2.812308   2.415925   3.475009
     8  C    2.542974   1.455204   2.443299   2.835965   4.042380
     9  C    2.959037   2.525518   3.748851   4.237483   5.441055
    10  C    4.345848   3.792276   4.880078   5.055842   6.202666
    11  C    5.209714   4.288602   5.078269   4.837924   5.851429
    12  C    4.994636   3.761496   4.209046   3.664340   4.571481
    13  I    6.903260   5.518552   5.557069   4.512627   4.964302
    14  O    6.544164   5.638605   6.379993   6.001550   6.920845
    15  C    7.171056   6.506343   7.423552   7.226417   8.214853
    16  C    3.013589   2.545353   1.511222   2.516080   2.849055
    17  H    1.097132   2.158262   3.234710   4.492804   5.551506
    18  H    1.097134   2.158250   3.234891   4.492880   5.551409
    19  H    1.090221   2.167375   2.640332   4.105625   4.956397
    20  H    2.601743   2.767844   4.120367   4.905007   6.112928
    21  H    4.960364   4.661897   5.841459   6.114818   7.273415
    22  H    7.045218   6.512295   7.509541   7.437199   8.470386
    23  H    8.225661   7.492698   8.334708   8.010135   8.925161
    24  H    7.045175   6.512091   7.509258   7.436754   8.469739
    25  H    3.017935   2.897352   2.170804   3.257355   3.605065
    26  H    4.079377   3.411974   2.137779   2.517542   2.349477
    27  H    3.018121   2.897431   2.170820   3.257206   3.604492
                    6          7          8          9         10
     6  O    0.000000
     7  C    1.355239   0.000000
     8  C    2.404495   1.411788   0.000000
     9  C    3.657844   2.406621   1.404014   0.000000
    10  C    4.139402   2.784573   2.437487   1.386916   0.000000
    11  C    3.644130   2.423863   2.834528   2.423062   1.406772
    12  C    2.356381   1.397248   2.451837   2.791259   2.424404
    13  I    3.161988   3.073567   4.415680   4.914032   4.396955
    14  O    4.707759   3.634291   4.185733   3.682423   2.433771
    15  C    5.997991   4.814380   5.068755   4.212080   2.825725
    16  C    3.788891   4.318866   3.869197   5.068877   6.294255
    17  H    4.793782   4.165782   2.836758   2.920329   4.238218
    18  H    4.794081   4.165876   2.836589   2.919833   4.237830
    19  H    4.849063   4.628591   3.470382   4.038576   5.425054
    20  H    4.551311   3.395938   2.156914   1.084353   2.131314
    21  H    5.222517   3.867626   3.410413   2.138696   1.083119
    22  H    6.283060   5.049689   5.125369   4.143763   2.821250
    23  H    6.715103   5.630931   6.041990   5.270548   3.889539
    24  H    6.282807   5.049445   5.125136   4.143587   2.821100
    25  H    4.451453   4.860830   4.263303   5.338102   6.610694
    26  H    3.907152   4.733642   4.578000   5.880175   7.011773
    27  H    4.451724   4.861030   4.263391   5.338149   6.610784
                   11         12         13         14         15
    11  C    0.000000
    12  C    1.404463   0.000000
    13  I    3.075063   2.122780   0.000000
    14  O    1.352511   2.351636   3.144466   0.000000
    15  C    2.390998   3.661635   4.538008   1.421266   0.000000
    16  C    6.579539   5.713737   6.949469   7.888534   8.908038
    17  H    5.227099   5.190560   7.165780   6.513676   7.014308
    18  H    5.226958   5.190623   7.166019   6.513563   7.014000
    19  H    6.230845   5.890590   7.685398   7.575819   8.247824
    20  H    3.397034   3.875484   5.998262   4.559516   4.846205
    21  H    2.164998   3.409957   5.239617   2.710648   2.516887
    22  H    2.726360   4.037275   5.110854   2.089385   1.097218
    23  H    3.256440   4.360129   4.778614   2.009722   1.090838
    24  H    2.726202   4.037077   5.110692   2.089380   1.097216
    25  H    7.009503   6.239324   7.564520   8.330282   9.280949
    26  H    7.112859   6.085465   7.017907   8.366845   9.489179
    27  H    7.009678   6.239556   7.564836   8.330489   9.281073
                   16         17         18         19         20
    16  C    0.000000
    17  H    3.768935   0.000000
    18  H    3.769260   1.764199   0.000000
    19  H    2.540179   1.768765   1.768760   0.000000
    20  H    5.233855   2.378609   2.377703   3.675481   0.000000
    21  H    7.201290   4.720048   4.719538   6.050089   2.439799
    22  H    8.958811   6.723439   6.954201   8.124566   4.643795
    23  H    9.835078   8.080763   8.080488   9.295694   5.934281
    24  H    8.958565   6.954639   6.723098   8.124459   4.643643
    25  H    1.096614   3.514992   3.934300   2.372658   5.371227
    26  H    1.090693   4.813070   4.813430   3.626490   6.168602
    27  H    1.096612   3.934234   3.515598   2.372678   5.371186
                   21         22         23         24         25
    21  H    0.000000
    22  H    2.320226   0.000000
    23  H    3.601354   1.785696   0.000000
    24  H    2.320194   1.792102   1.785703   0.000000
    25  H    7.455045   9.204843  10.235518   9.375273   0.000000
    26  H    7.979231   9.598900  10.355687   9.598606   1.771361
    27  H    7.455109   9.375571  10.235651   9.204721   1.769164
                   26         27
    26  H    0.000000
    27  H    1.771317   0.000000
 Stoichiometry    C12H11IO3
 Framework group  C1[X(C12H11IO3)]
 Deg. of freedom    75
 Full point group                 C1      NOp   1
 Largest Abelian subgroup         C1      NOp   1
 Largest concise Abelian subgroup C1      NOp   1
                         Standard orientation:                         
 ---------------------------------------------------------------------
 Center     Atomic      Atomic             Coordinates (Angstroms)
 Number     Number       Type             X           Y           Z
 ---------------------------------------------------------------------
      1          6           0       -3.817471    2.129330    0.000591
      2          6           0       -2.882560    0.945571    0.000149
      3          6           0       -3.347784   -0.337737    0.000064
      4          6           0       -2.409794   -1.467509   -0.000484
      5          8           0       -2.709830   -2.639947   -0.001379
      6          8           0       -1.049363   -1.169798    0.000209
      7          6           0       -0.569374    0.097594    0.000047
      8          6           0       -1.449965    1.201091   -0.000049
      9          6           0       -0.879780    2.484113   -0.000168
     10          6           0        0.494496    2.670924   -0.000245
     11          6           0        1.361367    1.562978   -0.000128
     12          6           0        0.817429    0.268124    0.000040
     13         53           0        2.102598   -1.421413    0.000218
     14          8           0        2.710114    1.663809   -0.000119
     15          6           0        3.305993    2.954128   -0.000497
     16          6           0       -4.810955   -0.715790    0.000324
     17          1           0       -3.649741    2.759482    0.882903
     18          1           0       -3.649777    2.760089   -0.881296
     19          1           0       -4.864015    1.823835    0.000501
     20          1           0       -1.523458    3.356753   -0.000255
     21          1           0        0.895206    3.677194   -0.000340
     22          1           0        3.030054    3.524210    0.895467
     23          1           0        4.382555    2.778224   -0.000611
     24          1           0        3.029785    3.523803   -0.896635
     25          1           0       -5.329985   -0.327903    0.885035
     26          1           0       -4.904959   -1.802424    0.000241
     27          1           0       -5.330349   -0.327807   -0.884129
 ---------------------------------------------------------------------
 Rotational constants (GHZ):      0.5512458      0.2600010      0.1772622
 General basis read from cards:  (5D, 7F)
 ======================================================================================================
                                       Pseudopotential Parameters
 ======================================================================================================
  Center     Atomic      Valence      Angular      Power
  Number     Number     Electrons     Momentum     of R      Exponent        Coefficient   SO-Coeffient
 ======================================================================================================
    1          6
                                   No pseudopotential on this center.
    2          6
                                   No pseudopotential on this center.
    3          6
                                   No pseudopotential on this center.
    4          6
                                   No pseudopotential on this center.
    5          8
                                   No pseudopotential on this center.
    6          8
                                   No pseudopotential on this center.
    7          6
                                   No pseudopotential on this center.
    8          6
                                   No pseudopotential on this center.
    9          6
                                   No pseudopotential on this center.
   10          6
                                   No pseudopotential on this center.
   11          6
                                   No pseudopotential on this center.
   12          6
                                   No pseudopotential on this center.
   13         53            7
                                      F and up 
                                                     0        1.0715702       -0.07476210    0.00000000
                                                     1       44.1936028      -30.08112240    0.00000000
                                                     2       12.9367609      -75.37227210    0.00000000
                                                     2        3.1956412      -22.05637580    0.00000000
                                                     2        0.8589806       -1.69795850    0.00000000
                                      S - F
                                                     0      127.9202670        2.93800360    0.00000000
                                                     1       78.6211465       41.24712670    0.00000000
                                                     2       36.5146237      287.86800950    0.00000000
                                                     2        9.9065681      114.37585060    0.00000000
                                                     2        1.9420086       37.65477140    0.00000000
                                      P - F
                                                     0       13.0035304        2.22226300    0.00000000
                                                     1       76.0331404       39.40908310    0.00000000
                                                     2       24.1961684      177.40750020    0.00000000
                                                     2        6.4053433       77.98894620    0.00000000
                                                     2        1.5851786       25.75476410    0.00000000
                                      D - F
                                                     0       40.4278108        7.05243600    0.00000000
                                                     1       28.9084375       33.30416350    0.00000000
                                                     2       15.6268936      186.94538750    0.00000000
                                                     2        4.1442856       71.96883610    0.00000000
                                                     2        0.9377235        9.36306570    0.00000000
   14          8
                                   No pseudopotential on this center.
   15          6
                                   No pseudopotential on this center.
   16          6
                                   No pseudopotential on this center.
   17          1
                                   No pseudopotential on this center.
   18          1
                                   No pseudopotential on this center.
   19          1
                                   No pseudopotential on this center.
   20          1
                                   No pseudopotential on this center.
   21          1
                                   No pseudopotential on this center.
   22          1
                                   No pseudopotential on this center.
   23          1
                                   No pseudopotential on this center.
   24          1
                                   No pseudopotential on this center.
   25          1
                                   No pseudopotential on this center.
   26          1
                                   No pseudopotential on this center.
   27          1
                                   No pseudopotential on this center.
 ======================================================================================================
 There are   255 symmetry adapted cartesian basis functions of A   symmetry.
 There are   240 symmetry adapted basis functions of A   symmetry.
   240 basis functions,   476 primitive gaussians,   255 cartesian basis functions
    57 alpha electrons       57 beta electrons
       nuclear repulsion energy      1034.7707987767 Hartrees.
 NAtoms=   27 NActive=   27 NUniq=   27 SFac= 1.00D+00 NAtFMM=   60 NAOKFM=F Big=F
 Integral buffers will be    131072 words long.
 Raffenetti 1 integral format.
 Two-electron integral symmetry is turned on.
 One-electron integrals computed using PRISM.
   1 Symmetry operations used in ECPInt.
 ECPInt:  NShTT=    3741 NPrTT=   23525 LenC2=    3432 LenP2D=   13333.
 LDataN:  DoStor=T MaxTD1= 5 Len=  102
 NBasis=   240 RedAO= T EigKep=  4.11D-04  NBF=   240
 NBsUse=   240 1.00D-06 EigRej= -1.00D+00 NBFU=   240
 ExpMin= 1.05D-01 ExpMax= 5.48D+03 ExpMxC= 8.25D+02 IAcc=1 IRadAn=         1 AccDes= 0.00D+00
 Harris functional with IExCor=  205 and IRadAn=       1 diagonalized for initial guess.
 HarFok:  IExCor=  205 AccDes= 0.00D+00 IRadAn=         1 IDoV= 1 UseB2=F ITyADJ=14
 ICtDFT=  3500011 ScaDFX=  1.000000  1.000000  1.000000  1.000000
 Defaulting to unpruned grid for atomic number  53.
 FoFCou: FMM=F IPFlag=           0 FMFlag=      100000 FMFlg1=           0
         NFxFlg=           0 DoJE=T BraDBF=F KetDBF=T FulRan=T
         wScrn=  0.000000 ICntrl=     500 IOpCl=  0 I1Cent=   200000004 NGrid=           0
         NMat0=    1 NMatS0=      1 NMatT0=    0 NMatD0=    1 NMtDS0=    0 NMtDT0=    0
 Petite list used in FoFCou.
 Requested convergence on RMS density matrix=1.00D-08 within 128 cycles.
 Requested convergence on MAX density matrix=1.00D-06.
 Requested convergence on             energy=1.00D-06.
 No special actions if energy rises.
 Integral accuracy reduced to 1.0D-05 until final iterations.
 Initial convergence to 1.0D-05 achieved.  Increase integral accuracy.
 SCF Done:  E(RHF) =  -696.554160543     A.U. after   16 cycles
            NFock= 16  Conv=0.89D-08     -V/T= 2.0130

 **********************************************************************

            Population analysis using the SCF density.

 **********************************************************************

 Orbital symmetries:
 BldTbl:  Degeneracy threshold= 1.00D-02
       Occupied  (A) (A) (A) (A) (A) (A) (A) (A) (A) (A) (A) (A)
                 (A) (A) (A) (A) (A) (A) (A) (A) (A) (A) (A) (A)
                 (A) (A) (A) (A) (A) (A) (A) (A) (A) (A) (A) (A)
                 (A) (A) (A) (A) (A) (A) (A) (A) (A) (A) (A) (A)
                 (A) (A) (A) (A) (A) (A) (A) (A) (A)
       Virtual   (A) (A) (A) (A) (A) (A) (A) (A) (A) (A) (A) (A)
                 (A) (A) (A) (A) (A) (A) (A) (A) (A) (A) (A) (A)
                 (A) (A) (A) (A) (A) (A) (A) (A) (A) (A) (A) (A)
                 (A) (A) (A) (A) (A) (A) (A) (A) (A) (A) (A) (A)
                 (A) (A) (A) (A) (A) (A) (A) (A) (A) (A) (A) (A)
                 (A) (A) (A) (A) (A) (A) (A) (A) (A) (A) (A) (A)
                 (A) (A) (A) (A) (A) (A) (A) (A) (A) (A) (A) (A)
                 (A) (A) (A) (A) (A) (A) (A) (A) (A) (A) (A) (A)
                 (A) (A) (A) (A) (A) (A) (A) (A) (A) (A) (A) (A)
                 (A) (A) (A) (A) (A) (A) (A) (A) (A) (A) (A) (A)
                 (A) (A) (A) (A) (A) (A) (A) (A) (A) (A) (A) (A)
                 (A) (A) (A) (A) (A) (A) (A) (A) (A) (A) (A) (A)
                 (A) (A) (A) (A) (A) (A) (A) (A) (A) (A) (A) (A)
                 (A) (A) (A) (A) (A) (A) (A) (A) (A) (A) (A) (A)
                 (A) (A) (A) (A) (A) (A) (A) (A) (A) (A) (A) (A)
                 (A) (A) (A)
 The electronic state is 1-A.
 Alpha  occ. eigenvalues --  -20.62987 -20.61088 -20.54338 -11.39086 -11.34273
 Alpha  occ. eigenvalues --  -11.34013 -11.30077 -11.29040 -11.28894 -11.27334
 Alpha  occ. eigenvalues --  -11.26198 -11.25737 -11.25262 -11.24850 -11.22547
 Alpha  occ. eigenvalues --   -1.47390  -1.43440  -1.36819  -1.18287  -1.13589
 Alpha  occ. eigenvalues --   -1.05478  -1.04361  -1.00582  -0.97314  -0.93725
 Alpha  occ. eigenvalues --   -0.89866  -0.86551  -0.84190  -0.80715  -0.76798
 Alpha  occ. eigenvalues --   -0.71979  -0.70642  -0.70349  -0.67373  -0.65824
 Alpha  occ. eigenvalues --   -0.64951  -0.62332  -0.60280  -0.60243  -0.59420
 Alpha  occ. eigenvalues --   -0.58902  -0.58504  -0.57242  -0.55368  -0.54909
 Alpha  occ. eigenvalues --   -0.52933  -0.52162  -0.51261  -0.50926  -0.47757
 Alpha  occ. eigenvalues --   -0.46414  -0.44321  -0.40999  -0.38516  -0.35334
 Alpha  occ. eigenvalues --   -0.32335  -0.30347
 Alpha virt. eigenvalues --    0.06889   0.11723   0.12474   0.15597   0.21916
 Alpha virt. eigenvalues --    0.22892   0.25665   0.25960   0.27423   0.29140
 Alpha virt. eigenvalues --    0.29913   0.30679   0.30700   0.31356   0.31545
 Alpha virt. eigenvalues --    0.33211   0.34246   0.35115   0.37968   0.39731
 Alpha virt. eigenvalues --    0.40735   0.42642   0.44482   0.46349   0.48367
 Alpha virt. eigenvalues --    0.49865   0.50942   0.52703   0.54419   0.55791
 Alpha virt. eigenvalues --    0.56029   0.61031   0.62326   0.64929   0.68146
 Alpha virt. eigenvalues --    0.69738   0.70735   0.72323   0.72640   0.74057
 Alpha virt. eigenvalues --    0.74786   0.75749   0.76120   0.77063   0.78404
 Alpha virt. eigenvalues --    0.80995   0.81302   0.82303   0.82429   0.85143
 Alpha virt. eigenvalues --    0.86793   0.87354   0.89282   0.90006   0.91138
 Alpha virt. eigenvalues --    0.93502   0.95553   0.95890   0.96966   0.98802
 Alpha virt. eigenvalues --    0.99669   1.00436   1.01387   1.05154   1.05211
 Alpha virt. eigenvalues --    1.07857   1.10456   1.11088   1.11533   1.13624
 Alpha virt. eigenvalues --    1.14154   1.14159   1.15376   1.16953   1.17202
 Alpha virt. eigenvalues --    1.19722   1.20216   1.21310   1.21802   1.24689
 Alpha virt. eigenvalues --    1.25874   1.27206   1.29340   1.31029   1.32161
 Alpha virt. eigenvalues --    1.32717   1.33723   1.36410   1.37362   1.41739
 Alpha virt. eigenvalues --    1.43824   1.44226   1.44908   1.47850   1.48572
 Alpha virt. eigenvalues --    1.50030   1.53966   1.57593   1.60431   1.61433
 Alpha virt. eigenvalues --    1.61812   1.63127   1.66744   1.66786   1.68288
 Alpha virt. eigenvalues --    1.69795   1.72012   1.73934   1.76050   1.77100
 Alpha virt. eigenvalues --    1.78617   1.82644   1.86763   1.94661   1.98970
 Alpha virt. eigenvalues --    2.00444   2.02510   2.02834   2.06854   2.06950
 Alpha virt. eigenvalues --    2.09465   2.11900   2.13406   2.14484   2.15405
 Alpha virt. eigenvalues --    2.17455   2.18095   2.20047   2.21553   2.23782
 Alpha virt. eigenvalues --    2.24211   2.25907   2.27344   2.28248   2.30083
 Alpha virt. eigenvalues --    2.36482   2.38657   2.39856   2.40260   2.42108
 Alpha virt. eigenvalues --    2.42409   2.44003   2.46969   2.50221   2.50513
 Alpha virt. eigenvalues --    2.52678   2.53182   2.55128   2.57709   2.58556
 Alpha virt. eigenvalues --    2.63524   2.63718   2.66953   2.67836   2.68509
 Alpha virt. eigenvalues --    2.69060   2.70549   2.78150   2.78185   2.83900
 Alpha virt. eigenvalues --    2.85242   2.85424   2.91057   2.94278   2.97297
 Alpha virt. eigenvalues --    3.00408   3.00759   3.02332   3.05453   3.06221
 Alpha virt. eigenvalues --    3.12626   3.13692   3.20070   3.26857   3.31113
 Alpha virt. eigenvalues --    3.33958   3.35490   3.39221   3.51495   3.57888
 Alpha virt. eigenvalues --    3.76310   3.85543  10.48042
          Condensed to atoms (all electrons):
               1          2          3          4          5          6
     1  C    5.157250   0.320319  -0.038181   0.001401  -0.000041  -0.000118
     2  C    0.320319   4.856231   0.585270  -0.046661   0.003240  -0.017960
     3  C   -0.038181   0.585270   5.254594   0.421029  -0.073352  -0.074088
     4  C    0.001401  -0.046661   0.421029   3.974286   0.610698   0.232399
     5  O   -0.000041   0.003240  -0.073352   0.610698   8.107020  -0.073961
     6  O   -0.000118  -0.017960  -0.074088   0.232399  -0.073961   8.500420
     7  C    0.002812  -0.053123  -0.020919  -0.023732  -0.000572   0.245463
     8  C   -0.050925   0.415126  -0.029647  -0.009019   0.000418  -0.043954
     9  C   -0.008438  -0.053146   0.003296   0.000493   0.000004   0.004228
    10  C   -0.000258   0.005516  -0.000091  -0.000038   0.000000  -0.000086
    11  C    0.000041  -0.000870  -0.000066   0.000131   0.000000   0.001603
    12  C   -0.000188   0.007229   0.000404   0.000584  -0.000135  -0.047592
    13  I    0.000004  -0.000063  -0.000100   0.000936  -0.000071  -0.002700
    14  O    0.000000  -0.000001   0.000000   0.000000   0.000000  -0.000009
    15  C    0.000000   0.000000   0.000000   0.000000   0.000000   0.000000
    16  C   -0.007082  -0.045171   0.295818  -0.028397  -0.009541   0.002354
    17  H    0.387496  -0.037802  -0.000667  -0.000050   0.000001   0.000003
    18  H    0.387497  -0.037800  -0.000663  -0.000050   0.000001   0.000003
    19  H    0.398939  -0.036390  -0.003624   0.000133  -0.000001  -0.000003
    20  H    0.001761  -0.004565  -0.000105  -0.000001   0.000000  -0.000030
    21  H   -0.000008  -0.000054   0.000002   0.000000   0.000000   0.000000
    22  H    0.000000   0.000000   0.000000   0.000000   0.000000   0.000000
    23  H    0.000000   0.000000   0.000000   0.000000   0.000000   0.000000
    24  H    0.000000   0.000000   0.000000   0.000000   0.000000   0.000000
    25  H   -0.001004  -0.003238  -0.040946   0.000724   0.000234  -0.000024
    26  H    0.000228   0.002906  -0.038066  -0.002577   0.009865   0.000202
    27  H   -0.001004  -0.003233  -0.040940   0.000721   0.000233  -0.000024
               7          8          9         10         11         12
     1  C    0.002812  -0.050925  -0.008438  -0.000258   0.000041  -0.000188
     2  C   -0.053123   0.415126  -0.053146   0.005516  -0.000870   0.007229
     3  C   -0.020919  -0.029647   0.003296  -0.000091  -0.000066   0.000404
     4  C   -0.023732  -0.009019   0.000493  -0.000038   0.000131   0.000584
     5  O   -0.000572   0.000418   0.000004   0.000000   0.000000  -0.000135
     6  O    0.245463  -0.043954   0.004228  -0.000086   0.001603  -0.047592
     7  C    4.511453   0.454683   0.011442  -0.058833   0.002224   0.406894
     8  C    0.454683   4.988433   0.490061  -0.016974  -0.049444  -0.009340
     9  C    0.011442   0.490061   4.975011   0.463779   0.009028  -0.073314
    10  C   -0.058833  -0.016974   0.463779   5.163701   0.472824  -0.018085
    11  C    0.002224  -0.049444   0.009028   0.472824   4.416032   0.441891
    12  C    0.406894  -0.009340  -0.073314  -0.018085   0.441891   5.679263
    13  I   -0.064848  -0.003108   0.001077  -0.000943  -0.056880   0.259313
    14  O    0.001143   0.000019   0.004188  -0.051839   0.266159  -0.048736
    15  C    0.000074  -0.000011  -0.000269  -0.009619  -0.046756   0.002812
    16  C    0.000373   0.001554  -0.000081   0.000001   0.000000   0.000010
    17  H   -0.000094  -0.001350  -0.000259  -0.000030   0.000000  -0.000003
    18  H   -0.000093  -0.001358  -0.000262  -0.000030   0.000000  -0.000003
    19  H   -0.000008   0.002602   0.000246   0.000004   0.000000   0.000002
    20  H    0.002709  -0.026181   0.378274  -0.026397   0.001857  -0.000368
    21  H   -0.000341   0.001842  -0.028489   0.385746  -0.033877   0.004315
    22  H   -0.000005   0.000000  -0.000238   0.000609  -0.002016  -0.000137
    23  H    0.000002   0.000000   0.000016   0.000423   0.001892   0.000031
    24  H   -0.000005   0.000000  -0.000238   0.000611  -0.002016  -0.000137
    25  H   -0.000004  -0.000045   0.000002   0.000000   0.000000   0.000000
    26  H   -0.000002  -0.000048   0.000001   0.000000   0.000000   0.000000
    27  H   -0.000004  -0.000045   0.000002   0.000000   0.000000   0.000000
              13         14         15         16         17         18
     1  C    0.000004   0.000000   0.000000  -0.007082   0.387496   0.387497
     2  C   -0.000063  -0.000001   0.000000  -0.045171  -0.037802  -0.037800
     3  C   -0.000100   0.000000   0.000000   0.295818  -0.000667  -0.000663
     4  C    0.000936   0.000000   0.000000  -0.028397  -0.000050  -0.000050
     5  O   -0.000071   0.000000   0.000000  -0.009541   0.000001   0.000001
     6  O   -0.002700  -0.000009   0.000000   0.002354   0.000003   0.000003
     7  C   -0.064848   0.001143   0.000074   0.000373  -0.000094  -0.000093
     8  C   -0.003108   0.000019  -0.000011   0.001554  -0.001350  -0.001358
     9  C    0.001077   0.004188  -0.000269  -0.000081  -0.000259  -0.000262
    10  C   -0.000943  -0.051839  -0.009619   0.000001  -0.000030  -0.000030
    11  C   -0.056880   0.266159  -0.046756   0.000000   0.000000   0.000000
    12  C    0.259313  -0.048736   0.002812   0.000010  -0.000003  -0.000003
    13  I    6.584870  -0.003466   0.000704  -0.000001   0.000000   0.000000
    14  O   -0.003466   8.423287   0.198764   0.000000   0.000000   0.000000
    15  C    0.000704   0.198764   4.867652   0.000000   0.000000   0.000000
    16  C   -0.000001   0.000000   0.000000   5.155733   0.000274   0.000273
    17  H    0.000000   0.000000   0.000000   0.000274   0.511552  -0.030603
    18  H    0.000000   0.000000   0.000000   0.000273  -0.030603   0.511588
    19  H    0.000000   0.000000   0.000000  -0.001241  -0.023190  -0.023195
    20  H    0.000016  -0.000032  -0.000004  -0.000004  -0.000367  -0.000366
    21  H   -0.000173  -0.004872   0.000867   0.000000  -0.000001  -0.000001
    22  H   -0.000027  -0.035909   0.387015   0.000000   0.000000   0.000000
    23  H    0.000034  -0.030462   0.401202   0.000000   0.000000   0.000000
    24  H   -0.000027  -0.035908   0.387013   0.000000   0.000000   0.000000
    25  H    0.000000   0.000000   0.000000   0.391430   0.000297  -0.000081
    26  H    0.000000   0.000000   0.000000   0.392584  -0.000003  -0.000003
    27  H    0.000000   0.000000   0.000000   0.391428  -0.000081   0.000297
              19         20         21         22         23         24
     1  C    0.398939   0.001761  -0.000008   0.000000   0.000000   0.000000
     2  C   -0.036390  -0.004565  -0.000054   0.000000   0.000000   0.000000
     3  C   -0.003624  -0.000105   0.000002   0.000000   0.000000   0.000000
     4  C    0.000133  -0.000001   0.000000   0.000000   0.000000   0.000000
     5  O   -0.000001   0.000000   0.000000   0.000000   0.000000   0.000000
     6  O   -0.000003  -0.000030   0.000000   0.000000   0.000000   0.000000
     7  C   -0.000008   0.002709  -0.000341  -0.000005   0.000002  -0.000005
     8  C    0.002602  -0.026181   0.001842   0.000000   0.000000   0.000000
     9  C    0.000246   0.378274  -0.028489  -0.000238   0.000016  -0.000238
    10  C    0.000004  -0.026397   0.385746   0.000609   0.000423   0.000611
    11  C    0.000000   0.001857  -0.033877  -0.002016   0.001892  -0.002016
    12  C    0.000002  -0.000368   0.004315  -0.000137   0.000031  -0.000137
    13  I    0.000000   0.000016  -0.000173  -0.000027   0.000034  -0.000027
    14  O    0.000000  -0.000032  -0.004872  -0.035909  -0.030462  -0.035908
    15  C    0.000000  -0.000004   0.000867   0.387015   0.401202   0.387013
    16  C   -0.001241  -0.000004   0.000000   0.000000   0.000000   0.000000
    17  H   -0.023190  -0.000367  -0.000001   0.000000   0.000000   0.000000
    18  H   -0.023195  -0.000366  -0.000001   0.000000   0.000000   0.000000
    19  H    0.476369   0.000086   0.000000   0.000000   0.000000   0.000000
    20  H    0.000086   0.445135  -0.001342  -0.000001   0.000000  -0.000001
    21  H    0.000000  -0.001342   0.453967  -0.000155   0.000051  -0.000156
    22  H    0.000000  -0.000001  -0.000155   0.546781  -0.026841  -0.041751
    23  H    0.000000   0.000000   0.000051  -0.026841   0.471703  -0.026837
    24  H    0.000000  -0.000001  -0.000156  -0.041751  -0.026837   0.546776
    25  H   -0.000825   0.000000   0.000000   0.000000   0.000000   0.000000
    26  H    0.000150   0.000000   0.000000   0.000000   0.000000   0.000000
    27  H   -0.000822   0.000000   0.000000   0.000000   0.000000   0.000000
              25         26         27
     1  C   -0.001004   0.000228  -0.001004
     2  C   -0.003238   0.002906  -0.003233
     3  C   -0.040946  -0.038066  -0.040940
     4  C    0.000724  -0.002577   0.000721
     5  O    0.000234   0.009865   0.000233
     6  O   -0.000024   0.000202  -0.000024
     7  C   -0.000004  -0.000002  -0.000004
     8  C   -0.000045  -0.000048  -0.000045
     9  C    0.000002   0.000001   0.000002
    10  C    0.000000   0.000000   0.000000
    11  C    0.000000   0.000000   0.000000
    12  C    0.000000   0.000000   0.000000
    13  I    0.000000   0.000000   0.000000
    14  O    0.000000   0.000000   0.000000
    15  C    0.000000   0.000000   0.000000
    16  C    0.391430   0.392584   0.391428
    17  H    0.000297  -0.000003  -0.000081
    18  H   -0.000081  -0.000003   0.000297
    19  H   -0.000825   0.000150  -0.000822
    20  H    0.000000   0.000000   0.000000
    21  H    0.000000   0.000000   0.000000
    22  H    0.000000   0.000000   0.000000
    23  H    0.000000   0.000000   0.000000
    24  H    0.000000   0.000000   0.000000
    25  H    0.526095  -0.021344  -0.031565
    26  H   -0.021344   0.437425  -0.021348
    27  H   -0.031565  -0.021348   0.526083
 Mulliken charges:
               1
     1  C   -0.550499
     2  C    0.144241
     3  C   -0.198959
     4  C    0.866991
     5  O   -0.574039
     6  O   -0.726127
     7  C    0.583316
     8  C   -0.113289
     9  C   -0.176415
    10  C   -0.309990
    11  C    0.578243
    12  C   -0.604707
    13  I    0.285454
    14  O   -0.682325
    15  C   -0.189443
    16  C   -0.540313
    17  H    0.194877
    18  H    0.194850
    19  H    0.210770
    20  H    0.229925
    21  H    0.222678
    22  H    0.172674
    23  H    0.208787
    24  H    0.172676
    25  H    0.180293
    26  H    0.240030
    27  H    0.180301
 Sum of Mulliken charges =   0.00000
 Mulliken charges with hydrogens summed into heavy atoms:
               1
     1  C    0.049997
     2  C    0.144241
     3  C   -0.198959
     4  C    0.866991
     5  O   -0.574039
     6  O   -0.726127
     7  C    0.583316
     8  C   -0.113289
     9  C    0.053511
    10  C   -0.087312
    11  C    0.578243
    12  C   -0.604707
    13  I    0.285454
    14  O   -0.682325
    15  C    0.364694
    16  C    0.060311
 DipInt: DoE/N= T F RetVal/Mat= T F Init=T NMatP=  1 IDeriv=0 Min/MaxMlt=  0  4
 Entering OneElI...
 OneElI was handed   235760648 working-precision words.
 Multipole integrals L=0 to 4 MinM= 0 MaxM= 0.
 Requested accuracy = 0.1000D-12
 ShPair: Thresh= 1.00D-13 NBox=     0 BxSize= 0.00D+00 RnKept= 1.96D+01
         NSMCal=                 3741 NSMKep=                3147
 PrsmSu:  NPrtUS=   1 ThrOK=F IAlg=1 NPAlg=1 LenDen=           0.
 Prism:   IPart=     0 DynPar=F LinDyn=F Incr=          31.
 PRISM was handed   235479075 working-precision words and  3147 shell-pairs
 IPart=  0 NShTot=        3147 NBatch=         106 AvBLen=        29.7
 PrSmSu:  NxtVal=             32.
 Electronic moments (au):
       -114.00000000        182.60594986       -120.36064135          0.01950415
      -2957.95984883      -1460.20019500        -98.51127500       -494.99735914
          0.06847358         -0.05738311      11541.98097474      -3617.06745588
         -0.00489473        523.56849040      -2499.07441146         -0.07869814
        129.77856483       -118.12363898          0.83450182          1.24473941
    -154707.13105335     -37297.28165213       -435.26444467     -17327.54663077
          8.18523312     -13125.63785305         -0.99312091          0.51650540
         -0.00937074     -36777.51834078      -3041.08099786      -1427.17460722
         -2.55403784          0.29225013       -185.08746040
 Electronic spatial extent (au):  <R**2>=           4516.6713
 DipInt: DoE/N= F T RetVal/Mat= T F Init=T NMatP=  1 IDeriv=0 Min/MaxMlt=  0  4
 Nuclear    moments (au):
        114.00000000       -182.77339806        123.55969731         -0.01895724
       2888.13455576       1384.14076616         16.88045988        490.94403783
         -0.07544239          0.05105732     -11354.50819262       3586.44241310
          0.02068876       -376.33172279       2530.10936633          0.10756970
        -61.78687792         63.70810164         -0.80778077         -1.23062091
     143982.97782199      31953.13965206         47.50022288      16877.86854626
         -8.33714024      12581.68066123          0.72907907         -0.42189809
         -0.00570060      34147.97719199       1019.35707047        407.60865832
          2.35195839         -0.45761703         53.63776128
 Total      moments (au):
          0.00000000         -0.16744820          3.19905596          0.00054691
        -69.82529306        -76.05942884        -81.63081513         -4.05332131
         -0.00696881         -0.00632578        187.47278212        -30.62504278
          0.01579403        147.23676761         31.03495487          0.02887156
         67.99168691        -54.41553735          0.02672106          0.01411850
     -10724.15323135      -5344.14200007       -387.76422179       -449.67808451
         -0.15190712       -543.95719182         -0.26404184          0.09460731
         -0.01507134      -2629.54114878      -2021.72392739      -1019.56594890
         -0.20207945         -0.16536690       -131.44969912
 Traceless Quadrup. (au):
          6.01321928         -0.22091650         -5.79230278         -4.05332131
         -0.00696881         -0.00632578
 Charge=              0.0000 electrons
 Dipole moment (field-independent basis, Debye):
    X=             -0.4256    Y=              8.1312    Z=              0.0014  Tot=              8.1423
 Quadrupole moment (field-independent basis, Debye-Ang):
   XX=            -93.9174   YY=           -102.3025   ZZ=           -109.7962
   XY=             -5.4519   XZ=             -0.0094   YZ=             -0.0085
 Traceless Quadrupole moment (field-independent basis, Debye-Ang):
   XX=              8.0880   YY=             -0.2971   ZZ=             -7.7908
   XY=             -5.4519   XZ=             -0.0094   YZ=             -0.0085
 Octapole moment (field-independent basis, Debye-Ang**2):
  XXX=            133.4359  YYY=            -21.7977  ZZZ=              0.0112  XYY=            104.7975
  XXY=             22.0895  XXZ=              0.0205  XZZ=             48.3939  YZZ=            -38.7309
  YYZ=              0.0190  XYZ=              0.0100
 Hexadecapole moment (field-independent basis, Debye-Ang**3):
 XXXX=          -4039.2301 YYYY=          -2012.8600 ZZZZ=           -146.0506 XXXY=           -169.3703
 XXXZ=             -0.0572 YYYX=           -204.8803 YYYZ=             -0.0995 ZZZX=              0.0356
 ZZZY=             -0.0057 XXYY=           -990.4112 XXZZ=           -761.4781 YYZZ=           -384.0174
 XXYZ=             -0.0761 YYXZ=             -0.0623 ZZXY=            -49.5103
 N-N= 1.034770798777D+03 E-N=-3.694936901058D+03  KE= 6.876159906724D+02
 Entering OneElI...
 OneElI was handed   235799798 working-precision words.
 Calculate electrostatic properties
    NBasis =   240  MinDer = 0  MaxDer = 0
    NGrid  =    27  NMatD  =   1
 Requested accuracy = 0.1000D-12
 ShPair: Thresh= 1.00D-13 NBox=     0 BxSize= 0.00D+00 RnKept= 1.77D+01
         NSMCal=                 3741 NSMKep=                2859
 PrsmSu:  NPrtUS=   1 ThrOK=F IAlg=1 NPAlg=1 LenDen=           0.
 Prism:   IPart=     0 DynPar=F LinDyn=F Incr=         512.
 PRISM was handed   235542769 working-precision words and  2859 shell-pairs
 IPart=  0 NShTot=       77193 NBatch=        2950 AvBLen=        26.2
 PrSmSu:  NxtVal=            513.
 --------------------------------------------------------
       Center         ----      EFG at Nuclei      ----
                      3XX-RR        3YY-RR        3ZZ-RR
 --------------------------------------------------------
     1   Atom        0.008674     -0.024188      0.015514
     2   Atom        0.174909      0.270670     -0.445579
     3   Atom        0.065708      0.096850     -0.162558
     4   Atom       -0.050948      0.493145     -0.442197
     5   Atom        1.524483     -0.666114     -0.858369
     6   Atom       -0.637326     -0.449688      1.087014
     7   Atom        0.310921     -0.053617     -0.257304
     8   Atom        0.049465      0.083965     -0.133430
     9   Atom        0.216875      0.176828     -0.393703
    10   Atom        0.108297      0.052761     -0.161059
    11   Atom       -0.062715      0.371762     -0.309046
    12   Atom        0.033304     -0.086908      0.053604
    13   Atom       -0.003054     -0.042474      0.045528
    14   Atom       -1.248087     -0.335338      1.583424
    15   Atom        0.092494     -0.291316      0.198821
    16   Atom       -0.098500      0.090724      0.007776
    17   Atom        0.132957      0.001431     -0.134388
    18   Atom        0.132955      0.001149     -0.134104
    19   Atom       -0.265247      0.107209      0.158038
    20   Atom       -0.017096     -0.148917      0.166013
    21   Atom        0.074436     -0.251203      0.176767
    22   Atom        0.114725      0.021988     -0.136713
    23   Atom       -0.284239      0.126435      0.157804
    24   Atom        0.114670      0.022152     -0.136822
    25   Atom        0.045397      0.093268     -0.138666
    26   Atom        0.135818     -0.287741      0.151923
    27   Atom        0.045260      0.093240     -0.138499
 --------------------------------------------------------
                        XY            XZ            YZ
 --------------------------------------------------------
     1   Atom        0.061239      0.000025     -0.000014
     2   Atom        0.037911     -0.000122      0.000080
     3   Atom        0.078841     -0.000010      0.000030
     4   Atom       -0.138807     -0.000013      0.000583
     5   Atom       -0.662785      0.000029     -0.000192
     6   Atom       -1.168716     -0.000983      0.000350
     7   Atom       -0.195981      0.000039      0.000002
     8   Atom        0.030578     -0.000007     -0.000043
     9   Atom        0.017674     -0.000025     -0.000064
    10   Atom        0.023261      0.000002     -0.000034
    11   Atom       -0.069463     -0.000003     -0.000088
    12   Atom        0.224858     -0.000014      0.000017
    13   Atom        0.072796     -0.000007      0.000009
    14   Atom       -0.996688      0.000182      0.000607
    15   Atom       -0.269597      0.000081      0.000152
    16   Atom       -0.033380      0.000027      0.000019
    17   Atom       -0.035562     -0.056849     -0.204568
    18   Atom       -0.035593      0.056813      0.204662
    19   Atom       -0.119683     -0.000035     -0.000014
    20   Atom        0.215679     -0.000021      0.000030
    21   Atom       -0.156317      0.000017      0.000041
    22   Atom        0.047341      0.092724     -0.181437
    23   Atom        0.062672      0.000049     -0.000002
    24   Atom        0.047352     -0.092822      0.181352
    25   Atom        0.071941      0.168394     -0.130566
    26   Atom       -0.047441     -0.000007     -0.000022
    27   Atom        0.072016     -0.168464      0.130564
 --------------------------------------------------------


 ---------------------------------------------------------------------------------
              Nuclear Quadrupole Coupling Constant in Principal Axis System
 ---------------------------------------------------------------------------------

       Atom             a.u.   MegaHertz   Gauss  10(-4) cm-1        Axes

              Baa    -0.0982   -16.379    -5.844    -5.463 -0.6077  0.7941 -0.0001
    13 I(127) Bbb     0.0455     7.595     2.710     2.533 -0.0001  0.0001  1.0000
              Bcc     0.0527     8.784     3.134     2.930  0.7941  0.6077  0.0000
 

 ---------------------------------------------------------------------------------

 No NMR shielding tensors so no spin-rotation constants.
 Leave Link  601 at Fri Jan 17 11:58:02 2014, MaxMem=   235929600 cpu:         0.3
 FitSet:  NAtFit=    27 NAtPot=    27 NAtFrz=     0 MDM=    31 TotChg=   0.00000
 Merz-Kollman atomic radii used.
 Read replacement radii for each type of atom:
 Rad(53) =   2.700000000000D+00
 Atom Element Radius
    1     6    1.50
    2     6    1.50
    3     6    1.50
    4     6    1.50
    5     8    1.40
    6     8    1.40
    7     6    1.50
    8     6    1.50
    9     6    1.50
   10     6    1.50
   11     6    1.50
   12     6    1.50
   13    53    2.70
   14     8    1.40
   15     6    1.50
   16     6    1.50
   17     1    1.20
   18     1    1.20
   19     1    1.20
   20     1    1.20
   21     1    1.20
   22     1    1.20
   23     1    1.20
   24     1    1.20
   25     1    1.20
   26     1    1.20
   27     1    1.20
 Generate VDW surfaces: Layer= 5 Dens= 2 Start= 1.400 Inc= 0.179

 **********************************************************************

            Electrostatic Properties Using The SCF Density

 **********************************************************************

       Atomic Center    1 is at  -3.817471  2.129330  0.000591
       Atomic Center    2 is at  -2.882560  0.945571  0.000149
       Atomic Center    3 is at  -3.347784 -0.337737  0.000064
       Atomic Center    4 is at  -2.409794 -1.467509 -0.000484
       Atomic Center    5 is at  -2.709830 -2.639947 -0.001379
       Atomic Center    6 is at  -1.049363 -1.169798  0.000209
       Atomic Center    7 is at  -0.569374  0.097594  0.000047
       Atomic Center    8 is at  -1.449965  1.201091 -0.000049
       Atomic Center    9 is at  -0.879780  2.484113 -0.000168
       Atomic Center   10 is at   0.494496  2.670924 -0.000245
       Atomic Center   11 is at   1.361367  1.562978 -0.000128
       Atomic Center   12 is at   0.817429  0.268124  0.000040
       Atomic Center   13 is at   2.102598 -1.421413  0.000218
       Atomic Center   14 is at   2.710114  1.663809 -0.000119
       Atomic Center   15 is at   3.305993  2.954128 -0.000497
       Atomic Center   16 is at  -4.810955 -0.715790  0.000324
       Atomic Center   17 is at  -3.649741  2.759482  0.882903
       Atomic Center   18 is at  -3.649777  2.760089 -0.881296
       Atomic Center   19 is at  -4.864015  1.823835  0.000501
       Atomic Center   20 is at  -1.523458  3.356753 -0.000255
       Atomic Center   21 is at   0.895206  3.677194 -0.000340
       Atomic Center   22 is at   3.030054  3.524210  0.895467
       Atomic Center   23 is at   4.382555  2.778224 -0.000611
       Atomic Center   24 is at   3.029785  3.523803 -0.896635
       Atomic Center   25 is at  -5.329985 -0.327903  0.885035
       Atomic Center   26 is at  -4.904959 -1.802424  0.000241
       Atomic Center   27 is at  -5.330349 -0.327807 -0.884129
      ESP Fit Center   28 is at  -4.176593  1.507314  1.973946
      ESP Fit Center   29 is at  -4.701438  1.109179  1.609284
      ESP Fit Center   30 is at  -5.288793  3.198308  1.050591
      ESP Fit Center   31 is at  -5.063778  3.779707  0.365252
      ESP Fit Center   32 is at  -5.063778  3.779707 -0.364070
      ESP Fit Center   33 is at  -5.288793  3.198308 -1.049409
      ESP Fit Center   34 is at  -4.701438  1.109179 -1.608102
      ESP Fit Center   35 is at  -4.176593  1.507314 -1.972763
      ESP Fit Center   36 is at  -2.882560  0.945571  2.100149
      ESP Fit Center   37 is at  -2.164318  0.945571  1.973504
      ESP Fit Center   38 is at  -2.523439  1.567587  1.973504
      ESP Fit Center   39 is at  -3.600803  0.945571  1.973504
      ESP Fit Center   40 is at  -2.523439  0.323555  1.973504
      ESP Fit Center   41 is at  -2.164318  0.945571 -1.973205
      ESP Fit Center   42 is at  -2.523439  1.567587 -1.973205
      ESP Fit Center   43 is at  -3.600803  0.945571 -1.973205
      ESP Fit Center   44 is at  -2.523439  0.323555 -1.973205
      ESP Fit Center   45 is at  -2.882560  0.945571 -2.099851
      ESP Fit Center   46 is at  -3.347784 -0.337737  2.100064
      ESP Fit Center   47 is at  -2.629542 -0.337737  1.973419
      ESP Fit Center   48 is at  -3.706905  0.284279  1.973419
      ESP Fit Center   49 is at  -3.706905 -0.959754  1.973419
      ESP Fit Center   50 is at  -2.988663 -0.959754  1.973419
      ESP Fit Center   51 is at  -2.629542 -0.337737 -1.973290
      ESP Fit Center   52 is at  -3.706905  0.284279 -1.973290
      ESP Fit Center   53 is at  -3.706905 -0.959754 -1.973290
      ESP Fit Center   54 is at  -2.988663 -0.959754 -1.973290
      ESP Fit Center   55 is at  -3.347784 -0.337737 -2.099936
      ESP Fit Center   56 is at  -2.409794 -1.467509  2.099516
      ESP Fit Center   57 is at  -1.691552 -1.467509  1.972871
      ESP Fit Center   58 is at  -2.050673 -0.845493  1.972871
      ESP Fit Center   59 is at  -2.768915 -0.845493  1.972871
      ESP Fit Center   60 is at  -3.128036 -1.467509  1.972871
      ESP Fit Center   61 is at  -2.768915 -2.089525  1.972871
      ESP Fit Center   62 is at  -2.050673 -2.089525  1.972871
      ESP Fit Center   63 is at  -3.704969 -1.847807  1.608209
      ESP Fit Center   64 is at  -3.704969 -1.847807 -1.609177
      ESP Fit Center   65 is at  -1.691552 -1.467509 -1.973838
      ESP Fit Center   66 is at  -2.050673 -0.845493 -1.973838
      ESP Fit Center   67 is at  -2.768915 -0.845493 -1.973838
      ESP Fit Center   68 is at  -3.128036 -1.467509 -1.973838
      ESP Fit Center   69 is at  -2.768915 -2.089525 -1.973838
      ESP Fit Center   70 is at  -2.050673 -2.089525 -1.973838
      ESP Fit Center   71 is at  -2.409794 -1.467509 -2.100484
      ESP Fit Center   72 is at  -2.709830 -2.639947  1.958621
      ESP Fit Center   73 is at  -1.959770 -2.639947  1.809425
      ESP Fit Center   74 is at  -3.459889 -2.639947  1.809425
      ESP Fit Center   75 is at  -3.084859 -3.289518  1.809425
      ESP Fit Center   76 is at  -2.334800 -3.289518  1.809425
      ESP Fit Center   77 is at  -1.323900 -2.639947  1.384550
      ESP Fit Center   78 is at  -4.095759 -2.639947  1.384550
      ESP Fit Center   79 is at  -3.910080 -3.332912  1.384550
      ESP Fit Center   80 is at  -3.402794 -3.840197  1.384550
      ESP Fit Center   81 is at  -2.709830 -4.025877  1.384550
      ESP Fit Center   82 is at  -2.016865 -3.840197  1.384550
      ESP Fit Center   83 is at  -1.509580 -3.332912  1.384550
      ESP Fit Center   84 is at  -4.174801 -3.704311  0.748681
      ESP Fit Center   85 is at  -3.615232 -4.208150  0.748681
      ESP Fit Center   86 is at  -2.899110 -4.440831  0.748681
      ESP Fit Center   87 is at  -2.150260 -4.362124  0.748681
      ESP Fit Center   88 is at  -1.498165 -3.985637  0.748681
      ESP Fit Center   89 is at  -1.055578 -3.376468  0.748681
      ESP Fit Center   90 is at  -4.376255 -3.671754 -0.001379
      ESP Fit Center   91 is at  -3.890993 -4.204061 -0.001379
      ESP Fit Center   92 is at  -3.246209 -4.525126 -0.001379
      ESP Fit Center   93 is at  -2.528984 -4.591586 -0.001379
      ESP Fit Center   94 is at  -1.836182 -4.394467 -0.001379
      ESP Fit Center   95 is at  -1.261372 -3.960391 -0.001379
      ESP Fit Center   96 is at  -4.174801 -3.704311 -0.751438
      ESP Fit Center   97 is at  -3.615232 -4.208150 -0.751438
      ESP Fit Center   98 is at  -2.899110 -4.440831 -0.751438
      ESP Fit Center   99 is at  -2.150260 -4.362124 -0.751438
      ESP Fit Center  100 is at  -1.498165 -3.985637 -0.751438
      ESP Fit Center  101 is at  -1.055578 -3.376468 -0.751438
      ESP Fit Center  102 is at  -1.323900 -2.639947 -1.387308
      ESP Fit Center  103 is at  -4.095759 -2.639947 -1.387308
      ESP Fit Center  104 is at  -3.910080 -3.332912 -1.387308
      ESP Fit Center  105 is at  -3.402794 -3.840197 -1.387308
      ESP Fit Center  106 is at  -2.709830 -4.025877 -1.387308
      ESP Fit Center  107 is at  -2.016865 -3.840197 -1.387308
      ESP Fit Center  108 is at  -1.509580 -3.332912 -1.387308
      ESP Fit Center  109 is at  -1.959770 -2.639947 -1.812183
      ESP Fit Center  110 is at  -3.459889 -2.639947 -1.812183
      ESP Fit Center  111 is at  -3.084859 -3.289518 -1.812183
      ESP Fit Center  112 is at  -2.334800 -3.289518 -1.812183
      ESP Fit Center  113 is at  -2.709830 -2.639947 -1.961379
      ESP Fit Center  114 is at  -1.287616  0.097594  1.973402
      ESP Fit Center  115 is at  -1.287616  0.097594 -1.973307
      ESP Fit Center  116 is at  -1.449965  1.201091  2.099951
      ESP Fit Center  117 is at  -0.731723  1.201091  1.973306
      ESP Fit Center  118 is at  -1.809086  1.823107  1.973306
      ESP Fit Center  119 is at  -2.168208  1.201091  1.973306
      ESP Fit Center  120 is at  -1.809086  0.579075  1.973306
      ESP Fit Center  121 is at  -0.731723  1.201091 -1.973403
      ESP Fit Center  122 is at  -1.809086  1.823107 -1.973403
      ESP Fit Center  123 is at  -2.168208  1.201091 -1.973403
      ESP Fit Center  124 is at  -1.809086  0.579075 -1.973403
      ESP Fit Center  125 is at  -1.449965  1.201091 -2.100049
      ESP Fit Center  126 is at  -0.879780  2.484113  2.099832
      ESP Fit Center  127 is at  -0.520659  3.106129  1.973187
      ESP Fit Center  128 is at  -1.238902  3.106129  1.973187
      ESP Fit Center  129 is at  -1.598023  2.484113  1.973187
      ESP Fit Center  130 is at  -0.520659  1.862097  1.973187
      ESP Fit Center  131 is at  -1.071885  3.820227  1.608525
      ESP Fit Center  132 is at  -1.071885  3.820227 -1.608861
      ESP Fit Center  133 is at  -0.520659  3.106129 -1.973522
      ESP Fit Center  134 is at  -1.238902  3.106129 -1.973522
      ESP Fit Center  135 is at  -1.598023  2.484113 -1.973522
      ESP Fit Center  136 is at  -0.520659  1.862097 -1.973522
      ESP Fit Center  137 is at  -0.879780  2.484113 -2.100168
      ESP Fit Center  138 is at   0.494496  2.670924  2.099755
      ESP Fit Center  139 is at   1.212739  2.670924  1.973110
      ESP Fit Center  140 is at   0.853618  3.292940  1.973110
      ESP Fit Center  141 is at   0.135375  3.292940  1.973110
      ESP Fit Center  142 is at   0.135375  2.048908  1.973110
      ESP Fit Center  143 is at   0.302392  4.007039  1.608448
      ESP Fit Center  144 is at  -0.414830  4.245924  1.049755
      ESP Fit Center  145 is at  -0.414830  4.245924 -1.050245
      ESP Fit Center  146 is at   0.302392  4.007039 -1.608938
      ESP Fit Center  147 is at   1.212739  2.670924 -1.973599
      ESP Fit Center  148 is at   0.853618  3.292940 -1.973599
      ESP Fit Center  149 is at   0.135375  3.292940 -1.973599
      ESP Fit Center  150 is at   0.135375  2.048908 -1.973599
      ESP Fit Center  151 is at   0.494496  2.670924 -2.100245
      ESP Fit Center  152 is at   1.720488  2.184994  1.973227
      ESP Fit Center  153 is at   0.643124  1.562978  1.973227
      ESP Fit Center  154 is at   1.720488  2.184994 -1.973482
      ESP Fit Center  155 is at   0.643124  1.562978 -1.973482
      ESP Fit Center  156 is at   2.102598 -1.421413  3.780218
      ESP Fit Center  157 is at   2.840040 -1.421413  3.707586
      ESP Fit Center  158 is at   2.471319 -0.782770  3.707586
      ESP Fit Center  159 is at   1.733877 -0.782770  3.707586
      ESP Fit Center  160 is at   1.365157 -1.421413  3.707586
      ESP Fit Center  161 is at   1.733877 -2.060056  3.707586
      ESP Fit Center  162 is at   2.471319 -2.060056  3.707586
      ESP Fit Center  163 is at   3.549142 -1.421413  3.492483
      ESP Fit Center  164 is at   3.355341 -0.698141  3.492483
      ESP Fit Center  165 is at   2.825870 -0.168669  3.492483
      ESP Fit Center  166 is at   2.102598  0.025131  3.492483
      ESP Fit Center  167 is at   1.379326 -0.168669  3.492483
      ESP Fit Center  168 is at   0.849855 -0.698141  3.492483
      ESP Fit Center  169 is at   0.656055 -1.421413  3.492483
      ESP Fit Center  170 is at   0.849855 -2.144684  3.492483
      ESP Fit Center  171 is at   1.379326 -2.674156  3.492483
      ESP Fit Center  172 is at   2.102598 -2.867956  3.492483
      ESP Fit Center  173 is at   2.825870 -2.674156  3.492483
      ESP Fit Center  174 is at   3.355341 -2.144684  3.492483
      ESP Fit Center  175 is at   4.202654 -1.421413  3.143173
      ESP Fit Center  176 is at   4.076005 -0.703151  3.143173
      ESP Fit Center  177 is at   3.711334 -0.071523  3.143173
      ESP Fit Center  178 is at   3.152626  0.397289  3.143173
      ESP Fit Center  179 is at   2.467269  0.646738  3.143173
      ESP Fit Center  180 is at   1.737927  0.646738  3.143173
      ESP Fit Center  181 is at   1.052570  0.397289  3.143173
      ESP Fit Center  182 is at   0.493862 -0.071523  3.143173
      ESP Fit Center  183 is at   0.129192 -0.703151  3.143173
      ESP Fit Center  184 is at   0.002543 -1.421413  3.143173
      ESP Fit Center  185 is at   0.129192 -2.139674  3.143173
      ESP Fit Center  186 is at   0.493862 -2.771302  3.143173
      ESP Fit Center  187 is at   1.052570 -3.240114  3.143173
      ESP Fit Center  188 is at   1.737927 -3.489563  3.143173
      ESP Fit Center  189 is at   2.467269 -3.489563  3.143173
      ESP Fit Center  190 is at   3.152626 -3.240114  3.143173
      ESP Fit Center  191 is at   3.711334 -2.771302  3.143173
      ESP Fit Center  192 is at   4.076005 -2.139674  3.143173
      ESP Fit Center  193 is at   4.775462 -1.421413  2.673082
      ESP Fit Center  194 is at   4.676345 -0.700283  2.673082
      ESP Fit Center  195 is at   4.386345 -0.032635  2.673082
      ESP Fit Center  196 is at   3.926970  0.532012  2.673082
      ESP Fit Center  197 is at   3.332289  0.951784  2.673082
      ESP Fit Center  198 is at   2.646408  1.195546  2.673082
      ESP Fit Center  199 is at   1.920196  1.245220  2.673082
      ESP Fit Center  200 is at   1.207511  1.097122  2.673082
      ESP Fit Center  201 is at   0.561210  0.762237  2.673082
      ESP Fit Center  202 is at   0.029228  0.265399  2.673082
      ESP Fit Center  203 is at  -0.348983 -0.356541  2.673082
      ESP Fit Center  204 is at  -0.545370 -1.057458  2.673082
      ESP Fit Center  205 is at  -0.545370 -1.785367  2.673082
      ESP Fit Center  206 is at  -0.348983 -2.486284  2.673082
      ESP Fit Center  207 is at   0.029228 -3.108225  2.673082
      ESP Fit Center  208 is at   0.561210 -3.605062  2.673082
      ESP Fit Center  209 is at   1.207511 -3.939947  2.673082
      ESP Fit Center  210 is at   1.920196 -4.088045  2.673082
      ESP Fit Center  211 is at   2.646408 -4.038371  2.673082
      ESP Fit Center  212 is at   3.332289 -3.794609  2.673082
      ESP Fit Center  213 is at   3.926970 -3.374837  2.673082
      ESP Fit Center  214 is at   4.386345 -2.810190  2.673082
      ESP Fit Center  215 is at   4.676345 -2.142542  2.673082
      ESP Fit Center  216 is at   5.245553 -1.421413  2.100274
      ESP Fit Center  217 is at   5.160835 -0.696597  2.100274
      ESP Fit Center  218 is at   4.911245 -0.010857  2.100274
      ESP Fit Center  219 is at   4.510242  0.598840  2.100274
      ESP Fit Center  220 is at   3.979441  1.099625  2.100274
      ESP Fit Center  221 is at   3.347459  1.464500  2.100274
      ESP Fit Center  222 is at   2.648367  1.673794  2.100274
      ESP Fit Center  223 is at   1.919852  1.716225  2.100274
      ESP Fit Center  224 is at   1.201188  1.589506  2.100274
      ESP Fit Center  225 is at   0.531121  1.300466  2.100274
      ESP Fit Center  226 is at  -0.054228  0.864690  2.100274
      ESP Fit Center  227 is at  -0.523303  0.305670  2.100274
      ESP Fit Center  228 is at  -0.850814 -0.346459  2.100274
      ESP Fit Center  229 is at  -1.019105 -1.056538  2.100274
      ESP Fit Center  230 is at  -1.019105 -1.786287  2.100274
      ESP Fit Center  231 is at  -0.850814 -2.496366  2.100274
      ESP Fit Center  232 is at  -0.523303 -3.148495  2.100274
      ESP Fit Center  233 is at  -0.054228 -3.707515  2.100274
      ESP Fit Center  234 is at   0.531121 -4.143292  2.100274
      ESP Fit Center  235 is at   1.201188 -4.432331  2.100274
      ESP Fit Center  236 is at   1.919852 -4.559050  2.100274
      ESP Fit Center  237 is at   2.648367 -4.516619  2.100274
      ESP Fit Center  238 is at   3.347459 -4.307325  2.100274
      ESP Fit Center  239 is at   3.979441 -3.942450  2.100274
      ESP Fit Center  240 is at   4.510242 -3.441665  2.100274
      ESP Fit Center  241 is at   4.911245 -2.831968  2.100274
      ESP Fit Center  242 is at   5.160835 -2.146228  2.100274
      ESP Fit Center  243 is at   5.594863 -1.421413  1.446761
      ESP Fit Center  244 is at   5.518548 -0.695330  1.446761
      ESP Fit Center  245 is at   5.292941 -0.000981  1.446761
      ESP Fit Center  246 is at   4.927900  0.631289  1.446761
      ESP Fit Center  247 is at   4.439379  1.173846  1.446761
      ESP Fit Center  248 is at  -1.087744 -2.841845  1.446761
      ESP Fit Center  249 is at  -0.722703 -3.474114  1.446761
      ESP Fit Center  250 is at  -0.234183 -4.016671  1.446761
      ESP Fit Center  251 is at   0.356466 -4.445802  1.446761
      ESP Fit Center  252 is at   1.023429 -4.742754  1.446761
      ESP Fit Center  253 is at   1.737557 -4.894546  1.446761
      ESP Fit Center  254 is at   2.467639 -4.894546  1.446761
      ESP Fit Center  255 is at   3.181767 -4.742754  1.446761
      ESP Fit Center  256 is at   3.848731 -4.445802  1.446761
      ESP Fit Center  257 is at   4.439379 -4.016671  1.446761
      ESP Fit Center  258 is at   4.927900 -3.474114  1.446761
      ESP Fit Center  259 is at   5.292941 -2.841845  1.446761
      ESP Fit Center  260 is at   5.518548 -2.147495  1.446761
      ESP Fit Center  261 is at   5.809967 -1.421413  0.737659
      ESP Fit Center  262 is at   5.738731 -0.698141  0.737659
      ESP Fit Center  263 is at   5.527760 -0.002664  0.737659
      ESP Fit Center  264 is at   5.185162  0.638291  0.737659
      ESP Fit Center  265 is at   4.724103  1.200093  0.737659
      ESP Fit Center  266 is at  -0.979966 -3.481116  0.737659
      ESP Fit Center  267 is at  -0.518907 -4.042918  0.737659
      ESP Fit Center  268 is at   0.042895 -4.503977  0.737659
      ESP Fit Center  269 is at   0.683850 -4.846574  0.737659
      ESP Fit Center  270 is at   1.379326 -5.057545  0.737659
      ESP Fit Center  271 is at   2.102598 -5.128781  0.737659
      ESP Fit Center  272 is at   2.825870 -5.057545  0.737659
      ESP Fit Center  273 is at   3.521347 -4.846574  0.737659
      ESP Fit Center  274 is at   4.162302 -4.503977  0.737659
      ESP Fit Center  275 is at   4.724103 -4.042918  0.737659
      ESP Fit Center  276 is at   5.185162 -3.481116  0.737659
      ESP Fit Center  277 is at   5.527760 -2.840161  0.737659
      ESP Fit Center  278 is at   5.738731 -2.144684  0.737659
      ESP Fit Center  279 is at   5.882598 -1.421413  0.000218
      ESP Fit Center  280 is at   5.814289 -0.706043  0.000218
      ESP Fit Center  281 is at   5.611829 -0.016528  0.000218
      ESP Fit Center  282 is at   5.282537  0.622210  0.000218
      ESP Fit Center  283 is at  -0.868683 -3.758053  0.000218
      ESP Fit Center  284 is at  -0.372775 -4.278146  0.000218
      ESP Fit Center  285 is at   0.212598 -4.694989  0.000218
      ESP Fit Center  286 is at   0.866281 -4.993516  0.000218
      ESP Fit Center  287 is at   1.564648 -5.162938  0.000218
      ESP Fit Center  288 is at   2.282458 -5.197131  0.000218
      ESP Fit Center  289 is at   2.993767 -5.094860  0.000218
      ESP Fit Center  290 is at   3.672867 -4.859821  0.000218
      ESP Fit Center  291 is at   4.295213 -4.500510  0.000218
      ESP Fit Center  292 is at   4.838313 -4.029911  0.000218
      ESP Fit Center  293 is at   5.282537 -3.465035  0.000218
      ESP Fit Center  294 is at   5.611829 -2.826297  0.000218
      ESP Fit Center  295 is at   5.814289 -2.136782  0.000218
      ESP Fit Center  296 is at   5.809967 -1.421413 -0.737223
      ESP Fit Center  297 is at   5.738731 -0.698141 -0.737223
      ESP Fit Center  298 is at   5.527760 -0.002664 -0.737223
      ESP Fit Center  299 is at   5.185162  0.638291 -0.737223
      ESP Fit Center  300 is at   4.724103  1.200093 -0.737223
      ESP Fit Center  301 is at  -0.979966 -3.481116 -0.737223
      ESP Fit Center  302 is at  -0.518907 -4.042918 -0.737223
      ESP Fit Center  303 is at   0.042895 -4.503977 -0.737223
      ESP Fit Center  304 is at   0.683850 -4.846574 -0.737223
      ESP Fit Center  305 is at   1.379326 -5.057545 -0.737223
      ESP Fit Center  306 is at   2.102598 -5.128781 -0.737223
      ESP Fit Center  307 is at   2.825870 -5.057545 -0.737223
      ESP Fit Center  308 is at   3.521347 -4.846574 -0.737223
      ESP Fit Center  309 is at   4.162302 -4.503977 -0.737223
      ESP Fit Center  310 is at   4.724103 -4.042918 -0.737223
      ESP Fit Center  311 is at   5.185162 -3.481116 -0.737223
      ESP Fit Center  312 is at   5.527760 -2.840161 -0.737223
      ESP Fit Center  313 is at   5.738731 -2.144684 -0.737223
      ESP Fit Center  314 is at   5.594863 -1.421413 -1.446325
      ESP Fit Center  315 is at   5.518548 -0.695330 -1.446325
      ESP Fit Center  316 is at   5.292941 -0.000981 -1.446325
      ESP Fit Center  317 is at   4.927900  0.631289 -1.446325
      ESP Fit Center  318 is at   4.439379  1.173846 -1.446325
      ESP Fit Center  319 is at  -1.087744 -2.841845 -1.446325
      ESP Fit Center  320 is at  -0.722703 -3.474114 -1.446325
      ESP Fit Center  321 is at  -0.234183 -4.016671 -1.446325
      ESP Fit Center  322 is at   0.356466 -4.445802 -1.446325
      ESP Fit Center  323 is at   1.023429 -4.742754 -1.446325
      ESP Fit Center  324 is at   1.737557 -4.894546 -1.446325
      ESP Fit Center  325 is at   2.467639 -4.894546 -1.446325
      ESP Fit Center  326 is at   3.181767 -4.742754 -1.446325
      ESP Fit Center  327 is at   3.848731 -4.445802 -1.446325
      ESP Fit Center  328 is at   4.439379 -4.016671 -1.446325
      ESP Fit Center  329 is at   4.927900 -3.474114 -1.446325
      ESP Fit Center  330 is at   5.292941 -2.841845 -1.446325
      ESP Fit Center  331 is at   5.518548 -2.147495 -1.446325
      ESP Fit Center  332 is at   5.245553 -1.421413 -2.099837
      ESP Fit Center  333 is at   5.160835 -0.696597 -2.099837
      ESP Fit Center  334 is at   4.911245 -0.010857 -2.099837
      ESP Fit Center  335 is at   4.510242  0.598840 -2.099837
      ESP Fit Center  336 is at   3.979441  1.099625 -2.099837
      ESP Fit Center  337 is at   3.347459  1.464500 -2.099837
      ESP Fit Center  338 is at   2.648367  1.673794 -2.099837
      ESP Fit Center  339 is at   1.919852  1.716225 -2.099837
      ESP Fit Center  340 is at   1.201188  1.589506 -2.099837
      ESP Fit Center  341 is at   0.531121  1.300466 -2.099837
      ESP Fit Center  342 is at  -0.054228  0.864690 -2.099837
      ESP Fit Center  343 is at  -0.523303  0.305670 -2.099837
      ESP Fit Center  344 is at  -0.850814 -0.346459 -2.099837
      ESP Fit Center  345 is at  -1.019105 -1.056538 -2.099837
      ESP Fit Center  346 is at  -1.019105 -1.786287 -2.099837
      ESP Fit Center  347 is at  -0.850814 -2.496366 -2.099837
      ESP Fit Center  348 is at  -0.523303 -3.148495 -2.099837
      ESP Fit Center  349 is at  -0.054228 -3.707515 -2.099837
      ESP Fit Center  350 is at   0.531121 -4.143292 -2.099837
      ESP Fit Center  351 is at   1.201188 -4.432331 -2.099837
      ESP Fit Center  352 is at   1.919852 -4.559050 -2.099837
      ESP Fit Center  353 is at   2.648367 -4.516619 -2.099837
      ESP Fit Center  354 is at   3.347459 -4.307325 -2.099837
      ESP Fit Center  355 is at   3.979441 -3.942450 -2.099837
      ESP Fit Center  356 is at   4.510242 -3.441665 -2.099837
      ESP Fit Center  357 is at   4.911245 -2.831968 -2.099837
      ESP Fit Center  358 is at   5.160835 -2.146228 -2.099837
      ESP Fit Center  359 is at   4.775462 -1.421413 -2.672646
      ESP Fit Center  360 is at   4.676345 -0.700283 -2.672646
      ESP Fit Center  361 is at   4.386345 -0.032635 -2.672646
      ESP Fit Center  362 is at   3.926970  0.532012 -2.672646
      ESP Fit Center  363 is at   3.332289  0.951784 -2.672646
      ESP Fit Center  364 is at   2.646408  1.195546 -2.672646
      ESP Fit Center  365 is at   1.920196  1.245220 -2.672646
      ESP Fit Center  366 is at   1.207511  1.097122 -2.672646
      ESP Fit Center  367 is at   0.561210  0.762237 -2.672646
      ESP Fit Center  368 is at   0.029228  0.265399 -2.672646
      ESP Fit Center  369 is at  -0.348983 -0.356541 -2.672646
      ESP Fit Center  370 is at  -0.545370 -1.057458 -2.672646
      ESP Fit Center  371 is at  -0.545370 -1.785367 -2.672646
      ESP Fit Center  372 is at  -0.348983 -2.486284 -2.672646
      ESP Fit Center  373 is at   0.029228 -3.108225 -2.672646
      ESP Fit Center  374 is at   0.561210 -3.605062 -2.672646
      ESP Fit Center  375 is at   1.207511 -3.939947 -2.672646
      ESP Fit Center  376 is at   1.920196 -4.088045 -2.672646
      ESP Fit Center  377 is at   2.646408 -4.038371 -2.672646
      ESP Fit Center  378 is at   3.332289 -3.794609 -2.672646
      ESP Fit Center  379 is at   3.926970 -3.374837 -2.672646
      ESP Fit Center  380 is at   4.386345 -2.810190 -2.672646
      ESP Fit Center  381 is at   4.676345 -2.142542 -2.672646
      ESP Fit Center  382 is at   4.202654 -1.421413 -3.142737
      ESP Fit Center  383 is at   4.076005 -0.703151 -3.142737
      ESP Fit Center  384 is at   3.711334 -0.071523 -3.142737
      ESP Fit Center  385 is at   3.152626  0.397289 -3.142737
      ESP Fit Center  386 is at   2.467269  0.646738 -3.142737
      ESP Fit Center  387 is at   1.737927  0.646738 -3.142737
      ESP Fit Center  388 is at   1.052570  0.397289 -3.142737
      ESP Fit Center  389 is at   0.493862 -0.071523 -3.142737
      ESP Fit Center  390 is at   0.129192 -0.703151 -3.142737
      ESP Fit Center  391 is at   0.002543 -1.421413 -3.142737
      ESP Fit Center  392 is at   0.129192 -2.139674 -3.142737
      ESP Fit Center  393 is at   0.493862 -2.771302 -3.142737
      ESP Fit Center  394 is at   1.052570 -3.240114 -3.142737
      ESP Fit Center  395 is at   1.737927 -3.489563 -3.142737
      ESP Fit Center  396 is at   2.467269 -3.489563 -3.142737
      ESP Fit Center  397 is at   3.152626 -3.240114 -3.142737
      ESP Fit Center  398 is at   3.711334 -2.771302 -3.142737
      ESP Fit Center  399 is at   4.076005 -2.139674 -3.142737
      ESP Fit Center  400 is at   3.549142 -1.421413 -3.492047
      ESP Fit Center  401 is at   3.355341 -0.698141 -3.492047
      ESP Fit Center  402 is at   2.825870 -0.168669 -3.492047
      ESP Fit Center  403 is at   2.102598  0.025131 -3.492047
      ESP Fit Center  404 is at   1.379326 -0.168669 -3.492047
      ESP Fit Center  405 is at   0.849855 -0.698141 -3.492047
      ESP Fit Center  406 is at   0.656055 -1.421413 -3.492047
      ESP Fit Center  407 is at   0.849855 -2.144684 -3.492047
      ESP Fit Center  408 is at   1.379326 -2.674156 -3.492047
      ESP Fit Center  409 is at   2.102598 -2.867956 -3.492047
      ESP Fit Center  410 is at   2.825870 -2.674156 -3.492047
      ESP Fit Center  411 is at   3.355341 -2.144684 -3.492047
      ESP Fit Center  412 is at   2.840040 -1.421413 -3.707150
      ESP Fit Center  413 is at   2.471319 -0.782770 -3.707150
      ESP Fit Center  414 is at   1.733877 -0.782770 -3.707150
      ESP Fit Center  415 is at   1.365157 -1.421413 -3.707150
      ESP Fit Center  416 is at   1.733877 -2.060056 -3.707150
      ESP Fit Center  417 is at   2.471319 -2.060056 -3.707150
      ESP Fit Center  418 is at   2.102598 -1.421413 -3.779782
      ESP Fit Center  419 is at   3.460173  1.663809  1.810685
      ESP Fit Center  420 is at   3.460173  1.663809 -1.810923
      ESP Fit Center  421 is at   3.665115  2.332112  1.972858
      ESP Fit Center  422 is at   3.866743  1.726257  1.608196
      ESP Fit Center  423 is at   4.441563  2.224342  1.608196
      ESP Fit Center  424 is at   4.522910  4.305651  1.049503
      ESP Fit Center  425 is at   4.227823  4.805412  0.364164
      ESP Fit Center  426 is at   4.227823  4.805412 -0.365158
      ESP Fit Center  427 is at   4.522910  4.305651 -1.050497
      ESP Fit Center  428 is at   3.866743  1.726257 -1.609190
      ESP Fit Center  429 is at   4.441563  2.224342 -1.609190
      ESP Fit Center  430 is at   3.665115  2.332112 -1.973851
      ESP Fit Center  431 is at  -4.092713 -0.715790  1.973679
      ESP Fit Center  432 is at  -4.451834 -1.337806  1.973679
      ESP Fit Center  433 is at  -4.250205 -1.943660  1.609017
      ESP Fit Center  434 is at  -6.282276 -1.784767  1.050324
      ESP Fit Center  435 is at  -6.843838 -1.095801  0.364985
      ESP Fit Center  436 is at  -6.569286 -1.804502  0.364985
      ESP Fit Center  437 is at  -6.843838 -1.095801 -0.364337
      ESP Fit Center  438 is at  -6.569286 -1.804502 -0.364337
      ESP Fit Center  439 is at  -6.282276 -1.784767 -1.049676
      ESP Fit Center  440 is at  -4.250205 -1.943660 -1.608369
      ESP Fit Center  441 is at  -4.092713 -0.715790 -1.973030
      ESP Fit Center  442 is at  -4.451834 -1.337806 -1.973030
      ESP Fit Center  443 is at  -3.649741  2.759482  2.562903
      ESP Fit Center  444 is at  -2.920816  2.759482  2.396531
      ESP Fit Center  445 is at  -3.285278  3.390749  2.396531
      ESP Fit Center  446 is at  -4.014203  3.390749  2.396531
      ESP Fit Center  447 is at  -4.378665  2.759482  2.396531
      ESP Fit Center  448 is at  -4.014203  2.128214  2.396531
      ESP Fit Center  449 is at  -3.285278  2.128214  2.396531
      ESP Fit Center  450 is at  -2.336264  2.759482  1.930366
      ESP Fit Center  451 is at  -2.587115  3.531524  1.930366
      ESP Fit Center  452 is at  -3.243854  4.008672  1.930366
      ESP Fit Center  453 is at  -4.055627  4.008672  1.930366
      ESP Fit Center  454 is at  -4.712366  3.531524  1.930366
      ESP Fit Center  455 is at  -4.963217  2.759482  1.930366
      ESP Fit Center  456 is at  -4.712366  1.987439  1.930366
      ESP Fit Center  457 is at  -2.587115  1.987439  1.930366
      ESP Fit Center  458 is at  -2.719319  4.107429  1.256738
      ESP Fit Center  459 is at  -3.452316  4.385418  1.256738
      ESP Fit Center  460 is at  -4.230540  4.290925  1.256738
      ESP Fit Center  461 is at  -4.875710  3.845596  1.256738
      ESP Fit Center  462 is at  -5.240026  3.151452  1.256738
      ESP Fit Center  463 is at  -3.452316  4.385418  0.509068
[...]
 3553 Fit      -0.001010
 3554 Fit       0.000916
 3555 Fit       0.003460
 3556 Fit       0.006518
 3557 Fit      -0.030438
 3558 Fit      -0.026729
 3559 Fit      -0.023076
 3560 Fit      -0.019882
 3561 Fit      -0.017176
 3562 Fit      -0.014889
 3563 Fit      -0.012945
 3564 Fit      -0.011287
 3565 Fit      -0.009875
 3566 Fit      -0.008683
 3567 Fit      -0.007694
 3568 Fit      -0.006892
 3569 Fit      -0.006257
 3570 Fit      -0.005764
 3571 Fit      -0.005382
 3572 Fit      -0.005069
 3573 Fit      -0.004775
 3574 Fit      -0.004440
 3575 Fit      -0.003751
 3576 Fit      -0.003070
 3577 Fit      -0.002035
 3578 Fit      -0.000474
 3579 Fit       0.001841
 3580 Fit       0.005155
 3581 Fit      -0.033452
 3582 Fit      -0.027497
 3583 Fit      -0.022918
 3584 Fit      -0.019360
 3585 Fit      -0.016525
 3586 Fit      -0.014206
 3587 Fit      -0.012275
 3588 Fit      -0.010649
 3589 Fit      -0.009280
 3590 Fit      -0.008139
 3591 Fit      -0.007203
 3592 Fit      -0.006453
 3593 Fit      -0.005867
 3594 Fit      -0.005420
 3595 Fit      -0.005078
 3596 Fit      -0.004797
 3597 Fit      -0.004527
 3598 Fit      -0.004204
 3599 Fit      -0.003579
 3600 Fit      -0.002883
 3601 Fit      -0.001803
 3602 Fit      -0.000128
 3603 Fit       0.002471
 3604 Fit       0.006510
 3605 Fit      -0.032437
 3606 Fit      -0.026163
 3607 Fit      -0.021648
 3608 Fit      -0.018234
 3609 Fit      -0.015541
 3610 Fit      -0.013348
 3611 Fit      -0.011524
 3612 Fit      -0.009994
 3613 Fit      -0.008712
 3614 Fit      -0.007649
 3615 Fit      -0.006783
 3616 Fit      -0.006096
 3617 Fit      -0.005565
 3618 Fit      -0.005162
 3619 Fit      -0.004854
 3620 Fit      -0.004600
 3621 Fit      -0.004347
 3622 Fit      -0.004033
 3623 Fit      -0.003490
 3624 Fit      -0.002766
 3625 Fit      -0.001619
 3626 Fit       0.000203
 3627 Fit       0.003138
 3628 Fit      -0.034561
 3629 Fit      -0.027285
 3630 Fit      -0.022278
 3631 Fit      -0.018597
 3632 Fit      -0.015747
 3633 Fit      -0.013454
 3634 Fit      -0.011563
 3635 Fit      -0.009986
 3636 Fit      -0.008670
 3637 Fit      -0.007583
 3638 Fit      -0.006702
 3639 Fit      -0.006005
 3640 Fit      -0.005470
 3641 Fit      -0.005068
 3642 Fit      -0.004764
 3643 Fit      -0.004514
 3644 Fit      -0.004266
 3645 Fit      -0.003952
 3646 Fit      -0.003490
 3647 Fit      -0.002766
 3648 Fit      -0.001619
 3649 Fit       0.000204
 3650 Fit       0.003139
 3651 Fit      -0.034569
 3652 Fit      -0.027289
 3653 Fit      -0.022280
 3654 Fit      -0.018599
 3655 Fit      -0.015749
 3656 Fit      -0.013455
 3657 Fit      -0.011564
 3658 Fit      -0.009987
 3659 Fit      -0.008671
 3660 Fit      -0.007584
 3661 Fit      -0.006702
 3662 Fit      -0.006005
 3663 Fit      -0.005470
 3664 Fit      -0.005068
 3665 Fit      -0.004764
 3666 Fit      -0.004515
 3667 Fit      -0.004266
 3668 Fit      -0.003952
 3669 Fit      -0.003579
 3670 Fit      -0.002883
 3671 Fit      -0.001802
 3672 Fit      -0.000126
 3673 Fit       0.002475
 3674 Fit       0.006516
 3675 Fit      -0.032458
 3676 Fit      -0.026175
 3677 Fit      -0.021656
 3678 Fit      -0.018239
 3679 Fit      -0.015545
 3680 Fit      -0.013350
 3681 Fit      -0.011526
 3682 Fit      -0.009995
 3683 Fit      -0.008713
 3684 Fit      -0.007650
 3685 Fit      -0.006784
 3686 Fit      -0.006097
 3687 Fit      -0.005565
 3688 Fit      -0.005162
 3689 Fit      -0.004855
 3690 Fit      -0.004600
 3691 Fit      -0.004347
 3692 Fit      -0.004033
 3693 Fit      -0.003750
 3694 Fit      -0.003069
 3695 Fit      -0.002034
 3696 Fit      -0.000471
 3697 Fit       0.001845
 3698 Fit       0.005163
 3699 Fit      -0.033492
 3700 Fit      -0.027521
 3701 Fit      -0.022933
 3702 Fit      -0.019370
 3703 Fit      -0.016531
 3704 Fit      -0.014211
 3705 Fit      -0.012278
 3706 Fit      -0.010652
 3707 Fit      -0.009283
 3708 Fit      -0.008141
 3709 Fit      -0.007204
 3710 Fit      -0.006454
 3711 Fit      -0.005868
 3712 Fit      -0.005421
 3713 Fit      -0.005078
 3714 Fit      -0.004798
 3715 Fit      -0.004527
 3716 Fit      -0.004204
 3717 Fit      -0.003990
 3718 Fit      -0.003340
 3719 Fit      -0.002386
 3720 Fit      -0.001007
 3721 Fit       0.000921
 3722 Fit       0.003467
 3723 Fit       0.006529
 3724 Fit      -0.030492
 3725 Fit      -0.026764
 3726 Fit      -0.023098
 3727 Fit      -0.019896
 3728 Fit      -0.017186
 3729 Fit      -0.014896
 3730 Fit      -0.012951
 3731 Fit      -0.011291
 3732 Fit      -0.009878
 3733 Fit      -0.008686
 3734 Fit      -0.007696
 3735 Fit      -0.006894
 3736 Fit      -0.006258
 3737 Fit      -0.005765
 3738 Fit      -0.005383
 3739 Fit      -0.005070
 3740 Fit      -0.004776
 3741 Fit      -0.004440
 3742 Fit      -0.004282
 3743 Fit      -0.003653
 3744 Fit      -0.002765
 3745 Fit      -0.001537
 3746 Fit       0.000091
 3747 Fit       0.002114
 3748 Fit       0.004450
 3749 Fit       0.007027
 3750 Fit       0.000002
 3751 Fit      -0.020186
 3752 Fit      -0.023602
 3753 Fit      -0.023947
 3754 Fit      -0.022464
 3755 Fit      -0.020275
 3756 Fit      -0.017987
 3757 Fit      -0.015845
 3758 Fit      -0.013921
 3759 Fit      -0.012225
 3760 Fit      -0.010746
 3761 Fit      -0.009474
 3762 Fit      -0.008399
 3763 Fit      -0.007511
 3764 Fit      -0.006795
 3765 Fit      -0.006231
 3766 Fit      -0.005787
 3767 Fit      -0.005425
 3768 Fit      -0.005095
 3769 Fit      -0.004737
 3770 Fit      -0.004608
 3771 Fit      -0.003983
 3772 Fit      -0.003135
 3773 Fit      -0.002011
 3774 Fit      -0.000594
 3775 Fit       0.001081
 3776 Fit       0.002922
 3777 Fit       0.004760
 3778 Fit       0.006194
 3779 Fit       0.006602
 3780 Fit       0.005767
 3781 Fit       0.004225
 3782 Fit       0.002788
 3783 Fit       0.001917
 3784 Fit       0.001466
 3785 Fit       0.000985
 3786 Fit       0.000049
 3787 Fit      -0.001607
 3788 Fit      -0.004167
 3789 Fit      -0.007852
 3790 Fit      -0.012320
 3791 Fit      -0.016262
 3792 Fit      -0.018496
 3793 Fit      -0.018901
 3794 Fit      -0.018069
 3795 Fit      -0.016632
 3796 Fit      -0.014998
 3797 Fit      -0.013379
 3798 Fit      -0.011870
 3799 Fit      -0.010515
 3800 Fit      -0.009331
 3801 Fit      -0.008326
 3802 Fit      -0.007495
 3803 Fit      -0.006825
 3804 Fit      -0.006293
 3805 Fit      -0.005859
 3806 Fit      -0.005476
 3807 Fit      -0.005081
 3808 Fit      -0.004952
 3809 Fit      -0.004328
 3810 Fit      -0.003522
 3811 Fit      -0.002503
 3812 Fit      -0.001284
 3813 Fit       0.000063
 3814 Fit       0.001389
 3815 Fit       0.002433
 3816 Fit       0.002870
 3817 Fit       0.002568
 3818 Fit       0.001774
 3819 Fit       0.000903
 3820 Fit       0.000168
 3821 Fit      -0.000541
 3822 Fit      -0.001506
 3823 Fit      -0.002996
 3824 Fit      -0.005181
 3825 Fit      -0.008045
 3826 Fit      -0.011178
 3827 Fit      -0.013798
 3828 Fit      -0.015283
 3829 Fit      -0.015573
 3830 Fit      -0.014997
 3831 Fit      -0.013944
 3832 Fit      -0.012697
 3833 Fit      -0.011428
 3834 Fit      -0.010232
 3835 Fit      -0.009160
 3836 Fit      -0.008239
 3837 Fit      -0.007472
 3838 Fit      -0.006848
 3839 Fit      -0.006336
 3840 Fit      -0.005889
 3841 Fit      -0.005450
 3842 Fit      -0.005302
 3843 Fit      -0.004655
 3844 Fit      -0.003858
 3845 Fit      -0.002906
 3846 Fit      -0.001854
 3847 Fit      -0.000836
 3848 Fit      -0.000062
 3849 Fit       0.000253
 3850 Fit       0.000052
 3851 Fit      -0.000501
 3852 Fit      -0.001208
 3853 Fit      -0.002045
 3854 Fit      -0.003164
 3855 Fit      -0.004744
 3856 Fit      -0.006830
 3857 Fit      -0.009202
 3858 Fit      -0.011352
 3859 Fit      -0.012761
 3860 Fit      -0.013241
 3861 Fit      -0.012949
 3862 Fit      -0.012176
 3863 Fit      -0.011176
 3864 Fit      -0.010126
 3865 Fit      -0.009132
 3866 Fit      -0.008252
 3867 Fit      -0.007507
 3868 Fit      -0.006885
 3869 Fit      -0.006350
 3870 Fit      -0.005845
 3871 Fit      -0.005648
 3872 Fit      -0.004976
 3873 Fit      -0.004198
 3874 Fit      -0.003348
 3875 Fit      -0.002536
 3876 Fit      -0.001941
 3877 Fit      -0.001731
 3878 Fit      -0.001946
 3879 Fit      -0.002501
 3880 Fit      -0.003332
 3881 Fit      -0.004488
 3882 Fit      -0.006030
 3883 Fit      -0.007860
 3884 Fit      -0.009636
 3885 Fit      -0.010917
 3886 Fit      -0.011457
 3887 Fit      -0.011311
 3888 Fit      -0.010705
 3889 Fit      -0.009876
 3890 Fit      -0.008998
 3891 Fit      -0.008176
 3892 Fit      -0.007453
 3893 Fit      -0.006823
 3894 Fit      -0.006243
 3895 Fit      -0.005982
 3896 Fit      -0.005257
 3897 Fit      -0.004494
 3898 Fit      -0.003807
 3899 Fit      -0.003391
 3900 Fit      -0.003410
 3901 Fit      -0.003893
 3902 Fit      -0.004802
 3903 Fit      -0.006107
 3904 Fit      -0.007658
 3905 Fit      -0.009073
 3906 Fit      -0.009922
 3907 Fit      -0.010050
 3908 Fit      -0.009619
 3909 Fit      -0.008898
 3910 Fit      -0.008107
 3911 Fit      -0.007357
 3912 Fit      -0.006665
 3913 Fit      -0.006303
 3914 Fit      -0.005535
 3915 Fit      -0.004911
 3916 Fit      -0.004698
 3917 Fit      -0.005099
 3918 Fit      -0.006093
 3919 Fit      -0.007423
 3920 Fit      -0.008533
 3921 Fit      -0.008919
 3922 Fit      -0.008588
 3923 Fit      -0.007885
 3924 Fit      -0.007091
 3925 Fit      -0.006607
 3926 Fit      -0.005922
 3927 Fit      -0.006101
 3928 Fit      -0.007168
 3929 Fit      -0.007880
 3930 Fit      -0.007486
 3931 Fit      -0.006895
 3932 Fit       0.008771
 3933 Fit       0.009503
 3934 Fit       0.012494
 3935 Fit       0.015245
 3936 Fit       0.017071
 3937 Fit       0.018440
 3938 Fit       0.017473
 3939 Fit       0.018484
 3940 Fit       0.019720
 3941 Fit       0.021138
 3942 Fit       0.017642
 3943 Fit       0.018501
 3944 Fit       0.019604
 3945 Fit       0.020893
 3946 Fit       0.022432
 3947 Fit       0.024505
 3948 Fit       0.017474
 3949 Fit       0.018485
 3950 Fit       0.019720
 3951 Fit       0.021138
 3952 Fit       0.017073
 3953 Fit       0.018441
 3954 Fit       0.015247
 3955 Fit       0.009509
 3956 Fit       0.012498
 3957 Fit       0.008777
 3958 Fit      -0.000449
 3959 Fit      -0.003257
 3960 Fit      -0.007610
 3961 Fit      -0.008825
 3962 Fit      -0.004604
 3963 Fit      -0.009167
 3964 Fit      -0.014219
 3965 Fit      -0.003328
 3966 Fit       0.000608
 3967 Fit      -0.002145
 3968 Fit       0.005756
 3969 Fit       0.003181
 3970 Fit       0.000737
 3971 Fit      -0.001665
 3972 Fit       0.009804
 3973 Fit       0.006864
 3974 Fit       0.004314
 3975 Fit       0.001952
 3976 Fit      -0.000316
 3977 Fit      -0.002604
 3978 Fit       0.005756
 3979 Fit       0.003179
 3980 Fit       0.000735
 3981 Fit      -0.001668
 3982 Fit       0.000604
 3983 Fit      -0.002152
 3984 Fit      -0.003340
 3985 Fit      -0.004623
 3986 Fit      -0.009197
 3987 Fit      -0.014269
 3988 Fit      -0.007643
 3989 Fit      -0.008865
 3990 Fit      -0.000468
 3991 Fit      -0.003282
 3992 Fit       0.012708
 3993 Fit       0.012473
 3994 Fit       0.014283
 3995 Fit       0.014138
 3996 Fit       0.012931
 3997 Fit       0.011517
 3998 Fit       0.010936
 3999 Fit       0.011980
 4000 Fit       0.015007
 4001 Fit       0.016307
 4002 Fit       0.015916
 4003 Fit       0.014874
 4004 Fit       0.013789
 4005 Fit       0.012807
 4006 Fit       0.009540
 4007 Fit       0.018331
 4008 Fit       0.018636
 4009 Fit       0.017703
 4010 Fit       0.016481
 4011 Fit       0.015352
 4012 Fit       0.014483
 4013 Fit       0.021033
 4014 Fit       0.019218
 4015 Fit       0.017625
 4016 Fit       0.016358
 4017 Fit       0.015460
 4018 Fit       0.021352
 4019 Fit       0.018993
 4020 Fit       0.017349
 4021 Fit       0.023039
 4022 Fit       0.023040
 4023 Fit       0.021357
 4024 Fit       0.018995
 4025 Fit       0.017350
 4026 Fit       0.021042
 4027 Fit       0.019223
 4028 Fit       0.017628
 4029 Fit       0.016359
 4030 Fit       0.015460
 4031 Fit       0.018343
 4032 Fit       0.018644
 4033 Fit       0.017707
 4034 Fit       0.016484
 4035 Fit       0.015353
 4036 Fit       0.014483
 4037 Fit       0.011984
 4038 Fit       0.015013
 4039 Fit       0.016313
 4040 Fit       0.015919
 4041 Fit       0.014876
 4042 Fit       0.013788
 4043 Fit       0.012806
 4044 Fit       0.009542
 4045 Fit       0.012476
 4046 Fit       0.014286
 4047 Fit       0.014140
 4048 Fit       0.012931
 4049 Fit       0.011516
 4050 Fit       0.010936
 4051 Fit       0.012708
 4052 Fit       0.013980
 4053 Fit       0.014095
 4054 Fit       0.013930
 4055 Fit       0.014510
 4056 Fit       0.014057
 4057 Fit       0.013815
 4058 Fit       0.014815
 4059 Fit       0.014258
 4060 Fit       0.013894
 4061 Fit       0.013476
 4062 Fit       0.014815
 4063 Fit       0.014258
 4064 Fit       0.013894
 4065 Fit       0.013476
 4066 Fit       0.014509
 4067 Fit       0.014057
 4068 Fit       0.013815
 4069 Fit       0.014093
 4070 Fit       0.013928
 4071 Fit       0.013978
 4072 Fit       0.019553
 4073 Fit       0.021409
 4074 Fit       0.022340
 4075 Fit       0.023731
 4076 Fit       0.023003
 4077 Fit       0.023223
 4078 Fit       0.024242
 4079 Fit       0.025785
 4080 Fit       0.024004
 4081 Fit       0.023669
 4082 Fit       0.024144
 4083 Fit       0.025786
 4084 Fit       0.024005
 4085 Fit       0.023670
 4086 Fit       0.024145
 4087 Fit       0.023732
 4088 Fit       0.023003
 4089 Fit       0.023224
 4090 Fit       0.024244
 4091 Fit       0.021410
 4092 Fit       0.022341
 4093 Fit       0.019553
 4094 Fit       0.018555
 4095 Fit       0.021502
 4096 Fit       0.020771
 4097 Fit       0.024424
 4098 Fit       0.023027
 4099 Fit       0.022774
 4100 Fit       0.023881
 4101 Fit       0.025469
 4102 Fit       0.023951
 4103 Fit       0.023612
 4104 Fit       0.024753
 4105 Fit       0.025469
 4106 Fit       0.023951
 4107 Fit       0.023612
 4108 Fit       0.024753
 4109 Fit       0.024425
 4110 Fit       0.023028
 4111 Fit       0.022774
 4112 Fit       0.023882
 4113 Fit       0.021504
 4114 Fit       0.020772
 4115 Fit       0.018558
 4116 Fit       0.010629
 4117 Fit       0.010665
 4118 Fit       0.012956
 4119 Fit       0.013218
 4120 Fit       0.010798
 4121 Fit       0.011117
 4122 Fit       0.013532
 4123 Fit       0.015079
 4124 Fit       0.015844
 4125 Fit       0.015397
 4126 Fit       0.012876
 4127 Fit       0.014348
 4128 Fit       0.015778
 4129 Fit       0.016888
 4130 Fit       0.017778
 4131 Fit       0.018338
 4132 Fit       0.018003
 4133 Fit       0.017864
 4134 Fit       0.018712
 4135 Fit       0.019640
 4136 Fit       0.020673
 4137 Fit       0.021606
 4138 Fit       0.020203
 4139 Fit       0.021150
 4140 Fit       0.022588
 4141 Fit       0.024754
 4142 Fit       0.024852
 4143 Fit       0.009373
 4144 Fit       0.009857
 4145 Fit       0.012534
 4146 Fit       0.015067
 4147 Fit       0.010311
 4148 Fit       0.012610
 4149 Fit       0.014700
 4150 Fit       0.007430
 4151 Fit       0.010574
 4152 Fit       0.012818
 4153 Fit       0.014836
 4154 Fit       0.017023
 4155 Fit       0.007743
 4156 Fit       0.010574
 4157 Fit       0.012818
 4158 Fit       0.014836
 4159 Fit       0.017024
 4160 Fit       0.007743
 4161 Fit       0.010312
 4162 Fit       0.012611
 4163 Fit       0.014701
 4164 Fit       0.007432
 4165 Fit       0.009860
 4166 Fit       0.012537
 4167 Fit       0.015068
 4168 Fit       0.009377
 4169 Fit       0.024855
 4170 Fit       0.020206
 4171 Fit       0.021153
 4172 Fit       0.022590
 4173 Fit       0.017866
 4174 Fit       0.018714
 4175 Fit       0.019641
 4176 Fit       0.020674
 4177 Fit       0.021606
 4178 Fit       0.014351
 4179 Fit       0.015780
 4180 Fit       0.016890
 4181 Fit       0.017779
 4182 Fit       0.018339
 4183 Fit       0.018003
 4184 Fit       0.011120
 4185 Fit       0.013535
 4186 Fit       0.015081
 4187 Fit       0.015845
 4188 Fit       0.015398
 4189 Fit       0.012877
 4190 Fit       0.010668
 4191 Fit       0.012958
 4192 Fit       0.013220
 4193 Fit       0.010800
 4194 Fit       0.010632
 4195 Fit       0.003672
 4196 Fit       0.002533
 4197 Fit       0.005955
 4198 Fit       0.006674
 4199 Fit       0.004588
 4200 Fit       0.001543
 4201 Fit       0.000185
 4202 Fit       0.005533
 4203 Fit       0.009058
 4204 Fit       0.009902
 4205 Fit       0.008765
 4206 Fit       0.006571
 4207 Fit       0.003787
 4208 Fit       0.000619
 4209 Fit      -0.002493
 4210 Fit       0.012239
 4211 Fit       0.010338
 4212 Fit       0.008077
 4213 Fit       0.005628
 4214 Fit       0.002959
 4215 Fit      -0.000017
 4216 Fit       0.013214
 4217 Fit       0.010652
 4218 Fit       0.008196
 4219 Fit       0.005802
 4220 Fit       0.003344
 4221 Fit       0.000696
 4222 Fit       0.013043
 4223 Fit       0.009848
 4224 Fit       0.007132
 4225 Fit       0.004596
 4226 Fit       0.010376
 4227 Fit      -0.014903
 4228 Fit      -0.007689
 4229 Fit      -0.013313
 4230 Fit      -0.005603
 4231 Fit      -0.009767
 4232 Fit      -0.015982
 4233 Fit      -0.003496
 4234 Fit      -0.006849
 4235 Fit      -0.011682
 4236 Fit      -0.019226
 4237 Fit      -0.003498
 4238 Fit      -0.006852
 4239 Fit      -0.011686
 4240 Fit      -0.019234
 4241 Fit      -0.005611
 4242 Fit      -0.009779
 4243 Fit      -0.016000
 4244 Fit      -0.007705
 4245 Fit      -0.013338
 4246 Fit      -0.014943
 4247 Fit       0.010374
 4248 Fit       0.013040
 4249 Fit       0.009846
 4250 Fit       0.007130
 4251 Fit       0.004593
 4252 Fit       0.013210
 4253 Fit       0.010649
 4254 Fit       0.008193
 4255 Fit       0.005799
 4256 Fit       0.003339
 4257 Fit       0.000689
 4258 Fit       0.012234
 4259 Fit       0.010334
 4260 Fit       0.008072
 4261 Fit       0.005622
 4262 Fit       0.002952
 4263 Fit      -0.000027
 4264 Fit       0.005522
 4265 Fit       0.009050
 4266 Fit       0.009896
 4267 Fit       0.008759
 4268 Fit       0.006565
 4269 Fit       0.003778
 4270 Fit       0.000607
 4271 Fit      -0.002511
 4272 Fit       0.002519
 4273 Fit       0.005945
 4274 Fit       0.006665
 4275 Fit       0.004578
 4276 Fit       0.001530
 4277 Fit       0.000169
 4278 Fit       0.003661
 -----------------------------------------------------------------
 Leave Link  602 at Fri Jan 17 11:58:03 2014, MaxMem=   235929600 cpu:         1.7

 Test job not archived.
 1\1\GINC-G28\SP\RHF\Gen\C12H11I1O3\KOLAR\17-Jan-2014\0\\# hf/gen pseud
 o=read pop=(mk, readradii) iop(6/33=2,6/41=5,6/42=2)\\na resp\\0,1\C,0
 ,-3.817471,2.129331,0.000591\C,0,-2.88256,0.945571,0.000149\C,0,-3.347
 784,-0.337737,0.000064\C,0,-2.409794,-1.467509,-0.000484\O,0,-2.70983,
 -2.639947,-0.001379\O,0,-1.049363,-1.169798,0.000209\C,0,-0.569374,0.0
 97594,0.000047\C,0,-1.449965,1.201091,-0.000049\C,0,-0.87978,2.484113,
 -0.000168\C,0,0.494497,2.670924,-0.000245\C,0,1.361367,1.562978,-0.000
 128\C,0,0.817429,0.268124,0.00004\I,0,2.102598,-1.421413,0.000218\O,0,
 2.710114,1.663808,-0.000119\C,0,3.305994,2.954127,-0.000497\C,0,-4.810
 955,-0.715789,0.000324\H,0,-3.64974,2.759482,0.882903\H,0,-3.649776,2.
 760089,-0.881296\H,0,-4.864015,1.823836,0.000501\H,0,-1.523457,3.35675
 3,-0.000255\H,0,0.895207,3.677194,-0.00034\H,0,3.030055,3.524209,0.895
 467\H,0,4.382556,2.778223,-0.000611\H,0,3.029786,3.523802,-0.896635\H,
 0,-5.329985,-0.327902,0.885035\H,0,-4.904959,-1.802423,0.000241\H,0,-5
 .330349,-0.327806,-0.884129\\Version=AM64L-G09RevD.01\State=1-A\HF=-69
 6.5541605\RMSD=8.899e-09\Dipole=-0.1674477,3.199056,0.0005469\Quadrupo
 le=6.0132179,-0.2209151,-5.7923028,-4.0533224,-0.0069688,-0.0063258\PG
 =C01 [X(C12H11I1O3)]\\@


 CURIOUSER AND CURIOUSER

                  -- ALICE, IN WONDERLAND
 Job cpu time:       0 days  0 hours  3 minutes 31.5 seconds.
 File lengths (MBytes):  RWF=     33 Int=      0 D2E=      0 Chk=      3 Scr=      1
 Normal termination of Gaussian 09 at Fri Jan 17 11:58:03 2014.
211.05user 0.45system 3:32.32elapsed 99%CPU (0avgtext+0avgdata 603408maxresident)k
8inputs+153368outputs (0major+171784minor)pagefaults 0swaps
