Linux g59 2.6.38.6-client #1 SMP Tue Jun 12 11:27:21 CEST 2012 x86_64 GNU/Linux
Thu Jan 16 22:36:46 CET 2014

 Entering Gaussian System, Link 0=/usr/local/programs/common/gaussian/gaussian09_d01/arch/amd64-pgi_10.4.0-acml/g09/g09
 Initial command:
 /usr/local/programs/common/gaussian/gaussian09_d01/arch/amd64-pgi_10.4.0-acml/g09/l1.exe "/scratch/kolar/g09_25952/Gau-1821.inp" -scrdir="/scratch/kolar/g09_25952/"
 Entering Link 1 = /usr/local/programs/common/gaussian/gaussian09_d01/arch/amd64-pgi_10.4.0-acml/g09/l1.exe PID=      1827.
  
 Copyright (c) 1988,1990,1992,1993,1995,1998,2003,2009,2013,
            Gaussian, Inc.  All Rights Reserved.
  
 This is part of the Gaussian(R) 09 program.  It is based on
 the Gaussian(R) 03 system (copyright 2003, Gaussian, Inc.),
 the Gaussian(R) 98 system (copyright 1998, Gaussian, Inc.),
 the Gaussian(R) 94 system (copyright 1995, Gaussian, Inc.),
 the Gaussian 92(TM) system (copyright 1992, Gaussian, Inc.),
 the Gaussian 90(TM) system (copyright 1990, Gaussian, Inc.),
 the Gaussian 88(TM) system (copyright 1988, Gaussian, Inc.),
 the Gaussian 86(TM) system (copyright 1986, Carnegie Mellon
 University), and the Gaussian 82(TM) system (copyright 1983,
 Carnegie Mellon University). Gaussian is a federally registered
 trademark of Gaussian, Inc.
  
 This software contains proprietary and confidential information,
 including trade secrets, belonging to Gaussian, Inc.
  
 This software is provided under written license and may be
 used, copied, transmitted, or stored only in accord with that
 written license.
  
 The following legend is applicable only to US Government
 contracts under FAR:
  
                    RESTRICTED RIGHTS LEGEND
  
 Use, reproduction and disclosure by the US Government is
 subject to restrictions as set forth in subparagraphs (a)
 and (c) of the Commercial Computer Software - Restricted
 Rights clause in FAR 52.227-19.
  
 Gaussian, Inc.
 340 Quinnipiac St., Bldg. 40, Wallingford CT 06492
  
  
 ---------------------------------------------------------------
 Warning -- This program may not be used in any manner that
 competes with the business of Gaussian, Inc. or will provide
 assistance to any competitor of Gaussian, Inc.  The licensee
 of this program is prohibited from giving any competitor of
 Gaussian, Inc. access to this program.  By using this program,
 the user acknowledges that Gaussian, Inc. is engaged in the
 business of creating and licensing software in the field of
 computational chemistry and represents and warrants to the
 licensee that it is not a competitor of Gaussian, Inc. and that
 it will not use this program in any manner prohibited above.
 ---------------------------------------------------------------
  

 Cite this work as:
 Gaussian 09, Revision D.01,
 M. J. Frisch, G. W. Trucks, H. B. Schlegel, G. E. Scuseria, 
 M. A. Robb, J. R. Cheeseman, G. Scalmani, V. Barone, B. Mennucci, 
 G. A. Petersson, H. Nakatsuji, M. Caricato, X. Li, H. P. Hratchian, 
 A. F. Izmaylov, J. Bloino, G. Zheng, J. L. Sonnenberg, M. Hada, 
 M. Ehara, K. Toyota, R. Fukuda, J. Hasegawa, M. Ishida, T. Nakajima, 
 Y. Honda, O. Kitao, H. Nakai, T. Vreven, J. A. Montgomery, Jr., 
 J. E. Peralta, F. Ogliaro, M. Bearpark, J. J. Heyd, E. Brothers, 
 K. N. Kudin, V. N. Staroverov, T. Keith, R. Kobayashi, J. Normand, 
 K. Raghavachari, A. Rendell, J. C. Burant, S. S. Iyengar, J. Tomasi, 
 M. Cossi, N. Rega, J. M. Millam, M. Klene, J. E. Knox, J. B. Cross, 
 V. Bakken, C. Adamo, J. Jaramillo, R. Gomperts, R. E. Stratmann, 
 O. Yazyev, A. J. Austin, R. Cammi, C. Pomelli, J. W. Ochterski, 
 R. L. Martin, K. Morokuma, V. G. Zakrzewski, G. A. Voth, 
 P. Salvador, J. J. Dannenberg, S. Dapprich, A. D. Daniels, 
 O. Farkas, J. B. Foresman, J. V. Ortiz, J. Cioslowski, 
 and D. J. Fox, Gaussian, Inc., Wallingford CT, 2013.
 
 ******************************************
 Gaussian 09:  AM64L-G09RevD.01 24-Apr-2013
                16-Jan-2014 
 ******************************************
 %mem=1800mb
 -----------------------------------------
 # hf/gen pop=mk iop(6/33=2,6/41=5,6/42=2)
 -----------------------------------------
 1/38=1/1;
 2/12=2,17=6,18=5,40=1/2;
 3/5=7,11=9,16=1,25=1,30=1/1,2,3;
 4//1;
 5/5=2,38=5/2;
 6/7=2,8=2,9=2,10=2,15=8,20=1,28=1,33=2,41=5,42=2/1,2;
 99/5=1,9=1/99;
 -------
 na resp
 -------
 Symbolic Z-matrix:
 Charge =  0 Multiplicity = 1
 6                     0.58809  -0.64648   1.25574 
 6                     1.95501  -0.37963   1.17629 
 6                     2.54246  -0.2163   -0.07632 
 6                     1.78972  -0.3216   -1.24555 
 6                     0.4262   -0.59348  -1.15216 
 6                    -0.18789  -0.7502    0.09681 
 6                    -1.64232  -1.08507   0.17281 
 1                    -1.94155  -2.0366   -0.27058 
 6                    -2.744    -0.07153   0.20965 
 8                    -2.34521  -0.8008    1.37962 
 6                    -2.41324   1.41125   0.21801 
 8                    -2.66177   2.13322  -0.74844 
 7                    -1.84871   1.8554    1.36075 
 6                    -4.07404  -0.55495  -0.39311 
 8                    -4.4512   -1.69805  -0.18528 
 7                    -4.72724   0.35145  -1.15751 
 35                    4.41329   0.15463  -0.19482 
 1                     0.12116  -0.7899    2.22566 
 1                     2.55721  -0.3041    2.07517 
 1                     2.26244  -0.19125  -2.21279 
 1                    -0.16416  -0.67573  -2.06119 
 1                    -1.65036   1.21367   2.11385 
 1                    -1.55696   2.82059   1.41865 
 1                    -4.28      1.23421  -1.38683 
 1                    -5.55575   0.04213  -1.646 
 
                          Input orientation:                          
 ---------------------------------------------------------------------
 Center     Atomic      Atomic             Coordinates (Angstroms)
 Number     Number       Type             X           Y           Z
 ---------------------------------------------------------------------
      1          6           0        0.588091   -0.646483    1.255735
      2          6           0        1.955013   -0.379628    1.176292
      3          6           0        2.542464   -0.216304   -0.076323
      4          6           0        1.789719   -0.321600   -1.245547
      5          6           0        0.426197   -0.593475   -1.152164
      6          6           0       -0.187886   -0.750204    0.096811
      7          6           0       -1.642317   -1.085069    0.172805
      8          1           0       -1.941554   -2.036599   -0.270578
      9          6           0       -2.744001   -0.071526    0.209648
     10          8           0       -2.345213   -0.800803    1.379617
     11          6           0       -2.413243    1.411247    0.218013
     12          8           0       -2.661769    2.133225   -0.748435
     13          7           0       -1.848714    1.855401    1.360748
     14          6           0       -4.074042   -0.554949   -0.393105
     15          8           0       -4.451200   -1.698045   -0.185279
     16          7           0       -4.727241    0.351447   -1.157513
     17         35           0        4.413290    0.154628   -0.194823
     18          1           0        0.121161   -0.789899    2.225655
     19          1           0        2.557214   -0.304104    2.075167
     20          1           0        2.262437   -0.191246   -2.212791
     21          1           0       -0.164160   -0.675727   -2.061191
     22          1           0       -1.650360    1.213672    2.113851
     23          1           0       -1.556958    2.820585    1.418648
     24          1           0       -4.280004    1.234208   -1.386828
     25          1           0       -5.555749    0.042129   -1.646003
 ---------------------------------------------------------------------
                    Distance matrix (angstroms):
                    1          2          3          4          5
     1  C    0.000000
     2  C    1.394991   0.000000
     3  C    2.403956   1.393132   0.000000
     4  C    2.793899   2.428167   1.394560   0.000000
     5  C    2.413917   2.793692   2.403805   1.393495   0.000000
     6  C    1.398572   2.427884   2.787443   2.428281   1.400571
     7  C    2.517899   3.800713   4.281263   3.791237   2.505186
     8  H    3.265143   4.474620   4.843307   4.220685   2.909647
     9  C    3.539451   4.807292   5.296173   4.768097   3.489573
    10  O    2.939972   4.325584   5.133302   4.921258   3.759470
    11  C    3.784062   4.817384   5.224422   4.775946   3.736136
    12  O    4.722824   5.597650   5.749440   5.107742   4.139254
    13  N    3.494062   4.415622   5.063554   4.976977   4.181739
    14  C    4.945962   6.232435   6.632736   5.929992   4.563968
    15  O    5.345723   6.680693   7.149739   6.478259   5.093520
    16  N    5.922194   7.115732   7.371562   6.552214   5.239354
    17  Br   4.168698   2.865050   1.910922   2.865997   4.168102
    18  H    1.085973   2.152324   3.389812   3.879772   3.397247
    19  H    2.160124   1.084586   2.153331   3.408298   3.878226
    20  H    3.878318   3.408208   2.154887   1.084442   2.158355
    21  H    3.401284   3.880704   3.387711   2.146701   1.087022
    22  H    3.034337   4.051708   4.941808   5.047451   4.271384
    23  H    4.080237   4.757525   5.316286   5.307684   4.711452
    24  H    5.849657   6.931774   7.097005   6.267538   5.054089
    25  H    6.829425   8.034599   8.252984   7.365362   6.035855
                    6          7          8          9         10
     6  C    0.000000
     7  C    1.494416   0.000000
     8  H    2.205706   1.091577   0.000000
     9  C    2.647085   1.497443   2.176247   0.000000
    10  O    2.510421   1.425225   2.100780   1.435167   0.000000
    11  C    3.104638   2.613037   3.514094   1.519239   2.499423
    12  O    3.892133   3.499340   4.258461   2.405330   3.638315
    13  N    3.338422   3.178077   4.221079   2.416530   2.702274
    14  C    3.921779   2.552365   2.599578   1.538187   2.488340
    15  O    4.376508   2.897203   2.533815   2.390828   2.772927
    16  N    4.836601   3.653776   3.774847   2.445665   3.665892
    17  Br   4.698361   6.192122   6.722444   7.172277   7.004932
    18  H    2.151526   2.722347   3.469904   3.576241   2.607470
    19  H    3.412986   4.675997   5.361247   5.624690   4.976373
    20  H    3.413324   4.662305   4.985084   5.563000   5.874299
    21  H    2.159417   2.709843   2.866600   3.489606   4.075757
    22  H    3.172395   3.008643   4.041603   2.544361   2.253892
    23  H    4.046251   4.100432   5.156902   3.351874   3.706389
    24  H    4.783775   3.843032   4.172834   2.571572   3.941815
    25  H    5.699048   4.460223   4.390366   3.370799   4.491375
                   11         12         13         14         15
    11  C    0.000000
    12  O    1.231681   0.000000
    13  N    1.349744   2.277476   0.000000
    14  C    2.645306   3.057295   3.719929   0.000000
    15  O    3.739467   4.265892   4.667988   1.221519   0.000000
    16  N    2.893067   2.758306   4.109676   1.353714   2.285138
    17  Br   6.953494   7.367346   6.672715   8.519250   9.056030
    18  H    3.911377   5.013438   3.409704   4.951044   5.248220
    19  H    5.576459   6.414911   4.958433   7.080173   7.494702
    20  H    5.508065   5.638733   5.818978   6.602613   7.173156
    21  H    3.822121   3.981406   4.577554   4.252561   4.789874
    22  H    2.053102   3.171941   1.009121   3.909870   4.648527
    23  H    2.039849   2.527710   1.009977   4.583927   5.600646
    24  H    2.468128   1.958178   3.721052   2.056937   3.173505
    25  H    3.901844   3.681498   5.105939   2.030200   2.526252
                   16         17         18         19         20
    16  N    0.000000
    17  Br   9.193194   0.000000
    18  H    6.021254   5.017292   0.000000
    19  H    7.996452   2.967879   2.488573   0.000000
    20  H    7.089692   2.969510   4.964197   4.299560   0.000000
    21  H    4.763762   5.012571   4.297847   4.965223   2.479128
    22  H    4.573013   6.574146   2.676767   4.473122   6.000300
    23  H    4.773253   6.734573   4.062381   5.207793   6.070111
    24  H    1.015812   8.840799   6.042954   7.816608   6.746678
    25  H    1.010310  10.074737   6.921655   8.932365   7.842177
                   21         22         23         24         25
    21  H    0.000000
    22  H    4.817634   0.000000
    23  H    5.125755   1.753340   0.000000
    24  H    4.587242   4.378379   4.219273   0.000000
    25  H    5.454991   5.546267   5.753454   1.765149   0.000000
 Stoichiometry    C10H9BrN2O3
 Framework group  C1[X(C10H9BrN2O3)]
 Deg. of freedom    69
 Full point group                 C1      NOp   1
 Largest Abelian subgroup         C1      NOp   1
 Largest concise Abelian subgroup C1      NOp   1
                         Standard orientation:                         
 ---------------------------------------------------------------------
 Center     Atomic      Atomic             Coordinates (Angstroms)
 Number     Number       Type             X           Y           Z
 ---------------------------------------------------------------------
      1          6           0        0.588091   -0.646483    1.255735
      2          6           0        1.955013   -0.379628    1.176292
      3          6           0        2.542464   -0.216304   -0.076323
      4          6           0        1.789719   -0.321600   -1.245547
      5          6           0        0.426197   -0.593475   -1.152164
      6          6           0       -0.187886   -0.750204    0.096811
      7          6           0       -1.642317   -1.085069    0.172805
      8          1           0       -1.941554   -2.036599   -0.270578
      9          6           0       -2.744001   -0.071526    0.209648
     10          8           0       -2.345213   -0.800803    1.379617
     11          6           0       -2.413243    1.411247    0.218013
     12          8           0       -2.661769    2.133225   -0.748435
     13          7           0       -1.848714    1.855401    1.360748
     14          6           0       -4.074042   -0.554949   -0.393105
     15          8           0       -4.451200   -1.698045   -0.185279
     16          7           0       -4.727241    0.351447   -1.157513
     17         35           0        4.413290    0.154628   -0.194823
     18          1           0        0.121161   -0.789899    2.225655
     19          1           0        2.557214   -0.304104    2.075167
     20          1           0        2.262437   -0.191246   -2.212791
     21          1           0       -0.164160   -0.675727   -2.061191
     22          1           0       -1.650360    1.213672    2.113851
     23          1           0       -1.556958    2.820585    1.418648
     24          1           0       -4.280004    1.234208   -1.386828
     25          1           0       -5.555749    0.042129   -1.646003
 ---------------------------------------------------------------------
 Rotational constants (GHZ):      1.1241804      0.1565146      0.1532653
 General basis read from cards:  (5D, 7F)
 There are   273 symmetry adapted cartesian basis functions of A   symmetry.
 There are   256 symmetry adapted basis functions of A   symmetry.
   256 basis functions,   539 primitive gaussians,   273 cartesian basis functions
    71 alpha electrons       71 beta electrons
       nuclear repulsion energy      1361.2905385963 Hartrees.
 NAtoms=   25 NActive=   25 NUniq=   25 SFac= 1.00D+00 NAtFMM=   60 NAOKFM=F Big=F
 Integral buffers will be    131072 words long.
 Raffenetti 1 integral format.
 Two-electron integral symmetry is turned on.
 One-electron integrals computed using PRISM.
 NBasis=   256 RedAO= T EigKep=  4.45D-04  NBF=   256
 NBsUse=   256 1.00D-06 EigRej= -1.00D+00 NBFU=   256
 ExpMin= 1.43D-01 ExpMax= 5.74D+05 ExpMxC= 5.74D+03 IAcc=2 IRadAn=         4 AccDes= 0.00D+00
 Harris functional with IExCor=  205 and IRadAn=       4 diagonalized for initial guess.
 HarFok:  IExCor=  205 AccDes= 0.00D+00 IRadAn=         4 IDoV= 1 UseB2=F ITyADJ=14
 ICtDFT=  3500011 ScaDFX=  1.000000  1.000000  1.000000  1.000000
 FoFCou: FMM=F IPFlag=           0 FMFlag=      100000 FMFlg1=           0
         NFxFlg=           0 DoJE=T BraDBF=F KetDBF=T FulRan=T
         wScrn=  0.000000 ICntrl=     500 IOpCl=  0 I1Cent=   200000004 NGrid=           0
         NMat0=    1 NMatS0=      1 NMatT0=    0 NMatD0=    1 NMtDS0=    0 NMtDT0=    0
 Petite list used in FoFCou.
 Requested convergence on RMS density matrix=1.00D-08 within 128 cycles.
 Requested convergence on MAX density matrix=1.00D-06.
 Requested convergence on             energy=1.00D-06.
 No special actions if energy rises.
 Integral accuracy reduced to 1.0D-05 until final iterations.
 Initial convergence to 1.0D-05 achieved.  Increase integral accuracy.
 SCF Done:  E(RHF) =  -3286.99038671     A.U. after   16 cycles
            NFock= 16  Conv=0.81D-08     -V/T= 1.9993

 **********************************************************************

            Population analysis using the SCF density.

 **********************************************************************

 Orbital symmetries:
 BldTbl:  Degeneracy threshold= 1.00D-02
       Occupied  (A) (A) (A) (A) (A) (A) (A) (A) (A) (A) (A) (A)
                 (A) (A) (A) (A) (A) (A) (A) (A) (A) (A) (A) (A)
                 (A) (A) (A) (A) (A) (A) (A) (A) (A) (A) (A) (A)
                 (A) (A) (A) (A) (A) (A) (A) (A) (A) (A) (A) (A)
                 (A) (A) (A) (A) (A) (A) (A) (A) (A) (A) (A) (A)
                 (A) (A) (A) (A) (A) (A) (A) (A) (A) (A) (A)
       Virtual   (A) (A) (A) (A) (A) (A) (A) (A) (A) (A) (A) (A)
                 (A) (A) (A) (A) (A) (A) (A) (A) (A) (A) (A) (A)
                 (A) (A) (A) (A) (A) (A) (A) (A) (A) (A) (A) (A)
                 (A) (A) (A) (A) (A) (A) (A) (A) (A) (A) (A) (A)
                 (A) (A) (A) (A) (A) (A) (A) (A) (A) (A) (A) (A)
                 (A) (A) (A) (A) (A) (A) (A) (A) (A) (A) (A) (A)
                 (A) (A) (A) (A) (A) (A) (A) (A) (A) (A) (A) (A)
                 (A) (A) (A) (A) (A) (A) (A) (A) (A) (A) (A) (A)
                 (A) (A) (A) (A) (A) (A) (A) (A) (A) (A) (A) (A)
                 (A) (A) (A) (A) (A) (A) (A) (A) (A) (A) (A) (A)
                 (A) (A) (A) (A) (A) (A) (A) (A) (A) (A) (A) (A)
                 (A) (A) (A) (A) (A) (A) (A) (A) (A) (A) (A) (A)
                 (A) (A) (A) (A) (A) (A) (A) (A) (A) (A) (A) (A)
                 (A) (A) (A) (A) (A) (A) (A) (A) (A) (A) (A) (A)
                 (A) (A) (A) (A) (A) (A) (A) (A) (A) (A) (A) (A)
                 (A) (A) (A) (A) (A)
 The electronic state is 1-A.
 Alpha  occ. eigenvalues -- -489.85275 -64.39657 -58.56339 -58.56163 -58.56156
 Alpha  occ. eigenvalues --  -20.61849 -20.55400 -20.53335 -15.60703 -15.58514
 Alpha  occ. eigenvalues --  -11.39057 -11.37271 -11.33548 -11.33338 -11.31550
 Alpha  occ. eigenvalues --  -11.27494 -11.26761 -11.26719 -11.26644 -11.26560
 Alpha  occ. eigenvalues --   -9.67419  -7.48987  -7.48100  -7.48097  -3.23306
 Alpha  occ. eigenvalues --   -3.22878  -3.22877  -3.21850  -3.21849  -1.46340
 Alpha  occ. eigenvalues --   -1.40301  -1.38269  -1.23492  -1.21557  -1.19009
 Alpha  occ. eigenvalues --   -1.09035  -1.04621  -1.01005  -0.99203  -0.91374
 Alpha  occ. eigenvalues --   -0.86414  -0.85968  -0.81693  -0.79116  -0.76501
 Alpha  occ. eigenvalues --   -0.74126  -0.71192  -0.69268  -0.68788  -0.66510
 Alpha  occ. eigenvalues --   -0.65682  -0.62951  -0.62347  -0.61615  -0.60413
 Alpha  occ. eigenvalues --   -0.58957  -0.57741  -0.57312  -0.54327  -0.52817
 Alpha  occ. eigenvalues --   -0.51574  -0.49266  -0.47794  -0.45437  -0.44129
 Alpha  occ. eigenvalues --   -0.43307  -0.42659  -0.42241  -0.41081  -0.36371
 Alpha  occ. eigenvalues --   -0.34028
 Alpha virt. eigenvalues --    0.09851   0.11111   0.14650   0.15561   0.18753
 Alpha virt. eigenvalues --    0.21855   0.24410   0.25040   0.25789   0.27537
 Alpha virt. eigenvalues --    0.28234   0.28804   0.31350   0.32277   0.33126
 Alpha virt. eigenvalues --    0.34481   0.35348   0.39434   0.43031   0.43352
 Alpha virt. eigenvalues --    0.43781   0.45958   0.46821   0.48020   0.50435
 Alpha virt. eigenvalues --    0.52717   0.55390   0.59035   0.60839   0.62964
 Alpha virt. eigenvalues --    0.63520   0.63669   0.64490   0.65610   0.66230
 Alpha virt. eigenvalues --    0.66781   0.67997   0.68393   0.72416   0.72922
 Alpha virt. eigenvalues --    0.73896   0.75829   0.77022   0.77517   0.79068
 Alpha virt. eigenvalues --    0.79547   0.80170   0.81181   0.81658   0.83530
 Alpha virt. eigenvalues --    0.84734   0.87591   0.87617   0.88398   0.90435
 Alpha virt. eigenvalues --    0.90820   0.91928   0.93597   0.94213   0.96248
 Alpha virt. eigenvalues --    0.97058   0.98073   0.99002   1.02217   1.03444
 Alpha virt. eigenvalues --    1.05023   1.05680   1.05973   1.07453   1.08717
 Alpha virt. eigenvalues --    1.09495   1.11026   1.11521   1.12517   1.13004
 Alpha virt. eigenvalues --    1.15110   1.15723   1.16342   1.20460   1.21356
 Alpha virt. eigenvalues --    1.22243   1.24936   1.25844   1.26535   1.28656
 Alpha virt. eigenvalues --    1.31857   1.33581   1.35049   1.35853   1.37340
 Alpha virt. eigenvalues --    1.40229   1.40926   1.42806   1.45817   1.47175
 Alpha virt. eigenvalues --    1.48228   1.49543   1.51819   1.52929   1.55938
 Alpha virt. eigenvalues --    1.59324   1.62202   1.64547   1.67143   1.67905
 Alpha virt. eigenvalues --    1.69003   1.70057   1.72016   1.74404   1.74655
 Alpha virt. eigenvalues --    1.76040   1.78645   1.81409   1.84374   1.87141
 Alpha virt. eigenvalues --    1.87526   1.91921   1.94589   1.97891   2.01019
 Alpha virt. eigenvalues --    2.04396   2.07203   2.08663   2.09534   2.09745
 Alpha virt. eigenvalues --    2.10334   2.11669   2.15057   2.17080   2.17914
 Alpha virt. eigenvalues --    2.19951   2.23165   2.24686   2.27401   2.28930
 Alpha virt. eigenvalues --    2.30293   2.33050   2.34217   2.35968   2.39019
 Alpha virt. eigenvalues --    2.41178   2.41249   2.43576   2.44122   2.45063
 Alpha virt. eigenvalues --    2.49272   2.50946   2.53240   2.54817   2.56880
 Alpha virt. eigenvalues --    2.59918   2.60497   2.62651   2.64015   2.66624
 Alpha virt. eigenvalues --    2.70910   2.71681   2.73359   2.75490   2.79989
 Alpha virt. eigenvalues --    2.84997   2.90818   2.92610   2.94675   2.95667
 Alpha virt. eigenvalues --    2.96259   2.97711   3.00030   3.01362   3.05090
 Alpha virt. eigenvalues --    3.09034   3.09546   3.12622   3.17094   3.22574
 Alpha virt. eigenvalues --    3.25576   3.29133   3.30123   3.38378   3.40746
 Alpha virt. eigenvalues --    3.43889   3.49718   3.52077   3.74058   9.16299
          Condensed to atoms (all electrons):
               1          2          3          4          5          6
     1  C    4.930465   0.519363  -0.043733  -0.034066  -0.035929   0.552579
     2  C    0.519363   4.946697   0.543120  -0.042056  -0.034291  -0.042813
     3  C   -0.043733   0.543120   4.784744   0.541635  -0.044932  -0.024761
     4  C   -0.034066  -0.042056   0.541635   4.934125   0.526033  -0.038836
     5  C   -0.035929  -0.034291  -0.044932   0.526033   4.937392   0.535206
     6  C    0.552579  -0.042813  -0.024761  -0.038836   0.535206   4.879782
     7  C   -0.038437   0.002274   0.000141   0.002516  -0.047059   0.358640
     8  H   -0.000047  -0.000005   0.000015  -0.000100   0.000719  -0.034476
     9  C    0.001291  -0.000051   0.000014   0.000088  -0.003395  -0.058325
    10  O   -0.002787   0.000258  -0.000004  -0.000044   0.001857  -0.027002
    11  C    0.000577  -0.000039  -0.000004  -0.000005   0.000908  -0.001843
    12  O    0.000001   0.000001   0.000000  -0.000004   0.000138  -0.000488
    13  N   -0.000421  -0.000127   0.000008  -0.000003  -0.000341  -0.000946
    14  C    0.000002   0.000001   0.000000  -0.000001   0.000092   0.001209
    15  O    0.000000   0.000000   0.000000   0.000000  -0.000003   0.000491
    16  N    0.000000   0.000000   0.000000   0.000000  -0.000005   0.000034
    17  Br   0.002820  -0.064901   0.291076  -0.064229   0.002929   0.000266
    18  H    0.379632  -0.027225   0.001731   0.000158   0.002485  -0.029224
    19  H   -0.026590   0.381312  -0.029175   0.002356   0.000186   0.001771
    20  H    0.000147   0.002413  -0.029001   0.380757  -0.025370   0.001480
    21  H    0.002338   0.000219   0.001834  -0.024403   0.380312  -0.034783
    22  H    0.001721   0.000106  -0.000003  -0.000009  -0.000013  -0.000535
    23  H    0.000091   0.000000  -0.000002  -0.000002   0.000019   0.000145
    24  H    0.000000   0.000000   0.000000   0.000000   0.000000  -0.000017
    25  H    0.000000   0.000000   0.000000   0.000000   0.000000   0.000000
               7          8          9         10         11         12
     1  C   -0.038437  -0.000047   0.001291  -0.002787   0.000577   0.000001
     2  C    0.002274  -0.000005  -0.000051   0.000258  -0.000039   0.000001
     3  C    0.000141   0.000015   0.000014  -0.000004  -0.000004   0.000000
     4  C    0.002516  -0.000100   0.000088  -0.000044  -0.000005  -0.000004
     5  C   -0.047059   0.000719  -0.003395   0.001857   0.000908   0.000138
     6  C    0.358640  -0.034476  -0.058325  -0.027002  -0.001843  -0.000488
     7  C    4.816723   0.388174   0.285503   0.152421  -0.021457   0.000147
     8  H    0.388174   0.424791  -0.030154  -0.022267   0.001073   0.000012
     9  C    0.285503  -0.030154   5.406865   0.085815   0.321376  -0.072325
    10  O    0.152421  -0.022267   0.085815   8.475794  -0.025415   0.001294
    11  C   -0.021457   0.001073   0.321376  -0.025415   4.085687   0.561550
    12  O    0.000147   0.000012  -0.072325   0.001294   0.561550   8.240249
    13  N    0.000167  -0.000004  -0.110858  -0.006297   0.328862  -0.082129
    14  C   -0.023761   0.001825   0.301208  -0.030377  -0.024536  -0.000628
    15  O    0.006030   0.007199  -0.095915   0.000200   0.001572  -0.000007
    16  N    0.001082   0.000145  -0.104496   0.001237  -0.001873  -0.021524
    17  Br   0.000003   0.000000   0.000000   0.000000   0.000000   0.000000
    18  H   -0.003764   0.000104   0.000260   0.003601  -0.000010  -0.000001
    19  H   -0.000089   0.000001   0.000001   0.000001   0.000000   0.000000
    20  H   -0.000082   0.000000   0.000000   0.000000   0.000000   0.000000
    21  H   -0.000180   0.000793   0.000412  -0.000019   0.000064   0.000040
    22  H   -0.000330   0.000061  -0.002543   0.011382  -0.019291   0.002015
    23  H   -0.000326   0.000004   0.005375   0.000112  -0.020136   0.003453
    24  H   -0.000076  -0.000019  -0.001883   0.000000  -0.002716   0.032751
    25  H   -0.000088  -0.000009   0.005331  -0.000030  -0.000030   0.000456
              13         14         15         16         17         18
     1  C   -0.000421   0.000002   0.000000   0.000000   0.002820   0.379632
     2  C   -0.000127   0.000001   0.000000   0.000000  -0.064901  -0.027225
     3  C    0.000008   0.000000   0.000000   0.000000   0.291076   0.001731
     4  C   -0.000003  -0.000001   0.000000   0.000000  -0.064229   0.000158
     5  C   -0.000341   0.000092  -0.000003  -0.000005   0.002929   0.002485
     6  C   -0.000946   0.001209   0.000491   0.000034   0.000266  -0.029224
     7  C    0.000167  -0.023761   0.006030   0.001082   0.000003  -0.003764
     8  H   -0.000004   0.001825   0.007199   0.000145   0.000000   0.000104
     9  C   -0.110858   0.301208  -0.095915  -0.104496   0.000000   0.000260
    10  O   -0.006297  -0.030377   0.000200   0.001237   0.000000   0.003601
    11  C    0.328862  -0.024536   0.001572  -0.001873   0.000000  -0.000010
    12  O   -0.082129  -0.000628  -0.000007  -0.021524   0.000000  -0.000001
    13  N    7.189094   0.000898  -0.000019  -0.000386   0.000000  -0.000045
    14  C    0.000898   4.032181   0.636726   0.308930   0.000000   0.000007
    15  O   -0.000019   0.636726   8.147597  -0.091341   0.000000   0.000001
    16  N   -0.000386   0.308930  -0.091341   7.311701   0.000000   0.000000
    17  Br   0.000000   0.000000   0.000000   0.000000  34.966030  -0.000093
    18  H   -0.000045   0.000007   0.000001   0.000000  -0.000093   0.435710
    19  H   -0.000003   0.000000   0.000000   0.000000  -0.001646  -0.001054
    20  H    0.000000   0.000000   0.000000   0.000000  -0.001613   0.000009
    21  H   -0.000004   0.000017   0.000000   0.000003  -0.000098  -0.000097
    22  H    0.308259   0.000170  -0.000004  -0.000006   0.000000   0.000746
    23  H    0.315063  -0.000001   0.000000   0.000003   0.000000   0.000004
    24  H    0.000541  -0.011223   0.001685   0.278216   0.000000   0.000000
    25  H    0.000003  -0.019699   0.004511   0.310510   0.000000   0.000000
              19         20         21         22         23         24
     1  C   -0.026590   0.000147   0.002338   0.001721   0.000091   0.000000
     2  C    0.381312   0.002413   0.000219   0.000106   0.000000   0.000000
     3  C   -0.029175  -0.029001   0.001834  -0.000003  -0.000002   0.000000
     4  C    0.002356   0.380757  -0.024403  -0.000009  -0.000002   0.000000
     5  C    0.000186  -0.025370   0.380312  -0.000013   0.000019   0.000000
     6  C    0.001771   0.001480  -0.034783  -0.000535   0.000145  -0.000017
     7  C   -0.000089  -0.000082  -0.000180  -0.000330  -0.000326  -0.000076
     8  H    0.000001   0.000000   0.000793   0.000061   0.000004  -0.000019
     9  C    0.000001   0.000000   0.000412  -0.002543   0.005375  -0.001883
    10  O    0.000001   0.000000  -0.000019   0.011382   0.000112   0.000000
    11  C    0.000000   0.000000   0.000064  -0.019291  -0.020136  -0.002716
    12  O    0.000000   0.000000   0.000040   0.002015   0.003453   0.032751
    13  N   -0.000003   0.000000  -0.000004   0.308259   0.315063   0.000541
    14  C    0.000000   0.000000   0.000017   0.000170  -0.000001  -0.011223
    15  O    0.000000   0.000000   0.000000  -0.000004   0.000000   0.001685
    16  N    0.000000   0.000000   0.000003  -0.000006   0.000003   0.278216
    17  Br  -0.001646  -0.001613  -0.000098   0.000000   0.000000   0.000000
    18  H   -0.001054   0.000009  -0.000097   0.000746   0.000004   0.000000
    19  H    0.433354  -0.000084   0.000009   0.000001   0.000000   0.000000
    20  H   -0.000084   0.430351  -0.001219   0.000000   0.000000   0.000000
    21  H    0.000009  -0.001219   0.443895   0.000001   0.000000   0.000002
    22  H    0.000001   0.000000   0.000001   0.273012  -0.012017  -0.000024
    23  H    0.000000   0.000000   0.000000  -0.012017   0.291300  -0.000008
    24  H    0.000000   0.000000   0.000002  -0.000024  -0.000008   0.243828
    25  H    0.000000   0.000000   0.000000   0.000000   0.000000  -0.008633
              25
     1  C    0.000000
     2  C    0.000000
     3  C    0.000000
     4  C    0.000000
     5  C    0.000000
     6  C    0.000000
     7  C   -0.000088
     8  H   -0.000009
     9  C    0.005331
    10  O   -0.000030
    11  C   -0.000030
    12  O    0.000456
    13  N    0.000003
    14  C   -0.019699
    15  O    0.004511
    16  N    0.310510
    17  Br   0.000000
    18  H    0.000000
    19  H    0.000000
    20  H    0.000000
    21  H    0.000000
    22  H    0.000000
    23  H    0.000000
    24  H   -0.008633
    25  H    0.300392
 Mulliken charges:
               1
     1  C   -0.209015
     2  C   -0.184255
     3  C    0.007297
     4  C   -0.183911
     5  C   -0.196938
     6  C   -0.037556
     7  C    0.121829
     8  H    0.262165
     9  C    0.066405
    10  O   -0.619730
    11  C    0.815685
    12  O   -0.665000
    13  N   -0.941313
    14  C    0.826961
    15  O   -0.618723
    16  N   -0.992232
    17  Br  -0.130545
    18  H    0.237067
    19  H    0.239647
    20  H    0.242213
    21  H    0.230864
    22  H    0.437300
    23  H    0.416923
    24  H    0.467578
    25  H    0.407286
 Sum of Mulliken charges =   0.00000
 Mulliken charges with hydrogens summed into heavy atoms:
               1
     1  C    0.028051
     2  C    0.055392
     3  C    0.007297
     4  C    0.058302
     5  C    0.033925
     6  C   -0.037556
     7  C    0.383995
     9  C    0.066405
    10  O   -0.619730
    11  C    0.815685
    12  O   -0.665000
    13  N   -0.087091
    14  C    0.826961
    15  O   -0.618723
    16  N   -0.117368
    17  Br  -0.130545
 DipInt: DoE/N= T F RetVal/Mat= T F Init=T NMatP=  1 IDeriv=0 Min/MaxMlt=  0  4
 Entering OneElI...
 OneElI was handed   235736537 working-precision words.
 Multipole integrals L=0 to 4 MinM= 0 MaxM= 0.
 Requested accuracy = 0.1000D-12
 ShPair: Thresh= 1.00D-13 NBox=     0 BxSize= 0.00D+00 RnKept= 1.90D+01
         NSMCal=                 4095 NSMKep=                3363
 PrsmSu:  NPrtUS=   1 ThrOK=F IAlg=1 NPAlg=1 LenDen=           0.
 Prism:   IPart=     0 DynPar=F LinDyn=F Incr=          33.
 PRISM was handed   235422913 working-precision words and  3363 shell-pairs
 IPart=  0 NShTot=        3363 NBatch=         140 AvBLen=        24.0
 PrSmSu:  NxtVal=             34.
 Electronic moments (au):
       -142.00000000          0.53837013          0.74390627          0.09814884
      -5342.23339076       -573.77836833       -462.79974133         -7.47443651
          5.05148958          5.73688493      -3695.34390353       -629.28330241
       -207.61151267       2301.87596178        134.31999003       2474.63434367
        623.06940567        -65.44887158       -137.19661506        -54.69647877
    -329923.76784122      -7466.42259246      -4455.51696850     -14131.08733282
      -9684.28170111       2063.49438971       -394.88402954         55.08473648
       -168.52683896     -16867.31796849     -11238.03270634      -2063.75042269
       1344.31598039       -118.16737502       1294.78756589
 Electronic spatial extent (au):  <R**2>=           6378.8115
 DipInt: DoE/N= F T RetVal/Mat= T F Init=T NMatP=  1 IDeriv=0 Min/MaxMlt=  0  4
 Nuclear    moments (au):
        142.00000000          0.00000000          0.00000000          0.00000000
       5253.89811360        490.55237197        392.90923400          0.00000000
         -0.00005173         -0.00003255       3825.99986590        664.88130543
        204.54331122      -2216.34605591        -50.53499015      -2537.61690887
       -585.71264207         77.57132574        157.06498890         35.93743550
     314539.16694305       5620.35283562       3059.08451379      13556.14819078
      10355.09513267      -2065.59458462        516.49746213        -34.29976645
        199.63352066      13477.92912686       8624.59306751       1507.55538340
      -1323.44310806         43.99152348      -1317.53884523
 Total      moments (au):
          0.00000000          0.53837013          0.74390627          0.09814884
        -88.33527716        -83.22599636        -69.89050733         -7.47443651
          5.05143785          5.73685238        130.65596236         35.59800302
         -3.06820145         85.52990587         83.78499987        -62.98256520
         37.35676360         12.12245416         19.86837384        -18.75904327
     -15384.60089817      -1846.06975684      -1396.43245471       -574.93914205
        670.81343156         -2.10019492        121.61343259         20.78497003
         31.10668170      -3389.38884163      -2613.43963883       -556.19503929
         20.87287233        -74.17585154        -22.75127933
 Traceless Quadrup. (au):
         -7.85135021         -2.74206941         10.59341962         -7.47443651
          5.05143785          5.73685238
 Charge=              0.0000 electrons
 Dipole moment (field-independent basis, Debye):
    X=              1.3684    Y=              1.8908    Z=              0.2495  Tot=              2.3473
 Quadrupole moment (field-independent basis, Debye-Ang):
   XX=           -118.8140   YY=           -111.9418   ZZ=            -94.0051
   XY=            -10.0534   XZ=              6.7944   YZ=              7.7163
 Traceless Quadrupole moment (field-independent basis, Debye-Ang):
   XX=            -10.5603   YY=             -3.6882   ZZ=             14.2485
   XY=            -10.0534   XZ=              6.7944   YZ=              7.7163
 Octapole moment (field-independent basis, Debye-Ang**2):
  XXX=             92.9959  YYY=             25.3373  ZZZ=             -2.1838  XYY=             60.8769
  XXY=             59.6349  XXZ=            -44.8286  XZZ=             26.5891  YZZ=              8.6283
  YYZ=             14.1415  XYZ=            -13.3520
 Hexadecapole moment (field-independent basis, Debye-Ang**3):
 XXXX=          -5794.5780 YYYY=           -695.3183 ZZZZ=           -525.9634 XXXY=           -216.5496
 XXXZ=            252.6605 YYYX=             -0.7910 YYYZ=             45.8054 ZZZX=              7.8286
 ZZZY=             11.7163 XXYY=          -1276.6063 XXZZ=           -984.3466 YYZZ=           -209.4897
 XXYZ=              7.8617 YYXZ=            -27.9382 ZZXY=             -8.5692
 N-N= 1.361290538596D+03 E-N=-1.055510148943D+04  KE= 3.289410212419D+03
 Entering OneElI...
 OneElI was handed   235782050 working-precision words.
 Calculate electrostatic properties
    NBasis =   256  MinDer = 0  MaxDer = 0
    NGrid  =    25  NMatD  =   1
 Requested accuracy = 0.1000D-12
 PrtBox:  NBox=     1 Levels=  1 BoxLen=   32.44 SMaxX=       18.84
          Shift=           10.498844            3.848614            4.181569
 Box      1 Number                   0 centers from      1 to     90:
 ShPair: Thresh= 1.00D-13 NBox=     1 BxSize= 3.24D+01 RnKept= 1.74D+01
         NSMCal=                 4095 NSMKep=                2955
 PrsmSu:  NPrtUS=   1 ThrOK=F IAlg=1 NPAlg=1 LenDen=           0.
 Prism:   IPart=     0 DynPar=F LinDyn=F Incr=         512.
 PRISM was handed   235502324 working-precision words and  2955 shell-pairs
 IPart=  0 NShTot=       73875 NBatch=        3063 AvBLen=        24.1
 PrSmSu:  NxtVal=            513.
 --------------------------------------------------------
       Center         ----      EFG at Nuclei      ----
                      3XX-RR        3YY-RR        3ZZ-RR
 --------------------------------------------------------
     1   Atom        0.158415     -0.313370      0.154955
     2   Atom        0.164467     -0.293464      0.128997
     3   Atom       -0.259754     -0.122548      0.382302
     4   Atom        0.159150     -0.294648      0.135498
     5   Atom        0.153516     -0.305341      0.151825
     6   Atom        0.059923     -0.265323      0.205400
     7   Atom        0.081231      0.169834     -0.251066
     8   Atom        0.109397     -0.179010      0.069614
     9   Atom        0.155609      0.026587     -0.182196
    10   Atom        0.469031      0.638489     -1.107520
    11   Atom       -0.412713      0.278897      0.133816
    12   Atom       -0.276545      0.640303     -0.363758
    13   Atom        0.630879     -0.362513     -0.268366
    14   Atom        0.023186      0.229219     -0.252405
    15   Atom        0.760454     -0.902516      0.142062
    16   Atom       -0.118422     -0.171697      0.290119
    17   Atom       -6.481835      3.054767      3.427068
    18   Atom        0.063222      0.154646     -0.217868
    19   Atom        0.005922      0.163394     -0.169316
    20   Atom        0.058557      0.159040     -0.217598
    21   Atom        0.008789      0.162445     -0.171233
    22   Atom        0.196399     -0.050167     -0.146232
    23   Atom        0.173660     -0.347726      0.174066
    24   Atom        0.076815     -0.227213      0.150399
    25   Atom       -0.195547      0.125961      0.069587
 --------------------------------------------------------
                        XY            XZ            YZ
 --------------------------------------------------------
     1   Atom        0.096041      0.007449     -0.018657
     2   Atom        0.092541      0.015575     -0.015794
     3   Atom       -0.029120      0.042917     -0.011757
     4   Atom        0.095484     -0.016941     -0.020573
     5   Atom        0.095556     -0.011686     -0.018940
     6   Atom        0.062502      0.007092     -0.014285
     7   Atom        0.141546      0.165888      0.036540
     8   Atom       -0.095007     -0.041140     -0.156188
     9   Atom        0.057477     -0.100979      0.208594
    10   Atom        1.520712      0.357245      0.584271
    11   Atom        0.133781      0.268348     -0.131697
    12   Atom        0.695696      0.290794      1.060405
    13   Atom       -0.284979     -0.470270      0.045806
    14   Atom        0.175708      0.284934     -0.200615
    15   Atom       -0.372614      1.073620     -0.183625
    16   Atom       -0.172309     -0.565274      0.397467
    17   Atom       -1.970658      0.627122      0.122770
    18   Atom       -0.027441      0.170604      0.051729
    19   Atom       -0.021645     -0.206116     -0.025001
    20   Atom       -0.027933      0.173247      0.048707
    21   Atom       -0.024081     -0.201911     -0.027762
    22   Atom        0.059052     -0.112865      0.266753
    23   Atom       -0.173501     -0.034425     -0.028748
    24   Atom       -0.192572      0.021150      0.133059
    25   Atom       -0.153792     -0.257118     -0.065358
 --------------------------------------------------------


 ---------------------------------------------------------------------------------
              Nuclear Quadrupole Coupling Constant in Principal Axis System
 ---------------------------------------------------------------------------------

       Atom             a.u.   MegaHertz   Gauss  10(-4) cm-1        Axes

              Baa    -0.5190     2.493     0.889     0.831  0.4278  0.5748  0.6976
    13 N(14)  Bbb    -0.3755     1.803     0.643     0.601 -0.0625  0.7887 -0.6116
              Bcc     0.8945    -4.296    -1.533    -1.433  0.9017 -0.2180 -0.3733
 
              Baa    -0.5482     2.633     0.940     0.878  0.6906 -0.3513  0.6322
    16 N(14)  Bbb    -0.3138     1.507     0.538     0.503  0.5117  0.8551 -0.0838
              Bcc     0.8620    -4.140    -1.477    -1.381 -0.5111  0.3814  0.7703
 
              Baa    -6.9125   508.373   181.400   169.575  0.9790  0.1943 -0.0617
    17 Br(79) Bbb     3.4458  -253.418   -90.426   -84.531 -0.1892  0.9786  0.0804
              Bcc     3.4667  -254.955   -90.974   -85.044  0.0760 -0.0670  0.9949
 

 ---------------------------------------------------------------------------------

 No NMR shielding tensors so no spin-rotation constants.
 Leave Link  601 at Thu Jan 16 22:40:52 2014, MaxMem=   235929600 cpu:         0.4
 FitSet:  NAtFit=    25 NAtPot=    25 NAtFrz=     0 MDM=    29 TotChg=   0.00000
 Merz-Kollman atomic radii used.
 Atom Element Radius
    1     6    1.50
    2     6    1.50
    3     6    1.50
    4     6    1.50
    5     6    1.50
    6     6    1.50
    7     6    1.50
    8     1    1.20
    9     6    1.50
   10     8    1.40
   11     6    1.50
   12     8    1.40
   13     7    1.50
   14     6    1.50
   15     8    1.40
   16     7    1.50
   17    35    2.30
   18     1    1.20
   19     1    1.20
   20     1    1.20
   21     1    1.20
   22     1    1.20
   23     1    1.20
   24     1    1.20
   25     1    1.20
 Generate VDW surfaces: Layer= 5 Dens= 2 Start= 1.400 Inc= 0.179

 **********************************************************************

            Electrostatic Properties Using The SCF Density

 **********************************************************************

       Atomic Center    1 is at   0.588091 -0.646483  1.255735
       Atomic Center    2 is at   1.955013 -0.379628  1.176292
       Atomic Center    3 is at   2.542464 -0.216304 -0.076323
       Atomic Center    4 is at   1.789719 -0.321600 -1.245547
       Atomic Center    5 is at   0.426197 -0.593475 -1.152164
       Atomic Center    6 is at  -0.187886 -0.750204  0.096811
       Atomic Center    7 is at  -1.642317 -1.085069  0.172805
       Atomic Center    8 is at  -1.941554 -2.036599 -0.270578
       Atomic Center    9 is at  -2.744001 -0.071526  0.209648
       Atomic Center   10 is at  -2.345213 -0.800803  1.379617
       Atomic Center   11 is at  -2.413243  1.411247  0.218013
       Atomic Center   12 is at  -2.661769  2.133225 -0.748435
       Atomic Center   13 is at  -1.848714  1.855401  1.360748
       Atomic Center   14 is at  -4.074042 -0.554949 -0.393105
       Atomic Center   15 is at  -4.451200 -1.698045 -0.185279
       Atomic Center   16 is at  -4.727241  0.351447 -1.157513
       Atomic Center   17 is at   4.413290  0.154628 -0.194823
       Atomic Center   18 is at   0.121161 -0.789899  2.225655
       Atomic Center   19 is at   2.557214 -0.304104  2.075167
       Atomic Center   20 is at   2.262437 -0.191246 -2.212791
       Atomic Center   21 is at  -0.164160 -0.675727 -2.061191
       Atomic Center   22 is at  -1.650360  1.213672  2.113851
       Atomic Center   23 is at  -1.556958  2.820585  1.418648
       Atomic Center   24 is at  -4.280004  1.234208 -1.386828
       Atomic Center   25 is at  -5.555749  0.042129 -1.646003
      ESP Fit Center   26 is at   1.148841  0.581387  2.864428
      ESP Fit Center   27 is at   0.397990  1.162208  2.305735
      ESP Fit Center   28 is at   0.397990 -2.455174  2.305735
      ESP Fit Center   29 is at   1.150086 -2.376125  2.305735
      ESP Fit Center   30 is at   0.778911  1.412791  1.620396
      ESP Fit Center   31 is at  -0.658215 -2.296859  1.620396
      ESP Fit Center   32 is at   0.022130 -2.635631  1.620396
      ESP Fit Center   33 is at   0.778911 -2.705757  1.620396
      ESP Fit Center   34 is at   1.509921 -2.497767  1.620396
      ESP Fit Center   35 is at   0.778911  1.412791  0.891074
      ESP Fit Center   36 is at   0.778911 -2.705757  0.891074
      ESP Fit Center   37 is at   1.509921 -2.497767  0.891074
      ESP Fit Center   38 is at   1.150086 -2.376125  0.205735
      ESP Fit Center   39 is at   1.762909 -1.715742  2.784985
      ESP Fit Center   40 is at   1.764912  1.429063  2.226292
      ESP Fit Center   41 is at   1.045686  1.195372  2.226292
      ESP Fit Center   42 is at   1.764912 -2.188319  2.226292
      ESP Fit Center   43 is at   2.517008 -2.109270  2.226292
      ESP Fit Center   44 is at   2.145833  1.679646  1.540953
      ESP Fit Center   45 is at   1.389052  1.609520  1.540953
      ESP Fit Center   46 is at   2.145833 -2.438902  1.540953
      ESP Fit Center   47 is at   2.876843 -2.230912  1.540953
      ESP Fit Center   48 is at   1.389052  1.609520  0.811631
      ESP Fit Center   49 is at   2.145833 -2.438902  0.811631
      ESP Fit Center   50 is at   1.764912 -2.188319  0.126292
      ESP Fit Center   51 is at   1.296158  1.434072  0.288338
      ESP Fit Center   52 is at   0.880392  1.253400 -0.195547
      ESP Fit Center   53 is at   1.599618 -2.130291 -0.195547
      ESP Fit Center   54 is at   1.223758  1.667548 -0.880886
      ESP Fit Center   55 is at   1.980539 -2.380874 -0.880886
      ESP Fit Center   56 is at   1.980539  1.737674 -1.610208
      ESP Fit Center   57 is at   1.223758  1.667548 -1.610208
      ESP Fit Center   58 is at   1.980539 -2.380874 -1.610208
      ESP Fit Center   59 is at   1.599618  1.487091 -2.295547
      ESP Fit Center   60 is at   0.880392  1.253400 -2.295547
      ESP Fit Center   61 is at   1.599618 -2.130291 -2.295547
      ESP Fit Center   62 is at   2.351714 -2.051242 -2.295547
      ESP Fit Center   63 is at   0.905753  0.698552 -2.854240
      ESP Fit Center   64 is at   1.597615 -1.657714 -2.854240
      ESP Fit Center   65 is at   0.617017  1.465799 -0.787503
      ESP Fit Center   66 is at  -0.139764  1.395673 -0.787503
      ESP Fit Center   67 is at   0.617017 -2.652749 -0.787503
      ESP Fit Center   68 is at   1.348027 -2.444759 -0.787503
      ESP Fit Center   69 is at   0.617017  1.465799 -1.516825
      ESP Fit Center   70 is at  -0.139764  1.395673 -1.516825
      ESP Fit Center   71 is at  -0.820109  1.056901 -1.516825
      ESP Fit Center   72 is at  -1.332134  0.495237 -1.516825
      ESP Fit Center   73 is at  -0.820109 -2.243851 -1.516825
      ESP Fit Center   74 is at  -0.139764 -2.582623 -1.516825
      ESP Fit Center   75 is at   0.617017 -2.652749 -1.516825
      ESP Fit Center   76 is at   1.348027 -2.444759 -1.516825
      ESP Fit Center   77 is at   0.236096  1.215216 -2.202164
      ESP Fit Center   78 is at  -0.483130  0.981525 -2.202164
      ESP Fit Center   79 is at   0.236096 -2.402166 -2.202164
      ESP Fit Center   80 is at   0.988192 -2.323117 -2.202164
      ESP Fit Center   81 is at   0.986947 -1.821345 -2.760857
      ESP Fit Center   82 is at  -0.377987 -2.558895  1.146811
      ESP Fit Center   83 is at   0.002934  1.309070  0.461472
      ESP Fit Center   84 is at   0.002934 -2.809478  0.461472
      ESP Fit Center   85 is at   0.733944 -2.601488  0.461472
      ESP Fit Center   86 is at   0.002934  1.309070 -0.267850
      ESP Fit Center   87 is at   0.002934 -2.809478 -0.267850
      ESP Fit Center   88 is at   0.733944 -2.601488 -0.267850
      ESP Fit Center   89 is at  -0.377987 -2.558895 -0.953189
      ESP Fit Center   90 is at  -1.081567 -2.312939  1.781498
      ESP Fit Center   91 is at  -1.832418 -2.893760  1.222805
      ESP Fit Center   92 is at  -1.080322 -2.814711  1.222805
      ESP Fit Center   93 is at  -0.720487 -2.936353  0.537466
      ESP Fit Center   94 is at  -2.001438 -0.463053 -1.800549
      ESP Fit Center   95 is at  -2.360559 -1.085069 -1.800549
      ESP Fit Center   96 is at  -3.004179 -2.808641  0.776885
      ESP Fit Center   97 is at  -2.347441 -3.285790  0.776885
      ESP Fit Center   98 is at  -1.535667 -3.285790  0.776885
      ESP Fit Center   99 is at  -2.522354 -3.568042  0.103257
      ESP Fit Center  100 is at  -1.744130 -3.662536  0.103257
      ESP Fit Center  101 is at  -1.011133 -3.384547  0.103257
      ESP Fit Center  102 is at  -3.167524 -3.122714 -0.644413
      ESP Fit Center  103 is at  -2.522354 -3.568042 -0.644413
      ESP Fit Center  104 is at  -1.744130 -3.662536 -0.644413
      ESP Fit Center  105 is at  -1.011133 -3.384547 -0.644413
      ESP Fit Center  106 is at  -0.491284 -2.797759 -0.644413
      ESP Fit Center  107 is at  -3.004179 -2.808641 -1.318041
      ESP Fit Center  108 is at  -2.347441 -3.285790 -1.318041
      ESP Fit Center  109 is at  -1.535667 -3.285790 -1.318041
      ESP Fit Center  110 is at  -0.878929 -2.808641 -1.318041
      ESP Fit Center  111 is at  -1.212629 -2.036599 -1.784206
      ESP Fit Center  112 is at  -2.670479 -2.036599 -1.784206
      ESP Fit Center  113 is at  -2.306016 -2.667866 -1.784206
      ESP Fit Center  114 is at  -1.577092 -2.667866 -1.784206
      ESP Fit Center  115 is at  -1.941554 -2.036599 -1.950578
      ESP Fit Center  116 is at  -4.039176  0.308772  1.818341
      ESP Fit Center  117 is at  -4.215323  0.997452  1.259648
      ESP Fit Center  118 is at  -2.025759 -0.071526 -1.763706
      ESP Fit Center  119 is at  -2.384880 -0.693542 -1.763706
      ESP Fit Center  120 is at  -2.345213 -0.800803  3.339617
      ESP Fit Center  121 is at  -1.595154 -0.800803  3.190421
      ESP Fit Center  122 is at  -1.970183 -0.151232  3.190421
      ESP Fit Center  123 is at  -2.720243 -0.151232  3.190421
      ESP Fit Center  124 is at  -3.095273 -0.800803  3.190421
      ESP Fit Center  125 is at  -2.720243 -1.450374  3.190421
      ESP Fit Center  126 is at  -1.970183 -1.450374  3.190421
      ESP Fit Center  127 is at  -3.038178  0.399447  2.765546
      ESP Fit Center  128 is at  -3.545463 -0.107838  2.765546
      ESP Fit Center  129 is at  -3.731142 -0.800803  2.765546
      ESP Fit Center  130 is at  -3.545463 -1.493768  2.765546
      ESP Fit Center  131 is at  -3.038178 -2.001053  2.765546
      ESP Fit Center  132 is at  -2.345213 -2.186732  2.765546
      ESP Fit Center  133 is at  -1.652248 -2.001053  2.765546
      ESP Fit Center  134 is at  -3.810184  0.263561  2.129677
      ESP Fit Center  135 is at  -4.116447 -0.424316  2.129677
      ESP Fit Center  136 is at  -4.116447 -1.177290  2.129677
      ESP Fit Center  137 is at  -3.810184 -1.865167  2.129677
      ESP Fit Center  138 is at  -3.250615 -2.369005  2.129677
      ESP Fit Center  139 is at  -2.534494 -2.601687  2.129677
      ESP Fit Center  140 is at  -1.785644 -2.522980  2.129677
      ESP Fit Center  141 is at  -1.133549 -2.146493  2.129677
      ESP Fit Center  142 is at  -2.881592 -2.685981  1.379617
      ESP Fit Center  143 is at  -2.164367 -2.752442  1.379617
      ESP Fit Center  144 is at  -3.884565  2.480225  1.268013
      ESP Fit Center  145 is at  -4.192154  1.789366  1.268013
      ESP Fit Center  146 is at  -4.192154  1.033128  1.268013
      ESP Fit Center  147 is at  -4.171574  2.499959  0.582674
      ESP Fit Center  148 is at  -4.446126  1.791259  0.582674
      ESP Fit Center  149 is at  -0.345147  1.411247 -0.146648
      ESP Fit Center  150 is at  -0.594590  1.411247 -0.831987
      ESP Fit Center  151 is at  -1.277674  0.681461 -1.390680
      ESP Fit Center  152 is at  -3.354734  3.333475  0.637494
      ESP Fit Center  153 is at  -2.102200  3.855402  0.001625
      ESP Fit Center  154 is at  -2.851050  3.934109  0.001625
      ESP Fit Center  155 is at  -3.567171  3.701427  0.001625
      ESP Fit Center  156 is at  -4.126740  3.197589  0.001625
      ESP Fit Center  157 is at  -4.433003  2.509712  0.001625
      ESP Fit Center  158 is at  -0.834123  2.841259 -0.748435
      ESP Fit Center  159 is at  -1.213312  3.453668 -0.748435
      ESP Fit Center  160 is at  -1.788122  3.887745 -0.748435
      ESP Fit Center  161 is at  -2.480923  4.084864 -0.748435
      ESP Fit Center  162 is at  -3.198149  4.018403 -0.748435
      ESP Fit Center  163 is at  -3.842933  3.697339 -0.748435
      ESP Fit Center  164 is at  -4.328195  3.165032 -0.748435
      ESP Fit Center  165 is at  -0.850965  2.133225 -1.498494
      ESP Fit Center  166 is at  -1.007517  2.869745 -1.498494
      ESP Fit Center  167 is at  -1.450105  3.478914 -1.498494
      ESP Fit Center  168 is at  -2.102200  3.855402 -1.498494
      ESP Fit Center  169 is at  -2.851050  3.934109 -1.498494
      ESP Fit Center  170 is at  -3.567171  3.701427 -1.498494
      ESP Fit Center  171 is at  -4.126740  3.197589 -1.498494
      ESP Fit Center  172 is at  -1.007517  1.396705 -1.498494
      ESP Fit Center  173 is at  -1.275840  2.133225 -2.134364
      ESP Fit Center  174 is at  -1.461519  2.826190 -2.134364
      ESP Fit Center  175 is at  -1.968804  3.333475 -2.134364
      ESP Fit Center  176 is at  -2.661769  3.519154 -2.134364
      ESP Fit Center  177 is at  -3.354734  3.333475 -2.134364
      ESP Fit Center  178 is at  -3.862019  2.826190 -2.134364
      ESP Fit Center  179 is at  -2.661769  0.747296 -2.134364
      ESP Fit Center  180 is at  -1.968804  0.932975 -2.134364
      ESP Fit Center  181 is at  -1.461519  1.440260 -2.134364
      ESP Fit Center  182 is at  -1.911710  2.133225 -2.559239
      ESP Fit Center  183 is at  -2.286739  2.782796 -2.559239
      ESP Fit Center  184 is at  -3.036799  2.782796 -2.559239
      ESP Fit Center  185 is at  -3.411829  2.133225 -2.559239
      ESP Fit Center  186 is at  -3.036799  1.483654 -2.559239
      ESP Fit Center  187 is at  -2.286739  1.483654 -2.559239
      ESP Fit Center  188 is at  -2.661769  2.133225 -2.708435
      ESP Fit Center  189 is at  -1.489593  2.477417  3.334103
      ESP Fit Center  190 is at  -2.207835  2.477417  3.334103
      ESP Fit Center  191 is at  -0.713145  2.585187  2.969441
      ESP Fit Center  192 is at  -2.732680  2.875553  2.969441
      ESP Fit Center  193 is at  -3.143889  2.235699  2.969441
      ESP Fit Center  194 is at  -3.143889  1.475103  2.969441
      ESP Fit Center  195 is at  -0.030061  1.855401  2.410748
      ESP Fit Center  196 is at  -0.187292  2.595114  2.410748
      ESP Fit Center  197 is at  -3.320036  2.924379  2.410748
      ESP Fit Center  198 is at  -3.627625  2.233520  2.410748
      ESP Fit Center  199 is at  -3.627625  1.477282  2.410748
      ESP Fit Center  200 is at  -3.320036  0.786423  2.410748
      ESP Fit Center  201 is at   0.219382  1.855401  1.725409
      ESP Fit Center  202 is at  -3.095020  3.505777  1.725409
      ESP Fit Center  203 is at  -3.607045  2.944113  1.725409
      ESP Fit Center  204 is at  -3.881597  2.235413  1.725409
      ESP Fit Center  205 is at  -3.881597  1.475389  1.725409
      ESP Fit Center  206 is at   0.219382  1.855401  0.996087
      ESP Fit Center  207 is at   0.079728  2.602484  0.996087
      ESP Fit Center  208 is at  -3.095020  3.505777  0.996087
      ESP Fit Center  209 is at  -0.030061  1.855401  0.310748
      ESP Fit Center  210 is at  -0.187292  2.595114  0.310748
      ESP Fit Center  211 is at  -0.713145  2.585187 -0.247945
      ESP Fit Center  212 is at  -4.433163  0.067067  1.580250
      ESP Fit Center  213 is at  -4.792284 -0.554949  1.580250
      ESP Fit Center  214 is at  -4.958008  0.465203  1.215588
      ESP Fit Center  215 is at  -5.369217 -0.174651  1.215588
      ESP Fit Center  216 is at  -5.852953 -0.176830  0.656895
      ESP Fit Center  217 is at  -2.724188 -0.554949 -2.001798
      ESP Fit Center  218 is at  -3.513292 -1.782819 -2.001798
      ESP Fit Center  219 is at  -2.938473 -1.284735 -2.001798
      ESP Fit Center  220 is at  -3.714921 -1.176965 -2.366459
      ESP Fit Center  221 is at  -4.451200 -1.698045  1.774721
      ESP Fit Center  222 is at  -4.826230 -1.048474  1.625525
      ESP Fit Center  223 is at  -5.201260 -1.698045  1.625525
      ESP Fit Center  224 is at  -4.826230 -2.347616  1.625525
      ESP Fit Center  225 is at  -4.076170 -2.347616  1.625525
      ESP Fit Center  226 is at  -5.651450 -1.005080  1.200650
      ESP Fit Center  227 is at  -5.837129 -1.698045  1.200650
      ESP Fit Center  228 is at  -5.651450 -2.391010  1.200650
      ESP Fit Center  229 is at  -5.144165 -2.898295  1.200650
      ESP Fit Center  230 is at  -4.451200 -3.083974  1.200650
      ESP Fit Center  231 is at  -3.758235 -2.898295  1.200650
      ESP Fit Center  232 is at  -6.222434 -1.321558  0.564781
      ESP Fit Center  233 is at  -6.222434 -2.074532  0.564781
      ESP Fit Center  234 is at  -5.916171 -2.762409  0.564781
      ESP Fit Center  235 is at  -5.356602 -3.266247  0.564781
      ESP Fit Center  236 is at  -4.640481 -3.498929  0.564781
      ESP Fit Center  237 is at  -3.891631 -3.420222  0.564781
      ESP Fit Center  238 is at  -3.239536 -3.043735  0.564781
      ESP Fit Center  239 is at  -6.377827 -1.337896 -0.185279
      ESP Fit Center  240 is at  -6.377827 -2.058194 -0.185279
      ESP Fit Center  241 is at  -6.117626 -2.729852 -0.185279
      ESP Fit Center  242 is at  -5.632364 -3.262159 -0.185279
      ESP Fit Center  243 is at  -4.987579 -3.583223 -0.185279
      ESP Fit Center  244 is at  -4.270354 -3.649684 -0.185279
      ESP Fit Center  245 is at  -3.577553 -3.452565 -0.185279
      ESP Fit Center  246 is at  -6.222434 -2.074532 -0.935338
      ESP Fit Center  247 is at  -5.916171 -2.762409 -0.935338
      ESP Fit Center  248 is at  -5.356602 -3.266247 -0.935338
      ESP Fit Center  249 is at  -4.640481 -3.498929 -0.935338
      ESP Fit Center  250 is at  -3.891631 -3.420222 -0.935338
      ESP Fit Center  251 is at  -3.239536 -3.043735 -0.935338
      ESP Fit Center  252 is at  -5.837129 -1.698045 -1.571208
      ESP Fit Center  253 is at  -5.651450 -2.391010 -1.571208
      ESP Fit Center  254 is at  -5.144165 -2.898295 -1.571208
      ESP Fit Center  255 is at  -4.451200 -3.083974 -1.571208
      ESP Fit Center  256 is at  -3.758235 -2.898295 -1.571208
      ESP Fit Center  257 is at  -3.250950 -2.391010 -1.571208
      ESP Fit Center  258 is at  -5.201260 -1.698045 -1.996083
      ESP Fit Center  259 is at  -4.826230 -2.347616 -1.996083
      ESP Fit Center  260 is at  -4.076170 -2.347616 -1.996083
      ESP Fit Center  261 is at  -4.451200 -1.698045 -2.145279
      ESP Fit Center  262 is at  -5.086362  0.973463  0.815842
      ESP Fit Center  263 is at  -4.919345  1.687561  0.451180
      ESP Fit Center  264 is at  -5.611207  1.371599  0.451180
      ESP Fit Center  265 is at  -6.022416  0.731745  0.451180
      ESP Fit Center  266 is at  -6.022416 -0.028851  0.451180
      ESP Fit Center  267 is at  -4.917342  2.160138 -0.107513
      ESP Fit Center  268 is at  -5.636568  1.926447 -0.107513
      ESP Fit Center  269 is at  -6.198563  1.420425 -0.107513
      ESP Fit Center  270 is at  -6.506152  0.729566 -0.107513
      ESP Fit Center  271 is at  -6.506152 -0.026672 -0.107513
      ESP Fit Center  272 is at  -6.198563 -0.717531 -0.107513
      ESP Fit Center  273 is at  -5.973547  2.001823 -0.792852
      ESP Fit Center  274 is at  -6.485572  1.440159 -0.792852
      ESP Fit Center  275 is at  -5.973547  2.001823 -1.522174
      ESP Fit Center  276 is at  -6.485572  1.440159 -1.522174
      ESP Fit Center  277 is at  -2.908588  0.351447 -2.207513
      ESP Fit Center  278 is at  -5.636568  1.926447 -2.207513
      ESP Fit Center  279 is at  -4.917342 -1.457244 -2.207513
      ESP Fit Center  280 is at  -3.377387  0.351447 -2.766206
      ESP Fit Center  281 is at  -5.611207  1.371599 -2.766206
      ESP Fit Center  282 is at  -4.166491 -0.876423 -2.766206
      ESP Fit Center  283 is at  -3.591672 -0.378339 -2.766206
      ESP Fit Center  284 is at  -4.008999  0.351447 -3.130867
      ESP Fit Center  285 is at  -4.368120  0.973463 -3.130867
      ESP Fit Center  286 is at  -5.086362  0.973463 -3.130867
      ESP Fit Center  287 is at  -4.368120 -0.270569 -3.130867
      ESP Fit Center  288 is at  -4.727241  0.351447 -3.257513
      ESP Fit Center  289 is at   4.413290  0.154628  3.025177
      ESP Fit Center  290 is at   5.129807  0.154628  2.944445
      ESP Fit Center  291 is at   4.771549  0.775150  2.944445
      ESP Fit Center  292 is at   4.055031  0.775150  2.944445
      ESP Fit Center  293 is at   4.055031 -0.465894  2.944445
      ESP Fit Center  294 is at   4.771549 -0.465894  2.944445
      ESP Fit Center  295 is at   5.810396  0.154628  2.706297
      ESP Fit Center  296 is at   5.623219  0.853181  2.706297
      ESP Fit Center  297 is at   5.111843  1.364557  2.706297
      ESP Fit Center  298 is at   4.413290  1.551734  2.706297
      ESP Fit Center  299 is at   3.714737  1.364557  2.706297
      ESP Fit Center  300 is at   4.413290 -1.242478  2.706297
      ESP Fit Center  301 is at   5.111843 -1.055301  2.706297
      ESP Fit Center  302 is at   5.623219 -0.543925  2.706297
      ESP Fit Center  303 is at   6.420927  0.154628  2.322674
      ESP Fit Center  304 is at   6.285356  0.879870  2.322674
      ESP Fit Center  305 is at   5.896952  1.507164  2.322674
      ESP Fit Center  306 is at   5.308171  1.951791  2.322674
      ESP Fit Center  307 is at   4.598531  2.153701  2.322674
      ESP Fit Center  308 is at   3.863874  2.085625  2.322674
      ESP Fit Center  309 is at   3.203418  1.756757  2.322674
      ESP Fit Center  310 is at   3.863874 -1.776369  2.322674
      ESP Fit Center  311 is at   4.598531 -1.844445  2.322674
      ESP Fit Center  312 is at   5.308171 -1.642535  2.322674
      ESP Fit Center  313 is at   5.896952 -1.197908  2.322674
      ESP Fit Center  314 is at   6.285356 -0.570614  2.322674
      ESP Fit Center  315 is at   6.930787  0.154628  1.812814
      ESP Fit Center  316 is at   6.818942  0.896673  1.812814
      ESP Fit Center  317 is at   6.493344  1.572785  1.812814
      ESP Fit Center  318 is at   5.982924  2.122887  1.812814
      ESP Fit Center  319 is at   5.333035  2.498100  1.812814
      ESP Fit Center  320 is at   4.601423  2.665086  1.812814
      ESP Fit Center  321 is at   3.853094  2.609006  1.812814
      ESP Fit Center  322 is at   3.154541  2.334845  1.812814
      ESP Fit Center  323 is at   2.567834  1.866961  1.812814
      ESP Fit Center  324 is at   3.154541 -2.025589  1.812814
      ESP Fit Center  325 is at   3.853094 -2.299750  1.812814
      ESP Fit Center  326 is at   4.601423 -2.355830  1.812814
      ESP Fit Center  327 is at   5.333035 -2.188844  1.812814
      ESP Fit Center  328 is at   5.982924 -1.813631  1.812814
      ESP Fit Center  329 is at   6.493344 -1.263529  1.812814
      ESP Fit Center  330 is at   6.818942 -0.587417  1.812814
      ESP Fit Center  331 is at   7.314410  0.154628  1.202283
      ESP Fit Center  332 is at   7.223266  0.876107  1.202283
      ESP Fit Center  333 is at   6.955561  1.552253  1.202283
      ESP Fit Center  334 is at   6.528115  2.140581  1.202283
      ESP Fit Center  335 is at   5.967788  2.604124  1.202283
      ESP Fit Center  336 is at   5.309785  2.913757  1.202283
      ESP Fit Center  337 is at   4.595453  3.050023  1.202283
      ESP Fit Center  338 is at   3.869674  3.004361  1.202283
      ESP Fit Center  339 is at   3.178053  2.779640  1.202283
      ESP Fit Center  340 is at   2.564047  2.389979  1.202283
      ESP Fit Center  341 is at   2.066235  1.859863  1.202283
      ESP Fit Center  342 is at   3.178053 -2.470384  1.202283
      ESP Fit Center  343 is at   3.869674 -2.695105  1.202283
      ESP Fit Center  344 is at   4.595453 -2.740767  1.202283
      ESP Fit Center  345 is at   5.309785 -2.604501  1.202283
      ESP Fit Center  346 is at   5.967788 -2.294868  1.202283
      ESP Fit Center  347 is at   6.528115 -1.831325  1.202283
      ESP Fit Center  348 is at   6.955561 -1.242997  1.202283
      ESP Fit Center  349 is at   7.223266 -0.566851  1.202283
      ESP Fit Center  350 is at   7.552558  0.154628  0.521695
      ESP Fit Center  351 is at   7.467938  0.878593  0.521695
      ESP Fit Center  352 is at   7.218642  1.563529  0.521695
      ESP Fit Center  353 is at   6.818109  2.172510  0.521695
      ESP Fit Center  354 is at   6.287931  2.672708  0.521695
      ESP Fit Center  355 is at   5.656690  3.037154  0.521695
      ESP Fit Center  356 is at   4.958418  3.246203  0.521695
      ESP Fit Center  357 is at   4.230758  3.288585  0.521695
      ESP Fit Center  358 is at   3.512938  3.162014  0.521695
      ESP Fit Center  359 is at   2.843656  2.873314  0.521695
      ESP Fit Center  360 is at   2.258994  2.438049  0.521695
      ESP Fit Center  361 is at   1.790470  1.879684  0.521695
      ESP Fit Center  362 is at   2.843656 -2.564058  0.521695
      ESP Fit Center  363 is at   3.512938 -2.852758  0.521695
      ESP Fit Center  364 is at   4.230758 -2.979329  0.521695
      ESP Fit Center  365 is at   4.958418 -2.936947  0.521695
      ESP Fit Center  366 is at   5.656690 -2.727898  0.521695
      ESP Fit Center  367 is at   6.287931 -2.363452  0.521695
      ESP Fit Center  368 is at   6.818109 -1.863255  0.521695
      ESP Fit Center  369 is at   7.218642 -1.254273  0.521695
      ESP Fit Center  370 is at   7.467938 -0.569337  0.521695
      ESP Fit Center  371 is at   7.633290  0.154628 -0.194823
      ESP Fit Center  372 is at   7.552558  0.871145 -0.194823
      ESP Fit Center  373 is at   7.314410  1.551734 -0.194823
      ESP Fit Center  374 is at   6.930787  2.162265 -0.194823
      ESP Fit Center  375 is at   6.420927  2.672125 -0.194823
      ESP Fit Center  376 is at   5.810396  3.055748 -0.194823
      ESP Fit Center  377 is at   5.129807  3.293896 -0.194823
      ESP Fit Center  378 is at   4.413290  3.374628 -0.194823
      ESP Fit Center  379 is at   3.696773  3.293896 -0.194823
      ESP Fit Center  380 is at   3.016184  3.055748 -0.194823
      ESP Fit Center  381 is at   2.405653  2.672125 -0.194823
      ESP Fit Center  382 is at   1.895793  2.162265 -0.194823
      ESP Fit Center  383 is at   2.405653 -2.362869 -0.194823
      ESP Fit Center  384 is at   3.016184 -2.746492 -0.194823
      ESP Fit Center  385 is at   3.696773 -2.984640 -0.194823
      ESP Fit Center  386 is at   4.413290 -3.065372 -0.194823
      ESP Fit Center  387 is at   5.129807 -2.984640 -0.194823
      ESP Fit Center  388 is at   5.810396 -2.746492 -0.194823
      ESP Fit Center  389 is at   6.420927 -2.362869 -0.194823
      ESP Fit Center  390 is at   6.930787 -1.853009 -0.194823
      ESP Fit Center  391 is at   7.314410 -1.242478 -0.194823
      ESP Fit Center  392 is at   7.552558 -0.561889 -0.194823
      ESP Fit Center  393 is at   7.552558  0.154628 -0.911340
      ESP Fit Center  394 is at   7.467938  0.878593 -0.911340
      ESP Fit Center  395 is at   7.218642  1.563529 -0.911340
      ESP Fit Center  396 is at   6.818109  2.172510 -0.911340
      ESP Fit Center  397 is at   6.287931  2.672708 -0.911340
      ESP Fit Center  398 is at   5.656690  3.037154 -0.911340
      ESP Fit Center  399 is at   4.958418  3.246203 -0.911340
      ESP Fit Center  400 is at   4.230758  3.288585 -0.911340
      ESP Fit Center  401 is at   3.512938  3.162014 -0.911340
      ESP Fit Center  402 is at   2.843656  2.873314 -0.911340
      ESP Fit Center  403 is at   2.258994  2.438049 -0.911340
      ESP Fit Center  404 is at   1.790470  1.879684 -0.911340
      ESP Fit Center  405 is at   2.843656 -2.564058 -0.911340
      ESP Fit Center  406 is at   3.512938 -2.852758 -0.911340
      ESP Fit Center  407 is at   4.230758 -2.979329 -0.911340
      ESP Fit Center  408 is at   4.958418 -2.936947 -0.911340
      ESP Fit Center  409 is at   5.656690 -2.727898 -0.911340
      ESP Fit Center  410 is at   6.287931 -2.363452 -0.911340
      ESP Fit Center  411 is at   6.818109 -1.863255 -0.911340
      ESP Fit Center  412 is at   7.218642 -1.254273 -0.911340
      ESP Fit Center  413 is at   7.467938 -0.569337 -0.911340
      ESP Fit Center  414 is at   7.314410  0.154628 -1.591929
      ESP Fit Center  415 is at   7.223266  0.876107 -1.591929
      ESP Fit Center  416 is at   6.955561  1.552253 -1.591929
      ESP Fit Center  417 is at   6.528115  2.140581 -1.591929
      ESP Fit Center  418 is at   5.967788  2.604124 -1.591929
      ESP Fit Center  419 is at   5.309785  2.913757 -1.591929
      ESP Fit Center  420 is at   4.595453  3.050023 -1.591929
      ESP Fit Center  421 is at   3.869674  3.004361 -1.591929
      ESP Fit Center  422 is at   3.178053  2.779640 -1.591929
      ESP Fit Center  423 is at   2.564047  2.389979 -1.591929
      ESP Fit Center  424 is at   2.066235  1.859863 -1.591929
      ESP Fit Center  425 is at   3.178053 -2.470384 -1.591929
      ESP Fit Center  426 is at   3.869674 -2.695105 -1.591929
      ESP Fit Center  427 is at   4.595453 -2.740767 -1.591929
      ESP Fit Center  428 is at   5.309785 -2.604501 -1.591929
      ESP Fit Center  429 is at   5.967788 -2.294868 -1.591929
      ESP Fit Center  430 is at   6.528115 -1.831325 -1.591929
      ESP Fit Center  431 is at   6.955561 -1.242997 -1.591929
      ESP Fit Center  432 is at   7.223266 -0.566851 -1.591929
      ESP Fit Center  433 is at   6.930787  0.154628 -2.202460
      ESP Fit Center  434 is at   6.818942  0.896673 -2.202460
      ESP Fit Center  435 is at   6.493344  1.572785 -2.202460
      ESP Fit Center  436 is at   5.982924  2.122887 -2.202460
      ESP Fit Center  437 is at   5.333035  2.498100 -2.202460
      ESP Fit Center  438 is at   4.601423  2.665086 -2.202460
      ESP Fit Center  439 is at   3.853094  2.609006 -2.202460
      ESP Fit Center  440 is at   3.154541  2.334845 -2.202460
      ESP Fit Center  441 is at   2.567834  1.866961 -2.202460
      ESP Fit Center  442 is at   3.154541 -2.025589 -2.202460
      ESP Fit Center  443 is at   3.853094 -2.299750 -2.202460
      ESP Fit Center  444 is at   4.601423 -2.355830 -2.202460
      ESP Fit Center  445 is at   5.333035 -2.188844 -2.202460
      ESP Fit Center  446 is at   5.982924 -1.813631 -2.202460
      ESP Fit Center  447 is at   6.493344 -1.263529 -2.202460
      ESP Fit Center  448 is at   6.818942 -0.587417 -2.202460
      ESP Fit Center  449 is at   6.420927  0.154628 -2.712320
      ESP Fit Center  450 is at   6.285356  0.879870 -2.712320
      ESP Fit Center  451 is at   5.896952  1.507164 -2.712320
      ESP Fit Center  452 is at   5.308171  1.951791 -2.712320
      ESP Fit Center  453 is at   4.598531  2.153701 -2.712320
      ESP Fit Center  454 is at   3.863874  2.085625 -2.712320
      ESP Fit Center  455 is at   3.203418  1.756757 -2.712320
      ESP Fit Center  456 is at   3.863874 -1.776369 -2.712320
      ESP Fit Center  457 is at   4.598531 -1.844445 -2.712320
      ESP Fit Center  458 is at   5.308171 -1.642535 -2.712320
      ESP Fit Center  459 is at   5.896952 -1.197908 -2.712320
      ESP Fit Center  460 is at   6.285356 -0.570614 -2.712320
      ESP Fit Center  461 is at   5.810396  0.154628 -3.095943
      ESP Fit Center  462 is at   5.623219  0.853181 -3.095943
      ESP Fit Center  463 is at   5.111843  1.364557 -3.095943
      ESP Fit Center  464 is at   4.413290  1.551734 -3.095943
      ESP Fit Center  465 is at   3.714737  1.364557 -3.095943
      ESP Fit Center  466 is at   3.714737 -1.055301 -3.095943
      ESP Fit Center  467 is at   4.413290 -1.242478 -3.095943
      ESP Fit Center  468 is at   5.111843 -1.055301 -3.095943
      ESP Fit Center  469 is at   5.623219 -0.543925 -3.095943
      ESP Fit Center  470 is at   5.129807  0.154628 -3.334091
      ESP Fit Center  471 is at   4.771549  0.775150 -3.334091
      ESP Fit Center  472 is at   4.055031  0.775150 -3.334091
      ESP Fit Center  473 is at   3.696773  0.154628 -3.334091
      ESP Fit Center  474 is at   4.055031 -0.465894 -3.334091
      ESP Fit Center  475 is at   4.771549 -0.465894 -3.334091
      ESP Fit Center  476 is at   4.413290  0.154628 -3.414823
      ESP Fit Center  477 is at   0.121161 -0.789899  3.905655
      ESP Fit Center  478 is at   0.850086 -0.789899  3.739283
      ESP Fit Center  479 is at   0.485623 -0.158632  3.739283
      ESP Fit Center  480 is at  -0.243301 -0.158632  3.739283
      ESP Fit Center  481 is at  -0.607764 -0.789899  3.739283
      ESP Fit Center  482 is at  -0.243301 -1.421166  3.739283
      ESP Fit Center  483 is at   0.485623 -1.421166  3.739283
      ESP Fit Center  484 is at   1.434638 -0.789899  3.273118
      ESP Fit Center  485 is at   1.183786 -0.017857  3.273118
      ESP Fit Center  486 is at   0.527048  0.459292  3.273118
      ESP Fit Center  487 is at  -0.284726  0.459292  3.273118
      ESP Fit Center  488 is at  -0.941464 -0.017857  3.273118
      ESP Fit Center  489 is at  -1.192316 -0.789899  3.273118
      ESP Fit Center  490 is at  -0.941464 -1.561941  3.273118
      ESP Fit Center  491 is at  -0.284726 -2.039090  3.273118
      ESP Fit Center  492 is at   0.527048 -2.039090  3.273118
      ESP Fit Center  493 is at   1.183786 -1.561941  3.273118
      ESP Fit Center  494 is at  -1.104809 -1.876014  2.599490
      ESP Fit Center  495 is at  -0.459639 -2.321342  2.599490
      ESP Fit Center  496 is at   0.318585 -2.415836  2.599490
      ESP Fit Center  497 is at   2.557214 -0.304104  3.755167
      ESP Fit Center  498 is at   3.286139 -0.304104  3.588795
      ESP Fit Center  499 is at   2.921676  0.327163  3.588795
      ESP Fit Center  500 is at   2.192752  0.327163  3.588795
      ESP Fit Center  501 is at   1.828289 -0.304104  3.588795
      ESP Fit Center  502 is at   2.192752 -0.935371  3.588795
      ESP Fit Center  503 is at   2.921676 -0.935371  3.588795
      ESP Fit Center  504 is at   3.870691 -0.304104  3.122630
      ESP Fit Center  505 is at   3.619839  0.467938  3.122630
      ESP Fit Center  506 is at   2.963101  0.945087  3.122630
      ESP Fit Center  507 is at   2.151327  0.945087  3.122630
      ESP Fit Center  508 is at   1.494589  0.467938  3.122630
      ESP Fit Center  509 is at   2.151327 -1.553295  3.122630
      ESP Fit Center  510 is at   2.963101 -1.553295  3.122630
      ESP Fit Center  511 is at   3.619839 -1.076146  3.122630
      ESP Fit Center  512 is at   2.754638  1.321833  2.449002
      ESP Fit Center  513 is at   2.754638 -1.930041  2.449002
      ESP Fit Center  514 is at   3.487635 -1.652052  2.449002
      ESP Fit Center  515 is at   2.459861  1.434691 -2.586626
      ESP Fit Center  516 is at   1.681637  1.340197 -2.586626
      ESP Fit Center  517 is at   2.459861 -1.817183 -2.586626
      ESP Fit Center  518 is at   3.325062  0.580796 -3.260254
      ESP Fit Center  519 is at   2.668324  1.057945 -3.260254
      ESP Fit Center  520 is at   1.856550  1.057945 -3.260254
      ESP Fit Center  521 is at   1.199812  0.580796 -3.260254
      ESP Fit Center  522 is at   0.948960 -0.191246 -3.260254
      ESP Fit Center  523 is at   1.199812 -0.963288 -3.260254
      ESP Fit Center  524 is at   1.856550 -1.440437 -3.260254
      ESP Fit Center  525 is at   2.668324 -1.440437 -3.260254
      ESP Fit Center  526 is at   3.325062 -0.963288 -3.260254
      ESP Fit Center  527 is at   2.991362 -0.191246 -3.726419
      ESP Fit Center  528 is at   2.626899  0.440021 -3.726419
      ESP Fit Center  529 is at   1.897975  0.440021 -3.726419
      ESP Fit Center  530 is at   1.533512 -0.191246 -3.726419
      ESP Fit Center  531 is at   1.897975 -0.822513 -3.726419
      ESP Fit Center  532 is at   2.626899 -0.822513 -3.726419
      ESP Fit Center  533 is at   2.262437 -0.191246 -3.892791
      ESP Fit Center  534 is at  -1.390130  0.410388 -1.687356
      ESP Fit Center  535 is at  -0.744960  0.855716 -2.435026
      ESP Fit Center  536 is at  -1.390130  0.410388 -2.435026
      ESP Fit Center  537 is at  -1.754445 -0.283757 -2.435026
      ESP Fit Center  538 is at  -1.754445 -1.067697 -2.435026
      ESP Fit Center  539 is at  -1.390130 -1.761842 -2.435026
      ESP Fit Center  540 is at  -0.744960 -2.207170 -2.435026
      ESP Fit Center  541 is at   0.033264 -2.301664 -2.435026
      ESP Fit Center  542 is at   0.241727  0.573464 -3.108654
      ESP Fit Center  543 is at  -0.570047  0.573464 -3.108654
      ESP Fit Center  544 is at  -1.226785  0.096315 -3.108654
      ESP Fit Center  545 is at  -1.477637 -0.675727 -3.108654
      ESP Fit Center  546 is at  -1.226785 -1.447769 -3.108654
      ESP Fit Center  547 is at  -0.570047 -1.924918 -3.108654
      ESP Fit Center  548 is at   0.241727 -1.924918 -3.108654
      ESP Fit Center  549 is at   0.898465 -1.447769 -3.108654
      ESP Fit Center  550 is at   0.564765 -0.675727 -3.574819
      ESP Fit Center  551 is at   0.200302 -0.044460 -3.574819
      ESP Fit Center  552 is at  -0.528622 -0.044460 -3.574819
      ESP Fit Center  553 is at  -0.893085 -0.675727 -3.574819
      ESP Fit Center  554 is at  -0.528622 -1.306994 -3.574819
      ESP Fit Center  555 is at   0.200302 -1.306994 -3.574819
      ESP Fit Center  556 is at  -0.164160 -0.675727 -3.741191
      ESP Fit Center  557 is at  -1.650360  1.213672  3.793851
      ESP Fit Center  558 is at  -0.921435  1.213672  3.627479
      ESP Fit Center  559 is at  -1.285898  1.844939  3.627479
      ESP Fit Center  560 is at  -2.014822  1.844939  3.627479
      ESP Fit Center  561 is at  -2.379285  1.213672  3.627479
      ESP Fit Center  562 is at  -2.014822  0.582405  3.627479
      ESP Fit Center  563 is at  -1.285898  0.582405  3.627479
      ESP Fit Center  564 is at  -0.336883  1.213672  3.161314
      ESP Fit Center  565 is at  -0.587735  1.985714  3.161314
      ESP Fit Center  566 is at  -2.963837  1.213672  3.161314
      ESP Fit Center  567 is at  -2.712985  0.441630  3.161314
      ESP Fit Center  568 is at  -2.056247 -0.035519  3.161314
      ESP Fit Center  569 is at  -1.244473 -0.035519  3.161314
      ESP Fit Center  570 is at  -0.587735  0.441630  3.161314
      ESP Fit Center  571 is at  -0.012481  1.213672  2.487686
      ESP Fit Center  572 is at  -0.828033  2.820585  2.932276
      ESP Fit Center  573 is at  -1.192496  3.451852  2.932276
      ESP Fit Center  574 is at  -1.921420  3.451852  2.932276
      ESP Fit Center  575 is at  -0.243481  2.820585  2.466111
      ESP Fit Center  576 is at  -0.494333  3.592627  2.466111
      ESP Fit Center  577 is at  -1.151071  4.069776  2.466111
      ESP Fit Center  578 is at  -1.962845  4.069776  2.466111
[...]
 3210 Fit      -0.029080
 3211 Fit      -0.026352
 3212 Fit      -0.021532
 3213 Fit      -0.016477
 3214 Fit      -0.021633
 3215 Fit      -0.025562
 3216 Fit      -0.028119
 3217 Fit      -0.029440
 3218 Fit      -0.029675
 3219 Fit      -0.028846
 3220 Fit      -0.026743
 3221 Fit      -0.022779
 3222 Fit      -0.017867
 3223 Fit      -0.023035
 3224 Fit      -0.026232
 3225 Fit      -0.027832
 3226 Fit      -0.028109
 3227 Fit      -0.027142
 3228 Fit      -0.024733
 3229 Fit      -0.020246
 3230 Fit      -0.016786
 3231 Fit      -0.022058
 3232 Fit      -0.024885
 3233 Fit      -0.025885
 3234 Fit      -0.025348
 3235 Fit      -0.023241
 3236 Fit      -0.019125
 3237 Fit      -0.016601
 3238 Fit      -0.021053
 3239 Fit      -0.022721
 3240 Fit      -0.022222
 3241 Fit      -0.019637
 3242 Fit      -0.014539
 3243 Fit      -0.013846
 3244 Fit      -0.017959
 3245 Fit      -0.018538
 3246 Fit      -0.016182
 3247 Fit      -0.010842
 3248 Fit      -0.002401
 3249 Fit      -0.008498
 3250 Fit      -0.013192
 3251 Fit      -0.012676
 3252 Fit      -0.007977
 3253 Fit      -0.007151
 3254 Fit      -0.005418
 3255 Fit      -0.000674
 3256 Fit      -0.004648
 3257 Fit      -0.000484
 3258 Fit      -0.003063
 3259 Fit      -0.005286
 3260 Fit      -0.007820
 3261 Fit      -0.002355
 3262 Fit      -0.002968
 3263 Fit      -0.003945
 3264 Fit      -0.005008
 3265 Fit      -0.006591
 3266 Fit      -0.009916
 3267 Fit      -0.002529
 3268 Fit      -0.002306
 3269 Fit      -0.002416
 3270 Fit      -0.002620
 3271 Fit      -0.003334
 3272 Fit      -0.005551
 3273 Fit      -0.010835
 3274 Fit      -0.002388
 3275 Fit      -0.000479
 3276 Fit       0.000234
 3277 Fit       0.000789
 3278 Fit       0.001357
 3279 Fit       0.001498
 3280 Fit       0.000254
 3281 Fit       0.001782
 3282 Fit       0.003117
 3283 Fit       0.004188
 3284 Fit       0.005442
 3285 Fit       0.005398
 3286 Fit       0.006902
 3287 Fit       0.008568
 3288 Fit       0.007454
 3289 Fit       0.009327
 3290 Fit       0.011340
 3291 Fit       0.006943
 3292 Fit       0.009964
 3293 Fit       0.012235
 3294 Fit      -0.003275
 3295 Fit      -0.004906
 3296 Fit       0.004794
 3297 Fit       0.000373
 3298 Fit       0.008953
 3299 Fit       0.011543
 3300 Fit       0.014064
 3301 Fit       0.003643
 3302 Fit       0.001382
 3303 Fit       0.002810
 3304 Fit       0.005866
 3305 Fit       0.007238
 3306 Fit       0.004402
 3307 Fit       0.003353
 3308 Fit       0.004570
 3309 Fit       0.007513
 3310 Fit       0.010382
 3311 Fit       0.012799
 3312 Fit       0.005049
 3313 Fit       0.004438
 3314 Fit       0.005043
 3315 Fit       0.005410
 3316 Fit       0.006452
 3317 Fit       0.009213
 3318 Fit       0.010615
 3319 Fit       0.008324
 3320 Fit       0.005882
 3321 Fit       0.007577
 3322 Fit       0.007571
 3323 Fit       0.004919
 3324 Fit       0.005835
 3325 Fit       0.008623
 3326 Fit       0.011066
 3327 Fit       0.009278
 3328 Fit       0.006126
 3329 Fit       0.002990
 3330 Fit       0.003292
 3331 Fit       0.004285
 3332 Fit       0.006186
 3333 Fit       0.009137
 3334 Fit       0.012763
 3335 Fit       0.010524
 3336 Fit       0.006868
 3337 Fit       0.004521
 3338 Fit       0.003336
 3339 Fit       0.001651
 3340 Fit       0.001819
 3341 Fit       0.002230
 3342 Fit       0.002994
 3343 Fit       0.004288
 3344 Fit       0.006299
 3345 Fit       0.009149
 3346 Fit       0.012810
 3347 Fit       0.010751
 3348 Fit       0.007005
 3349 Fit       0.004510
 3350 Fit       0.002961
 3351 Fit       0.002099
 3352 Fit       0.001715
 3353 Fit       0.000778
 3354 Fit       0.000911
 3355 Fit       0.001110
 3356 Fit       0.001428
 3357 Fit       0.001961
 3358 Fit       0.002838
 3359 Fit       0.004198
 3360 Fit       0.006171
 3361 Fit       0.008845
 3362 Fit       0.012224
 3363 Fit       0.016241
 3364 Fit       0.009607
 3365 Fit       0.006289
 3366 Fit       0.004050
 3367 Fit       0.002543
 3368 Fit       0.001575
 3369 Fit       0.001018
 3370 Fit       0.000764
 3371 Fit       0.000712
 3372 Fit       0.000260
 3373 Fit       0.000392
 3374 Fit       0.000509
 3375 Fit       0.000643
 3376 Fit       0.000856
 3377 Fit       0.001235
 3378 Fit       0.001885
 3379 Fit       0.002921
 3380 Fit       0.004459
 3381 Fit       0.006605
 3382 Fit       0.009423
 3383 Fit       0.012861
 3384 Fit       0.005479
 3385 Fit       0.003520
 3386 Fit       0.002126
 3387 Fit       0.001140
 3388 Fit       0.000492
 3389 Fit       0.000129
 3390 Fit      -0.000009
 3391 Fit       0.000012
 3392 Fit       0.000121
 3393 Fit       0.000002
 3394 Fit       0.000141
 3395 Fit       0.000221
 3396 Fit       0.000262
 3397 Fit       0.000308
 3398 Fit       0.000427
 3399 Fit       0.000701
 3400 Fit       0.001223
 3401 Fit       0.002091
 3402 Fit       0.003415
 3403 Fit       0.005313
 3404 Fit       0.007905
 3405 Fit       0.011214
 3406 Fit       0.014969
 3407 Fit       0.004376
 3408 Fit       0.002824
 3409 Fit       0.001669
 3410 Fit       0.000766
 3411 Fit       0.000087
 3412 Fit      -0.000369
 3413 Fit      -0.000611
 3414 Fit      -0.000665
 3415 Fit      -0.000575
 3416 Fit      -0.000397
 3417 Fit      -0.000188
 3418 Fit      -0.000086
 3419 Fit       0.000061
 3420 Fit       0.000124
 3421 Fit       0.000114
 3422 Fit       0.000063
 3423 Fit       0.000022
 3424 Fit       0.000054
 3425 Fit       0.000230
 3426 Fit       0.000626
 3427 Fit       0.001325
 3428 Fit       0.002418
 3429 Fit       0.004023
 3430 Fit       0.006293
 3431 Fit       0.009389
 3432 Fit       0.013214
 3433 Fit       0.001438
 3434 Fit       0.000802
 3435 Fit       0.000196
 3436 Fit      -0.000351
 3437 Fit      -0.000794
 3438 Fit      -0.001096
 3439 Fit      -0.001239
 3440 Fit      -0.001227
 3441 Fit      -0.001085
 3442 Fit      -0.000852
 3443 Fit      -0.000577
 3444 Fit      -0.000308
 3445 Fit      -0.000079
 3446 Fit       0.000075
 3447 Fit       0.000129
 3448 Fit       0.000091
 3449 Fit      -0.000015
 3450 Fit      -0.000147
 3451 Fit      -0.000255
 3452 Fit      -0.000278
 3453 Fit      -0.000153
 3454 Fit       0.000183
 3455 Fit       0.000799
 3456 Fit       0.001772
 3457 Fit       0.003211
 3458 Fit       0.005284
 3459 Fit       0.008220
 3460 Fit       0.012088
 3461 Fit      -0.000291
 3462 Fit      -0.000465
 3463 Fit      -0.000764
 3464 Fit      -0.001104
 3465 Fit      -0.001415
 3466 Fit      -0.001638
 3467 Fit      -0.001739
 3468 Fit      -0.001706
 3469 Fit      -0.001547
 3470 Fit      -0.001288
 3471 Fit      -0.000969
 3472 Fit      -0.000632
 3473 Fit      -0.000323
 3474 Fit      -0.000043
 3475 Fit       0.000119
 3476 Fit       0.000164
 3477 Fit       0.000101
 3478 Fit      -0.000048
 3479 Fit      -0.000244
 3480 Fit      -0.000437
 3481 Fit      -0.000570
 3482 Fit      -0.000584
 3483 Fit      -0.000422
 3484 Fit      -0.000029
 3485 Fit       0.000652
 3486 Fit       0.001688
 3487 Fit       0.003187
 3488 Fit       0.005325
 3489 Fit       0.008283
 3490 Fit      -0.001302
 3491 Fit      -0.001202
 3492 Fit      -0.001288
 3493 Fit      -0.001492
 3494 Fit      -0.001739
 3495 Fit      -0.001956
 3496 Fit      -0.002088
 3497 Fit      -0.002100
 3498 Fit      -0.001982
 3499 Fit      -0.001744
 3500 Fit      -0.001416
 3501 Fit      -0.001037
 3502 Fit      -0.000653
 3503 Fit      -0.000308
 3504 Fit      -0.000024
 3505 Fit       0.000138
 3506 Fit       0.000177
 3507 Fit       0.000100
 3508 Fit      -0.000073
 3509 Fit      -0.000306
 3510 Fit      -0.000554
 3511 Fit      -0.000764
 3512 Fit      -0.000883
 3513 Fit      -0.000862
 3514 Fit      -0.000659
 3515 Fit      -0.000242
 3516 Fit       0.000412
 3517 Fit       0.001324
 3518 Fit       0.002513
 3519 Fit       0.003962
 3520 Fit       0.005355
 3521 Fit      -0.001419
 3522 Fit      -0.001431
 3523 Fit      -0.001490
 3524 Fit      -0.001636
 3525 Fit      -0.001848
 3526 Fit      -0.002071
 3527 Fit      -0.002246
 3528 Fit      -0.002325
 3529 Fit      -0.002283
 3530 Fit      -0.002114
 3531 Fit      -0.001832
 3532 Fit      -0.001467
 3533 Fit      -0.001059
 3534 Fit      -0.000655
 3535 Fit      -0.000297
 3536 Fit      -0.000054
 3537 Fit       0.000104
 3538 Fit       0.000136
 3539 Fit       0.000047
 3540 Fit      -0.000142
 3541 Fit      -0.000398
 3542 Fit      -0.000675
 3543 Fit      -0.000924
 3544 Fit      -0.001096
 3545 Fit      -0.001148
 3546 Fit      -0.001050
 3547 Fit      -0.000791
 3548 Fit      -0.000384
 3549 Fit       0.000118
 3550 Fit       0.000599
 3551 Fit       0.000810
 3552 Fit       0.000241
 3553 Fit      -0.000845
 3554 Fit      -0.001105
 3555 Fit      -0.001329
 3556 Fit      -0.001578
 3557 Fit      -0.001851
 3558 Fit      -0.002108
 3559 Fit      -0.002299
 3560 Fit      -0.002384
 3561 Fit      -0.002341
 3562 Fit      -0.002167
 3563 Fit      -0.001879
 3564 Fit      -0.001508
 3565 Fit      -0.001094
 3566 Fit      -0.000686
 3567 Fit      -0.000326
 3568 Fit      -0.000143
 3569 Fit       0.000006
 3570 Fit       0.000029
 3571 Fit      -0.000071
 3572 Fit      -0.000271
 3573 Fit      -0.000536
 3574 Fit      -0.000821
 3575 Fit      -0.001078
 3576 Fit      -0.001259
 3577 Fit      -0.001329
 3578 Fit      -0.001271
 3579 Fit      -0.001097
 3580 Fit      -0.000861
 3581 Fit      -0.000685
 3582 Fit      -0.000800
 3583 Fit      -0.001593
 3584 Fit      -0.003542
 3585 Fit      -0.006524
 3586 Fit      -0.000206
 3587 Fit      -0.000661
 3588 Fit      -0.001087
 3589 Fit      -0.001491
 3590 Fit      -0.001849
 3591 Fit      -0.002120
 3592 Fit      -0.002271
 3593 Fit      -0.002282
 3594 Fit      -0.002151
 3595 Fit      -0.001896
 3596 Fit      -0.001549
 3597 Fit      -0.001153
 3598 Fit      -0.000757
 3599 Fit      -0.000407
 3600 Fit      -0.000280
 3601 Fit      -0.000147
 3602 Fit      -0.000132
 3603 Fit      -0.000232
 3604 Fit      -0.000424
 3605 Fit      -0.000674
 3606 Fit      -0.000939
 3607 Fit      -0.001172
 3608 Fit      -0.001331
 3609 Fit      -0.001389
 3610 Fit      -0.001339
 3611 Fit      -0.001209
 3612 Fit      -0.001077
 3613 Fit      -0.001086
 3614 Fit      -0.001460
 3615 Fit      -0.002451
 3616 Fit      -0.004062
 3617 Fit       0.001447
 3618 Fit       0.000558
 3619 Fit      -0.000177
 3620 Fit      -0.000803
 3621 Fit      -0.001325
 3622 Fit      -0.001724
 3623 Fit      -0.001978
 3624 Fit      -0.002077
 3625 Fit      -0.002021
 3626 Fit      -0.001832
 3627 Fit      -0.001542
 3628 Fit      -0.001194
 3629 Fit      -0.000838
 3630 Fit      -0.000520
 3631 Fit      -0.000435
 3632 Fit      -0.000321
 3633 Fit      -0.000320
 3634 Fit      -0.000426
 3635 Fit      -0.000612
 3636 Fit      -0.000840
 3637 Fit      -0.001059
 3638 Fit      -0.001223
 3639 Fit      -0.001293
 3640 Fit      -0.001251
 3641 Fit      -0.001112
 3642 Fit      -0.000929
 3643 Fit      -0.000801
 3644 Fit      -0.000841
 3645 Fit      -0.001067
 3646 Fit      -0.001097
 3647 Fit       0.003559
 3648 Fit       0.001953
 3649 Fit       0.000776
 3650 Fit      -0.000138
 3651 Fit      -0.000841
 3652 Fit      -0.001343
 3653 Fit      -0.001647
 3654 Fit      -0.001760
 3655 Fit      -0.001704
 3656 Fit      -0.001514
 3657 Fit      -0.001239
 3658 Fit      -0.000933
 3659 Fit      -0.000650
 3660 Fit      -0.000562
 3661 Fit      -0.000471
 3662 Fit      -0.000483
 3663 Fit      -0.000587
 3664 Fit      -0.000748
 3665 Fit      -0.000916
 3666 Fit      -0.001035
 3667 Fit      -0.001053
 3668 Fit      -0.000938
 3669 Fit      -0.000683
 3670 Fit      -0.000308
 3671 Fit       0.000164
 3672 Fit       0.000791
 3673 Fit       0.001905
 3674 Fit       0.004165
 3675 Fit       0.002264
 3676 Fit       0.000899
 3677 Fit      -0.000091
 3678 Fit      -0.000775
 3679 Fit      -0.001188
 3680 Fit      -0.001364
 3681 Fit      -0.001348
 3682 Fit      -0.001195
 3683 Fit      -0.000971
 3684 Fit      -0.000741
 3685 Fit      -0.000597
 3686 Fit      -0.000534
 3687 Fit      -0.000547
 3688 Fit      -0.000621
 3689 Fit      -0.000708
 3690 Fit      -0.000748
 3691 Fit      -0.000673
 3692 Fit      -0.000428
 3693 Fit       0.000031
 3694 Fit       0.000746
 3695 Fit       0.001815
 3696 Fit       0.003502
 3697 Fit       0.006380
 3698 Fit       0.006692
 3699 Fit       0.003969
 3700 Fit       0.002081
 3701 Fit       0.000763
 3702 Fit      -0.000123
 3703 Fit      -0.000659
 3704 Fit      -0.000912
 3705 Fit      -0.000954
 3706 Fit      -0.000865
 3707 Fit      -0.000723
 3708 Fit      -0.000468
 3709 Fit      -0.000432
 3710 Fit      -0.000426
 3711 Fit      -0.000420
 3712 Fit      -0.000341
 3713 Fit      -0.000099
 3714 Fit       0.000401
 3715 Fit       0.001264
 3716 Fit       0.002640
 3717 Fit       0.004803
 3718 Fit       0.008157
 3719 Fit       0.010346
 3720 Fit       0.006574
 3721 Fit       0.003863
 3722 Fit       0.001993
 3723 Fit       0.000755
 3724 Fit       0.000000
 3725 Fit      -0.000389
 3726 Fit      -0.000526
 3727 Fit      -0.000520
 3728 Fit      -0.000092
 3729 Fit      -0.000070
 3730 Fit       0.000025
 3731 Fit       0.000273
 3732 Fit       0.000820
 3733 Fit       0.001851
 3734 Fit       0.003590
 3735 Fit       0.006294
 3736 Fit       0.009895
 3737 Fit       0.010179
 3738 Fit       0.006673
 3739 Fit       0.003889
 3740 Fit       0.001996
 3741 Fit       0.000839
 3742 Fit       0.000228
 3743 Fit      -0.000027
 3744 Fit       0.000624
 3745 Fit       0.000687
 3746 Fit       0.001123
 3747 Fit       0.002154
 3748 Fit       0.004065
 3749 Fit       0.006817
 3750 Fit       0.009069
 3751 Fit       0.008611
 3752 Fit       0.006007
 3753 Fit       0.003440
 3754 Fit       0.001762
 3755 Fit       0.000916
 3756 Fit       0.001781
 3757 Fit       0.002212
 3758 Fit       0.004007
 3759 Fit       0.005891
 3760 Fit       0.004841
 3761 Fit       0.002690
 3762 Fit       0.003495
 3763 Fit       0.016244
 3764 Fit       0.017466
 3765 Fit       0.019254
 3766 Fit       0.018889
 3767 Fit       0.014592
 3768 Fit       0.012654
 3769 Fit       0.014485
 3770 Fit       0.019269
 3771 Fit       0.020848
 3772 Fit       0.021760
 3773 Fit       0.023850
 3774 Fit       0.022857
 3775 Fit       0.015263
 3776 Fit       0.008842
 3777 Fit       0.008085
 3778 Fit       0.009922
 3779 Fit       0.012378
 3780 Fit       0.015673
 3781 Fit       0.001943
 3782 Fit       0.005263
 3783 Fit       0.007854
 3784 Fit       0.010074
 3785 Fit       0.002962
 3786 Fit       0.005506
 3787 Fit       0.015858
 3788 Fit       0.014977
 3789 Fit       0.017263
 3790 Fit       0.018389
 3791 Fit       0.016197
 3792 Fit       0.014136
 3793 Fit       0.016208
 3794 Fit       0.019445
 3795 Fit       0.017375
 3796 Fit       0.013863
 3797 Fit       0.012222
 3798 Fit       0.010925
 3799 Fit       0.008252
 3800 Fit       0.009935
 3801 Fit       0.011670
 3802 Fit       0.014774
 3803 Fit       0.016607
 3804 Fit       0.014786
 3805 Fit       0.012080
 3806 Fit       0.012016
 3807 Fit       0.013719
 3808 Fit       0.013150
 3809 Fit       0.011465
 3810 Fit       0.012151
 3811 Fit       0.014104
 3812 Fit       0.013852
 3813 Fit       0.013421
 3814 Fit       0.012437
 3815 Fit       0.006691
 3816 Fit       0.005127
 3817 Fit       0.006566
 3818 Fit       0.009995
 3819 Fit       0.012546
 3820 Fit       0.013411
 3821 Fit       0.013355
 3822 Fit       0.012881
 3823 Fit       0.012217
 3824 Fit       0.012019
 3825 Fit       0.012717
 3826 Fit       0.010078
 3827 Fit       0.010083
 3828 Fit       0.011887
 3829 Fit       0.013210
 3830 Fit       0.013477
 3831 Fit       0.013320
 3832 Fit       0.013630
 3833 Fit       0.015493
 3834 Fit       0.015223
 3835 Fit       0.013790
 3836 Fit       0.012450
 3837 Fit       0.013153
 3838 Fit       0.013756
 3839 Fit       0.014335
 3840 Fit       0.013889
 3841 Fit       0.020335
 3842 Fit       0.023736
 3843 Fit       0.023071
 3844 Fit       0.019664
 3845 Fit       0.016234
 3846 Fit       0.016179
 3847 Fit       0.020810
 3848 Fit       0.026220
 3849 Fit       0.025885
 3850 Fit       0.010355
 3851 Fit       0.008875
 3852 Fit       0.012388
 3853 Fit       0.023446
 3854 Fit       0.021108
 3855 Fit       0.023768
 3856 Fit       0.023332
 3857 Fit       0.022508
 3858 Fit       0.020845
 3859 Fit       0.018211
 3860 Fit       0.020815
 3861 Fit       0.021464
 3862 Fit       0.021609
 3863 Fit       0.020990
 3864 Fit       0.019507
 3865 Fit       0.017148
 3866 Fit       0.013984
 3867 Fit       0.016995
 3868 Fit       0.018644
 3869 Fit       0.019358
 3870 Fit       0.019063
 3871 Fit       0.017746
 3872 Fit       0.015438
 3873 Fit       0.012240
 3874 Fit       0.012869
 3875 Fit       0.015136
 3876 Fit       0.016073
 3877 Fit       0.015734
 3878 Fit       0.014156
 3879 Fit       0.011388
 3880 Fit       0.007556
 3881 Fit       0.010761
 3882 Fit       0.011324
 3883 Fit       0.010307
 3884 Fit       0.007681
 3885 Fit       0.003389
 3886 Fit       0.004464
 3887 Fit       0.002847
 3888 Fit       0.001739
 3889 Fit       0.000445
 3890 Fit      -0.002384
 3891 Fit       0.004504
 3892 Fit      -0.002435
 3893 Fit       0.003627
 3894 Fit       0.001579
 3895 Fit      -0.002016
 3896 Fit      -0.009333
 3897 Fit       0.007352
 3898 Fit       0.006967
 3899 Fit       0.005079
 3900 Fit       0.001052
 3901 Fit      -0.006118
 3902 Fit       0.010824
 3903 Fit       0.010386
 3904 Fit       0.008787
 3905 Fit       0.005595
 3906 Fit       0.000308
 3907 Fit      -0.007632
 3908 Fit       0.013108
 3909 Fit       0.012992
 3910 Fit       0.012119
 3911 Fit       0.010156
 3912 Fit       0.006855
 3913 Fit       0.002122
 3914 Fit      -0.003696
 3915 Fit       0.014243
 3916 Fit       0.014199
 3917 Fit       0.013379
 3918 Fit       0.011425
 3919 Fit       0.008247
 3920 Fit       0.004259
 3921 Fit       0.000774
 3922 Fit       0.014223
 3923 Fit       0.014112
 3924 Fit       0.012721
 3925 Fit       0.009990
 3926 Fit       0.006890
 3927 Fit       0.012836
 3928 Fit       0.010614
 -----------------------------------------------------------------
 Leave Link  602 at Thu Jan 16 22:40:54 2014, MaxMem=   235929600 cpu:         1.7

 Test job not archived.
 1\1\GINC-G59\SP\RHF\Gen\C10H9Br1N2O3\KOLAR\16-Jan-2014\0\\# hf/gen pop
 =mk iop(6/33=2,6/41=5,6/42=2)\\na resp\\0,1\C,0,0.588091,-0.646483,1.2
 55735\C,0,1.955013,-0.379628,1.176292\C,0,2.542464,-0.216304,-0.076323
 \C,0,1.789719,-0.3216,-1.245547\C,0,0.426197,-0.593475,-1.152164\C,0,-
 0.187886,-0.750204,0.096811\C,0,-1.642317,-1.085069,0.172805\H,0,-1.94
 1554,-2.036599,-0.270578\C,0,-2.744001,-0.071526,0.209648\O,0,-2.34521
 3,-0.800803,1.379617\C,0,-2.413243,1.411247,0.218013\O,0,-2.661769,2.1
 33225,-0.748435\N,0,-1.848714,1.855401,1.360748\C,0,-4.074042,-0.55494
 9,-0.393105\O,0,-4.4512,-1.698045,-0.185279\N,0,-4.727241,0.351447,-1.
 157513\Br,0,4.41329,0.154628,-0.194823\H,0,0.121161,-0.789899,2.225655
 \H,0,2.557214,-0.304104,2.075167\H,0,2.262437,-0.191246,-2.212791\H,0,
 -0.16416,-0.675727,-2.061191\H,0,-1.65036,1.213672,2.113851\H,0,-1.556
 958,2.820585,1.418648\H,0,-4.280004,1.234208,-1.386828\H,0,-5.555749,0
 .042129,-1.646003\\Version=AM64L-G09RevD.01\State=1-A\HF=-3286.9903867
 \RMSD=8.074e-09\Dipole=0.5383701,0.7439063,0.0981488\Quadrupole=-7.851
 3503,-2.7420694,10.5934196,-7.4744365,5.0514379,5.7368524\PG=C01 [X(C1
 0H9Br1N2O3)]\\@


 THE TRULY SUCCESSFUL PERFORMANCE OF RESEARCHES IN
 INORGANIC CHEMISTRY IS POSSIBLE ONLY TO ONE WHO IS NOT
 ONLY A THEORETICAL CHEMIST, BUT ALSO AN ACCOMPLISHED
 ANALYST AND, MOREOVER, NOT MERELY A PRACTICALLY TRAINED,
 MECHANICAL WORKER, BUT A THINKING CREATIVE ARTIST.
   --  CLEMENS WINKLER, BER. 33, 1697(1900)
 Job cpu time:       0 days  0 hours  4 minutes  6.8 seconds.
 File lengths (MBytes):  RWF=     37 Int=      0 D2E=      0 Chk=      3 Scr=      1
 Normal termination of Gaussian 09 at Thu Jan 16 22:40:54 2014.
246.52user 0.34system 4:07.30elapsed 99%CPU (0avgtext+0avgdata 603552maxresident)k
24inputs+185776outputs (0major+172843minor)pagefaults 0swaps
