Linux g42 2.6.38.6-client #1 SMP Tue Jun 12 11:27:21 CEST 2012 x86_64 GNU/Linux
Fri Jan 17 11:54:31 CET 2014

 Entering Gaussian System, Link 0=/usr/local/programs/common/gaussian/gaussian09_d01/arch/amd64-pgi_10.4.0-acml/g09/g09
 Initial command:
 /usr/local/programs/common/gaussian/gaussian09_d01/arch/amd64-pgi_10.4.0-acml/g09/l1.exe "/scratch/kolar/g09_20010/Gau-20598.inp" -scrdir="/scratch/kolar/g09_20010/"
 Entering Link 1 = /usr/local/programs/common/gaussian/gaussian09_d01/arch/amd64-pgi_10.4.0-acml/g09/l1.exe PID=     20601.
  
 Copyright (c) 1988,1990,1992,1993,1995,1998,2003,2009,2013,
            Gaussian, Inc.  All Rights Reserved.
  
 This is part of the Gaussian(R) 09 program.  It is based on
 the Gaussian(R) 03 system (copyright 2003, Gaussian, Inc.),
 the Gaussian(R) 98 system (copyright 1998, Gaussian, Inc.),
 the Gaussian(R) 94 system (copyright 1995, Gaussian, Inc.),
 the Gaussian 92(TM) system (copyright 1992, Gaussian, Inc.),
 the Gaussian 90(TM) system (copyright 1990, Gaussian, Inc.),
 the Gaussian 88(TM) system (copyright 1988, Gaussian, Inc.),
 the Gaussian 86(TM) system (copyright 1986, Carnegie Mellon
 University), and the Gaussian 82(TM) system (copyright 1983,
 Carnegie Mellon University). Gaussian is a federally registered
 trademark of Gaussian, Inc.
  
 This software contains proprietary and confidential information,
 including trade secrets, belonging to Gaussian, Inc.
  
 This software is provided under written license and may be
 used, copied, transmitted, or stored only in accord with that
 written license.
  
 The following legend is applicable only to US Government
 contracts under FAR:
  
                    RESTRICTED RIGHTS LEGEND
  
 Use, reproduction and disclosure by the US Government is
 subject to restrictions as set forth in subparagraphs (a)
 and (c) of the Commercial Computer Software - Restricted
 Rights clause in FAR 52.227-19.
  
 Gaussian, Inc.
 340 Quinnipiac St., Bldg. 40, Wallingford CT 06492
  
  
 ---------------------------------------------------------------
 Warning -- This program may not be used in any manner that
 competes with the business of Gaussian, Inc. or will provide
 assistance to any competitor of Gaussian, Inc.  The licensee
 of this program is prohibited from giving any competitor of
 Gaussian, Inc. access to this program.  By using this program,
 the user acknowledges that Gaussian, Inc. is engaged in the
 business of creating and licensing software in the field of
 computational chemistry and represents and warrants to the
 licensee that it is not a competitor of Gaussian, Inc. and that
 it will not use this program in any manner prohibited above.
 ---------------------------------------------------------------
  

 Cite this work as:
 Gaussian 09, Revision D.01,
 M. J. Frisch, G. W. Trucks, H. B. Schlegel, G. E. Scuseria, 
 M. A. Robb, J. R. Cheeseman, G. Scalmani, V. Barone, B. Mennucci, 
 G. A. Petersson, H. Nakatsuji, M. Caricato, X. Li, H. P. Hratchian, 
 A. F. Izmaylov, J. Bloino, G. Zheng, J. L. Sonnenberg, M. Hada, 
 M. Ehara, K. Toyota, R. Fukuda, J. Hasegawa, M. Ishida, T. Nakajima, 
 Y. Honda, O. Kitao, H. Nakai, T. Vreven, J. A. Montgomery, Jr., 
 J. E. Peralta, F. Ogliaro, M. Bearpark, J. J. Heyd, E. Brothers, 
 K. N. Kudin, V. N. Staroverov, T. Keith, R. Kobayashi, J. Normand, 
 K. Raghavachari, A. Rendell, J. C. Burant, S. S. Iyengar, J. Tomasi, 
 M. Cossi, N. Rega, J. M. Millam, M. Klene, J. E. Knox, J. B. Cross, 
 V. Bakken, C. Adamo, J. Jaramillo, R. Gomperts, R. E. Stratmann, 
 O. Yazyev, A. J. Austin, R. Cammi, C. Pomelli, J. W. Ochterski, 
 R. L. Martin, K. Morokuma, V. G. Zakrzewski, G. A. Voth, 
 P. Salvador, J. J. Dannenberg, S. Dapprich, A. D. Daniels, 
 O. Farkas, J. B. Foresman, J. V. Ortiz, J. Cioslowski, 
 and D. J. Fox, Gaussian, Inc., Wallingford CT, 2013.
 
 ******************************************
 Gaussian 09:  AM64L-G09RevD.01 24-Apr-2013
                17-Jan-2014 
 ******************************************
 %mem=1800mb
 ------------------------------------------------------------------
 # hf/gen pseudo=read pop=(mk, readradii) iop(6/33=2,6/41=5,6/42=2)
 ------------------------------------------------------------------
 1/38=1/1;
 2/12=2,17=6,18=5,40=1/2;
 3/5=7,11=9,16=1,17=8,25=1,30=1/1,2,3;
 4//1;
 5/5=2,38=5/2;
 6/7=2,8=2,9=2,10=2,15=8,20=101,28=1,33=2,41=5,42=2/1,2;
 99/5=1,9=1/99;
 -------
 na resp
 -------
 Symbolic Z-matrix:
 Charge =  0 Multiplicity = 1
 6                     6.89799  -1.16537  -0.0005 
 6                     7.28226   0.17599  -0.00062 
 6                     6.28617   1.15527  -0.00035 
 7                     4.98051   0.87068   0.00001 
 6                     4.62043  -0.42392   0.00014 
 6                     5.53986  -1.47569  -0.00011 
 6                     3.14541  -0.75113   0.00059 
 8                     2.73269  -1.89855   0.00049 
 7                     2.35894   0.3798    0.00055 
 7                     1.00832   0.30572   0.00065 
 6                     0.37704   1.42816   0.00051 
 6                    -1.06087   1.50938   0.0002 
 6                    -1.90057   2.59728  -0.00039 
 6                    -3.23415   2.09081   0.00009 
 6                    -3.10404   0.73127  -0.00011 
 8                    -1.80331   0.35549   0.00007 
 53                   -4.54051  -0.79178  -0.00015 
 1                     7.64417  -1.95506  -0.0007 
 1                     8.32931   0.46312  -0.00093 
 1                     6.54788   2.21166  -0.00044 
 1                     5.17068  -2.49487   0.00002 
 1                     2.84851   1.27613   0.00043 
 1                     0.89566   2.39587   0.00023 
 1                    -1.59832   3.63574  -0.00065 
 1                    -4.15769   2.65027   0.00017 
 
                          Input orientation:                          
 ---------------------------------------------------------------------
 Center     Atomic      Atomic             Coordinates (Angstroms)
 Number     Number       Type             X           Y           Z
 ---------------------------------------------------------------------
      1          6           0        6.897994   -1.165374   -0.000498
      2          6           0        7.282259    0.175990   -0.000623
      3          6           0        6.286168    1.155268   -0.000346
      4          7           0        4.980510    0.870680    0.000014
      5          6           0        4.620432   -0.423916    0.000138
      6          6           0        5.539864   -1.475692   -0.000107
      7          6           0        3.145410   -0.751133    0.000586
      8          8           0        2.732688   -1.898546    0.000492
      9          7           0        2.358940    0.379802    0.000546
     10          7           0        1.008322    0.305721    0.000647
     11          6           0        0.377038    1.428155    0.000507
     12          6           0       -1.060871    1.509375    0.000202
     13          6           0       -1.900568    2.597284   -0.000386
     14          6           0       -3.234148    2.090807    0.000085
     15          6           0       -3.104041    0.731272   -0.000109
     16          8           0       -1.803314    0.355493    0.000066
     17         53           0       -4.540505   -0.791775   -0.000146
     18          1           0        7.644165   -1.955059   -0.000703
     19          1           0        8.329306    0.463115   -0.000925
     20          1           0        6.547875    2.211664   -0.000437
     21          1           0        5.170682   -2.494866    0.000015
     22          1           0        2.848507    1.276132    0.000426
     23          1           0        0.895659    2.395873    0.000232
     24          1           0       -1.598323    3.635735   -0.000649
     25          1           0       -4.157691    2.650266    0.000169
 ---------------------------------------------------------------------
                    Distance matrix (angstroms):
                    1          2          3          4          5
     1  C    0.000000
     2  C    1.395320   0.000000
     3  C    2.399940   1.396847   0.000000
     4  N    2.796831   2.404297   1.336313   0.000000
     5  C    2.395214   2.728591   2.295321   1.343739   0.000000
     6  C    1.393131   2.400832   2.734761   2.412123   1.396992
     7  C    3.775379   4.239467   3.674061   2.449055   1.510881
     8  O    4.229340   5.000230   4.685403   3.566695   2.395435
     9  N    4.794849   4.927536   4.003057   2.667132   2.400064
    10  N    6.070614   6.275278   5.345782   4.012164   3.685066
    11  C    7.017782   7.017834   5.915428   4.637104   4.629963
    12  C    8.396298   8.449008   7.355568   6.075049   6.001235
    13  C    9.569341   9.496682   8.312765   7.094392   7.186869
    14  C   10.642510  10.689310   9.566172   8.304777   8.247318
    15  C   10.180274  10.401133   9.399776   8.085753   7.810374
    16  O    8.833221   9.087346   8.128921   6.803358   6.470857
    17  I   11.444599  11.862307  11.000356   9.665065   9.168320
    18  H    1.086450   2.161561   3.393861   3.883279   3.389301
    19  H    2.168094   1.085702   2.157195   3.373506   3.813472
    20  H    3.395139   2.164091   1.088330   2.062734   3.265167
    21  H    2.179715   3.404736   3.816777   3.370915   2.142804
    22  H    4.728562   4.568202   3.439785   2.170214   2.455582
    23  H    6.979291   6.761401   5.531427   4.360301   4.671739
    24  H    9.758998   9.530717   8.265465   7.136286   7.426552
    25  H   11.695609  11.704465  10.550318   9.309868   9.300862
                    6          7          8          9         10
     6  C    0.000000
     7  C    2.501679   0.000000
     8  O    2.838845   1.219383   0.000000
     9  N    3.682545   1.377516   2.308800   0.000000
    10  N    4.869118   2.384132   2.798612   1.352648   0.000000
    11  C    5.923437   3.523234   4.076276   2.242093   1.287780
    12  C    7.244331   4.775217   5.099511   3.601533   2.393813
    13  C    8.482285   6.055889   6.455970   4.802149   3.703094
    14  C    9.471177   6.983938   7.177609   5.848946   4.602726
    15  C    8.921199   6.422863   6.401824   5.474276   4.134323
    16  O    7.568058   5.070946   5.065176   4.162325   2.812077
    17  I   10.103543   7.686022   7.356920   6.998209   5.656322
    18  H    2.158211   4.657063   4.911802   5.777991   7.010388
    19  H    3.397052   5.324207   6.074502   5.970947   7.322676
    20  H    3.822654   4.511644   5.607984   4.571968   5.858265
    21  H    1.083979   2.672514   2.509863   4.021145   5.016825
    22  H    3.849148   2.048891   3.176790   1.021315   2.080379
    23  H    6.046293   3.868466   4.670836   2.491131   2.093186
    24  H    8.779544   6.461239   7.027512   5.124552   4.228900
    25  H   10.538790   8.056352   8.256453   6.900832   5.673146
                   11         12         13         14         15
    11  C    0.000000
    12  C    1.440201   0.000000
    13  C    2.560147   1.374277   0.000000
    14  C    3.671481   2.249710   1.426518   0.000000
    15  C    3.550149   2.186318   2.220439   1.365746   0.000000
    16  O    2.429926   1.372103   2.243900   2.249133   1.353920
    17  I    5.395398   4.171708   4.295927   3.164782   2.093586
    18  H    8.016063   9.369096  10.574770  11.606323  11.078822
    19  H    8.010610   9.448285  10.450120  11.677451  11.436491
    20  H    6.220379   7.641088   8.457239   9.782770   9.764786
    21  H    6.194281   7.407172   8.713930   9.574422   8.881385
    22  H    2.476140   3.916330   4.929417   6.136969   5.977433
    23  H    1.097928   2.147996   2.803471   4.141059   4.332262
    24  H    2.962341   2.193231   1.081542   2.250050   3.271558
    25  H    4.696522   3.300292   2.257745   1.079781   2.189227
                   16         17         18         19         20
    16  O    0.000000
    17  I    2.967901   0.000000
    18  H    9.725920  12.240074   0.000000
    19  H   10.133192  12.930846   2.513361   0.000000
    20  H    8.554983  11.487942   4.308530   2.496181   0.000000
    21  H    7.534001   9.859395   2.531701   4.327419   4.903885
    22  H    4.742048   7.672922   5.782641   5.540772   3.815828
    23  H    3.383431   6.301823   8.029505   7.680798   5.655217
    24  H    3.286641   5.315946  10.801878  10.422252   8.269735
    25  H    3.287716   3.463263  12.668576  12.677094  10.714547
                   21         22         23         24         25
    21  H    0.000000
    22  H    4.428648   0.000000
    23  H    6.495779   2.251096   0.000000
    24  H    9.132562   5.034086   2.785176   0.000000
    25  H   10.653212   7.139682   5.059749   2.742538   0.000000
 Stoichiometry    C11H8IN3O2
 Framework group  C1[X(C11H8IN3O2)]
 Deg. of freedom    69
 Full point group                 C1      NOp   1
 Largest Abelian subgroup         C1      NOp   1
 Largest concise Abelian subgroup C1      NOp   1
                         Standard orientation:                         
 ---------------------------------------------------------------------
 Center     Atomic      Atomic             Coordinates (Angstroms)
 Number     Number       Type             X           Y           Z
 ---------------------------------------------------------------------
      1          6           0       -6.897994   -1.165374    0.000498
      2          6           0       -7.282259    0.175990    0.000623
      3          6           0       -6.286168    1.155268    0.000346
      4          7           0       -4.980510    0.870680   -0.000014
      5          6           0       -4.620432   -0.423916   -0.000138
      6          6           0       -5.539864   -1.475692    0.000107
      7          6           0       -3.145410   -0.751133   -0.000586
      8          8           0       -2.732688   -1.898546   -0.000492
      9          7           0       -2.358940    0.379802   -0.000546
     10          7           0       -1.008322    0.305721   -0.000647
     11          6           0       -0.377038    1.428155   -0.000507
     12          6           0        1.060871    1.509375   -0.000202
     13          6           0        1.900568    2.597284    0.000386
     14          6           0        3.234148    2.090807   -0.000085
     15          6           0        3.104041    0.731272    0.000109
     16          8           0        1.803314    0.355493   -0.000066
     17         53           0        4.540505   -0.791775    0.000146
     18          1           0       -7.644165   -1.955059    0.000703
     19          1           0       -8.329306    0.463115    0.000925
     20          1           0       -6.547875    2.211664    0.000437
     21          1           0       -5.170682   -2.494866   -0.000015
     22          1           0       -2.848507    1.276132   -0.000426
     23          1           0       -0.895659    2.395873   -0.000232
     24          1           0        1.598323    3.635735    0.000649
     25          1           0        4.157691    2.650266   -0.000169
 ---------------------------------------------------------------------
 Rotational constants (GHZ):      1.1167496      0.0823308      0.0766778
 General basis read from cards:  (5D, 7F)
 ======================================================================================================
                                       Pseudopotential Parameters
 ======================================================================================================
  Center     Atomic      Valence      Angular      Power
  Number     Number     Electrons     Momentum     of R      Exponent        Coefficient   SO-Coeffient
 ======================================================================================================
    1          6
                                   No pseudopotential on this center.
    2          6
                                   No pseudopotential on this center.
    3          6
                                   No pseudopotential on this center.
    4          7
                                   No pseudopotential on this center.
    5          6
                                   No pseudopotential on this center.
    6          6
                                   No pseudopotential on this center.
    7          6
                                   No pseudopotential on this center.
    8          8
                                   No pseudopotential on this center.
    9          7
                                   No pseudopotential on this center.
   10          7
                                   No pseudopotential on this center.
   11          6
                                   No pseudopotential on this center.
   12          6
                                   No pseudopotential on this center.
   13          6
                                   No pseudopotential on this center.
   14          6
                                   No pseudopotential on this center.
   15          6
                                   No pseudopotential on this center.
   16          8
                                   No pseudopotential on this center.
   17         53            7
                                      F and up 
                                                     0        1.0715702       -0.07476210    0.00000000
                                                     1       44.1936028      -30.08112240    0.00000000
                                                     2       12.9367609      -75.37227210    0.00000000
                                                     2        3.1956412      -22.05637580    0.00000000
                                                     2        0.8589806       -1.69795850    0.00000000
                                      S - F
                                                     0      127.9202670        2.93800360    0.00000000
                                                     1       78.6211465       41.24712670    0.00000000
                                                     2       36.5146237      287.86800950    0.00000000
                                                     2        9.9065681      114.37585060    0.00000000
                                                     2        1.9420086       37.65477140    0.00000000
                                      P - F
                                                     0       13.0035304        2.22226300    0.00000000
                                                     1       76.0331404       39.40908310    0.00000000
                                                     2       24.1961684      177.40750020    0.00000000
                                                     2        6.4053433       77.98894620    0.00000000
                                                     2        1.5851786       25.75476410    0.00000000
                                      D - F
                                                     0       40.4278108        7.05243600    0.00000000
                                                     1       28.9084375       33.30416350    0.00000000
                                                     2       15.6268936      186.94538750    0.00000000
                                                     2        4.1442856       71.96883610    0.00000000
                                                     2        0.9377235        9.36306570    0.00000000
   18          1
                                   No pseudopotential on this center.
   19          1
                                   No pseudopotential on this center.
   20          1
                                   No pseudopotential on this center.
   21          1
                                   No pseudopotential on this center.
   22          1
                                   No pseudopotential on this center.
   23          1
                                   No pseudopotential on this center.
   24          1
                                   No pseudopotential on this center.
   25          1
                                   No pseudopotential on this center.
 ======================================================================================================
 There are   264 symmetry adapted cartesian basis functions of A   symmetry.
 There are   248 symmetry adapted basis functions of A   symmetry.
   248 basis functions,   492 primitive gaussians,   264 cartesian basis functions
    59 alpha electrons       59 beta electrons
       nuclear repulsion energy      1010.6044298104 Hartrees.
 NAtoms=   25 NActive=   25 NUniq=   25 SFac= 1.00D+00 NAtFMM=   60 NAOKFM=F Big=F
 Integral buffers will be    131072 words long.
 Raffenetti 1 integral format.
 Two-electron integral symmetry is turned on.
 One-electron integrals computed using PRISM.
   1 Symmetry operations used in ECPInt.
 ECPInt:  NShTT=    3570 NPrTT=   23319 LenC2=    2924 LenP2D=   11366.
 LDataN:  DoStor=T MaxTD1= 5 Len=  102
 NBasis=   248 RedAO= T EigKep=  8.08D-04  NBF=   248
 NBsUse=   248 1.00D-06 EigRej= -1.00D+00 NBFU=   248
 ExpMin= 1.05D-01 ExpMax= 5.48D+03 ExpMxC= 8.25D+02 IAcc=1 IRadAn=         1 AccDes= 0.00D+00
 Harris functional with IExCor=  205 and IRadAn=       1 diagonalized for initial guess.
 HarFok:  IExCor=  205 AccDes= 0.00D+00 IRadAn=         1 IDoV= 1 UseB2=F ITyADJ=14
 ICtDFT=  3500011 ScaDFX=  1.000000  1.000000  1.000000  1.000000
 Defaulting to unpruned grid for atomic number  53.
 FoFCou: FMM=F IPFlag=           0 FMFlag=      100000 FMFlg1=           0
         NFxFlg=           0 DoJE=T BraDBF=F KetDBF=T FulRan=T
         wScrn=  0.000000 ICntrl=     500 IOpCl=  0 I1Cent=   200000004 NGrid=           0
         NMat0=    1 NMatS0=      1 NMatT0=    0 NMatD0=    1 NMtDS0=    0 NMtDT0=    0
 Petite list used in FoFCou.
 Requested convergence on RMS density matrix=1.00D-08 within 128 cycles.
 Requested convergence on MAX density matrix=1.00D-06.
 Requested convergence on             energy=1.00D-06.
 No special actions if energy rises.
 Integral accuracy reduced to 1.0D-05 until final iterations.
 Initial convergence to 1.0D-05 achieved.  Increase integral accuracy.
 SCF Done:  E(RHF) =  -745.360330221     A.U. after   16 cycles
            NFock= 16  Conv=0.67D-08     -V/T= 2.0126

 **********************************************************************

            Population analysis using the SCF density.

 **********************************************************************

 Orbital symmetries:
 BldTbl:  Degeneracy threshold= 1.00D-02
       Occupied  (A) (A) (A) (A) (A) (A) (A) (A) (A) (A) (A) (A)
                 (A) (A) (A) (A) (A) (A) (A) (A) (A) (A) (A) (A)
                 (A) (A) (A) (A) (A) (A) (A) (A) (A) (A) (A) (A)
                 (A) (A) (A) (A) (A) (A) (A) (A) (A) (A) (A) (A)
                 (A) (A) (A) (A) (A) (A) (A) (A) (A) (A) (A)
       Virtual   (A) (A) (A) (A) (A) (A) (A) (A) (A) (A) (A) (A)
                 (A) (A) (A) (A) (A) (A) (A) (A) (A) (A) (A) (A)
                 (A) (A) (A) (A) (A) (A) (A) (A) (A) (A) (A) (A)
                 (A) (A) (A) (A) (A) (A) (A) (A) (A) (A) (A) (A)
                 (A) (A) (A) (A) (A) (A) (A) (A) (A) (A) (A) (A)
                 (A) (A) (A) (A) (A) (A) (A) (A) (A) (A) (A) (A)
                 (A) (A) (A) (A) (A) (A) (A) (A) (A) (A) (A) (A)
                 (A) (A) (A) (A) (A) (A) (A) (A) (A) (A) (A) (A)
                 (A) (A) (A) (A) (A) (A) (A) (A) (A) (A) (A) (A)
                 (A) (A) (A) (A) (A) (A) (A) (A) (A) (A) (A) (A)
                 (A) (A) (A) (A) (A) (A) (A) (A) (A) (A) (A) (A)
                 (A) (A) (A) (A) (A) (A) (A) (A) (A) (A) (A) (A)
                 (A) (A) (A) (A) (A) (A) (A) (A) (A) (A) (A) (A)
                 (A) (A) (A) (A) (A) (A) (A) (A) (A) (A) (A) (A)
                 (A) (A) (A) (A) (A) (A) (A) (A) (A) (A) (A) (A)
                 (A) (A) (A) (A) (A) (A) (A) (A) (A)
 The electronic state is 1-A.
 Alpha  occ. eigenvalues --  -20.64200 -20.53218 -15.62585 -15.62330 -15.59662
 Alpha  occ. eigenvalues --  -11.36275 -11.34288 -11.30953 -11.29803 -11.29490
 Alpha  occ. eigenvalues --  -11.29350 -11.27435 -11.26284 -11.25752 -11.25088
 Alpha  occ. eigenvalues --  -11.24815  -1.47446  -1.39405  -1.32951  -1.28075
 Alpha  occ. eigenvalues --   -1.14773  -1.10348  -1.10111  -1.06037  -1.03148
 Alpha  occ. eigenvalues --   -0.92968  -0.89437  -0.87581  -0.85114  -0.81844
 Alpha  occ. eigenvalues --   -0.79894  -0.77919  -0.75758  -0.71304  -0.69481
 Alpha  occ. eigenvalues --   -0.67134  -0.66305  -0.65258  -0.63079  -0.61391
 Alpha  occ. eigenvalues --   -0.61195  -0.60339  -0.59006  -0.58312  -0.56980
 Alpha  occ. eigenvalues --   -0.55685  -0.54404  -0.50157  -0.49568  -0.46860
 Alpha  occ. eigenvalues --   -0.44654  -0.41976  -0.41680  -0.41386  -0.39832
 Alpha  occ. eigenvalues --   -0.37885  -0.36688  -0.35863  -0.28814
 Alpha virt. eigenvalues --    0.06911   0.09988   0.11009   0.11599   0.19848
 Alpha virt. eigenvalues --    0.22781   0.23311   0.24416   0.26705   0.27462
 Alpha virt. eigenvalues --    0.27962   0.28764   0.30340   0.31404   0.32269
 Alpha virt. eigenvalues --    0.34328   0.36365   0.36994   0.39810   0.40825
 Alpha virt. eigenvalues --    0.42812   0.46162   0.47056   0.47497   0.49203
 Alpha virt. eigenvalues --    0.50249   0.52639   0.53688   0.54577   0.56038
 Alpha virt. eigenvalues --    0.59733   0.60429   0.62899   0.64031   0.67093
 Alpha virt. eigenvalues --    0.70610   0.72427   0.72528   0.73670   0.74071
 Alpha virt. eigenvalues --    0.76221   0.77903   0.78352   0.79521   0.79761
 Alpha virt. eigenvalues --    0.80833   0.80952   0.81522   0.82579   0.83612
 Alpha virt. eigenvalues --    0.83791   0.85771   0.86451   0.86568   0.87062
 Alpha virt. eigenvalues --    0.89653   0.90584   0.91824   0.92885   0.93365
 Alpha virt. eigenvalues --    0.96939   0.97571   1.00500   1.03294   1.04306
 Alpha virt. eigenvalues --    1.06485   1.07427   1.07782   1.08388   1.08457
 Alpha virt. eigenvalues --    1.09196   1.10262   1.11122   1.11550   1.13410
 Alpha virt. eigenvalues --    1.14765   1.14822   1.16798   1.19220   1.20953
 Alpha virt. eigenvalues --    1.22099   1.24219   1.25862   1.27103   1.28399
 Alpha virt. eigenvalues --    1.29391   1.31198   1.32857   1.34200   1.34625
 Alpha virt. eigenvalues --    1.38368   1.38634   1.44899   1.47386   1.48206
 Alpha virt. eigenvalues --    1.51251   1.51418   1.52235   1.54707   1.54991
 Alpha virt. eigenvalues --    1.58127   1.58320   1.61743   1.63084   1.64506
 Alpha virt. eigenvalues --    1.67979   1.68002   1.69719   1.72419   1.73159
 Alpha virt. eigenvalues --    1.73889   1.74578   1.75377   1.77248   1.77310
 Alpha virt. eigenvalues --    1.81536   1.82598   1.87685   1.91306   1.94267
 Alpha virt. eigenvalues --    1.95968   1.96963   2.06211   2.06481   2.09663
 Alpha virt. eigenvalues --    2.10943   2.12326   2.15539   2.15682   2.19506
 Alpha virt. eigenvalues --    2.21102   2.21470   2.23345   2.25375   2.25962
 Alpha virt. eigenvalues --    2.28539   2.31229   2.31861   2.36108   2.37561
 Alpha virt. eigenvalues --    2.40338   2.41320   2.42870   2.46699   2.47226
 Alpha virt. eigenvalues --    2.49645   2.49807   2.50691   2.53201   2.53243
 Alpha virt. eigenvalues --    2.56421   2.58357   2.58710   2.61958   2.63287
 Alpha virt. eigenvalues --    2.64230   2.66289   2.69537   2.74902   2.76748
 Alpha virt. eigenvalues --    2.78886   2.79600   2.86464   2.89384   2.90372
 Alpha virt. eigenvalues --    2.92675   2.93954   2.97471   2.97823   2.99576
 Alpha virt. eigenvalues --    2.99876   3.05102   3.07250   3.07660   3.09966
 Alpha virt. eigenvalues --    3.15692   3.17225   3.19951   3.22221   3.26708
 Alpha virt. eigenvalues --    3.28188   3.34862   3.36441   3.49614   3.55506
 Alpha virt. eigenvalues --    3.63087   3.63316   3.80438   9.97177
          Condensed to atoms (all electrons):
               1          2          3          4          5          6
     1  C    4.892755   0.531501  -0.048666  -0.024058  -0.050429   0.514877
     2  C    0.531501   5.005838   0.530870  -0.049110  -0.025194  -0.040399
     3  C   -0.048666   0.530870   4.675354   0.485896  -0.072037  -0.025471
     4  N   -0.024058  -0.049110   0.485896   6.913815   0.431310  -0.070946
     5  C   -0.050429  -0.025194  -0.072037   0.431310   4.831019   0.518013
     6  C    0.514877  -0.040399  -0.025471  -0.070946   0.518013   5.010965
     7  C    0.002357  -0.000164   0.001597  -0.046956   0.387247  -0.050007
     8  O    0.000583  -0.000005  -0.000056   0.001971  -0.088130   0.006861
     9  N   -0.000069  -0.000004  -0.000358  -0.019164  -0.107484   0.006578
    10  N    0.000000   0.000000   0.000005   0.000272   0.004097  -0.000069
    11  C    0.000000   0.000000  -0.000001  -0.000116  -0.000086  -0.000001
    12  C    0.000000   0.000000   0.000000   0.000000   0.000000   0.000000
    13  C    0.000000   0.000000   0.000000   0.000000   0.000000   0.000000
    14  C    0.000000   0.000000   0.000000   0.000000   0.000000   0.000000
    15  C    0.000000   0.000000   0.000000   0.000000   0.000000   0.000000
    16  O    0.000000   0.000000   0.000000   0.000000   0.000000   0.000000
    17  I    0.000000   0.000000   0.000000   0.000000   0.000000   0.000000
    18  H    0.383465  -0.029326   0.002154  -0.000119   0.001809  -0.027500
    19  H   -0.027067   0.377262  -0.025302   0.002923   0.000124   0.002083
    20  H    0.002502  -0.048016   0.402522  -0.041154   0.003270  -0.000345
    21  H   -0.027154   0.002331  -0.000141   0.002903  -0.020258   0.370007
    22  H   -0.000007   0.000073   0.000024   0.023791  -0.003687   0.000395
    23  H    0.000000   0.000000   0.000000  -0.000118   0.000051   0.000000
    24  H    0.000000   0.000000   0.000000   0.000000   0.000000   0.000000
    25  H    0.000000   0.000000   0.000000   0.000000   0.000000   0.000000
               7          8          9         10         11         12
     1  C    0.002357   0.000583  -0.000069   0.000000   0.000000   0.000000
     2  C   -0.000164  -0.000005  -0.000004   0.000000   0.000000   0.000000
     3  C    0.001597  -0.000056  -0.000358   0.000005  -0.000001   0.000000
     4  N   -0.046956   0.001971  -0.019164   0.000272  -0.000116   0.000000
     5  C    0.387247  -0.088130  -0.107484   0.004097  -0.000086   0.000000
     6  C   -0.050007   0.006861   0.006578  -0.000069  -0.000001   0.000000
     7  C    4.055577   0.634411   0.239288  -0.042936   0.004912  -0.000044
     8  O    0.634411   8.122547  -0.093951   0.005411   0.000511  -0.000009
     9  N    0.239288  -0.093951   7.307919   0.177091  -0.104461   0.004996
    10  N   -0.042936   0.005411   0.177091   6.604863   0.553173  -0.062061
    11  C    0.004912   0.000511  -0.104461   0.553173   4.829449   0.409967
    12  C   -0.000044  -0.000009   0.004996  -0.062061   0.409967   4.628635
    13  C    0.000000   0.000000  -0.000054   0.002160  -0.057414   0.600729
    14  C    0.000000   0.000000   0.000002  -0.000150   0.005439  -0.042133
    15  C    0.000000   0.000000  -0.000003   0.000312  -0.000459  -0.141563
    16  O   -0.000001   0.000000  -0.000028  -0.002168  -0.031660   0.296146
    17  I    0.000000   0.000000   0.000000  -0.000026   0.000156   0.006030
    18  H   -0.000051  -0.000001   0.000001   0.000000   0.000000   0.000000
    19  H    0.000007   0.000000   0.000000   0.000000   0.000000   0.000000
    20  H    0.000010   0.000000   0.000025   0.000000   0.000000   0.000000
    21  H   -0.001815   0.008447   0.000279  -0.000001   0.000000   0.000000
    22  H   -0.026677   0.001437   0.298663  -0.020000  -0.003262  -0.000782
    23  H   -0.000328  -0.000003  -0.006241  -0.038871   0.381415  -0.053499
    24  H    0.000000   0.000000  -0.000001  -0.000001   0.000998  -0.023371
    25  H    0.000000   0.000000   0.000000   0.000000  -0.000028   0.003249
              13         14         15         16         17         18
     1  C    0.000000   0.000000   0.000000   0.000000   0.000000   0.383465
     2  C    0.000000   0.000000   0.000000   0.000000   0.000000  -0.029326
     3  C    0.000000   0.000000   0.000000   0.000000   0.000000   0.002154
     4  N    0.000000   0.000000   0.000000   0.000000   0.000000  -0.000119
     5  C    0.000000   0.000000   0.000000   0.000000   0.000000   0.001809
     6  C    0.000000   0.000000   0.000000   0.000000   0.000000  -0.027500
     7  C    0.000000   0.000000   0.000000  -0.000001   0.000000  -0.000051
     8  O    0.000000   0.000000   0.000000   0.000000   0.000000  -0.000001
     9  N   -0.000054   0.000002  -0.000003  -0.000028   0.000000   0.000001
    10  N    0.002160  -0.000150   0.000312  -0.002168  -0.000026   0.000000
    11  C   -0.057414   0.005439  -0.000459  -0.031660   0.000156   0.000000
    12  C    0.600729  -0.042133  -0.141563   0.296146   0.006030   0.000000
    13  C    5.059607   0.439286  -0.048618  -0.090445  -0.000405   0.000000
    14  C    0.439286   4.997828   0.598626  -0.063342  -0.042580   0.000000
    15  C   -0.048618   0.598626   5.131679   0.276151   0.230746   0.000000
    16  O   -0.090445  -0.063342   0.276151   8.224404  -0.040518   0.000000
    17  I   -0.000405  -0.042580   0.230746  -0.040518   6.552152   0.000000
    18  H    0.000000   0.000000   0.000000   0.000000   0.000000   0.440641
    19  H    0.000000   0.000000   0.000000   0.000000   0.000000  -0.001331
    20  H    0.000000   0.000000   0.000000   0.000000   0.000000  -0.000081
    21  H    0.000000   0.000000   0.000000   0.000000   0.000000  -0.001194
    22  H    0.000005   0.000000   0.000000   0.000001   0.000000   0.000000
    23  H    0.002148   0.000129  -0.000185   0.001904   0.000007   0.000000
    24  H    0.372207  -0.021913   0.004233   0.002251  -0.000096   0.000000
    25  H   -0.020851   0.374163  -0.022398   0.002189   0.001656   0.000000
              19         20         21         22         23         24
     1  C   -0.027067   0.002502  -0.027154  -0.000007   0.000000   0.000000
     2  C    0.377262  -0.048016   0.002331   0.000073   0.000000   0.000000
     3  C   -0.025302   0.402522  -0.000141   0.000024   0.000000   0.000000
     4  N    0.002923  -0.041154   0.002903   0.023791  -0.000118   0.000000
     5  C    0.000124   0.003270  -0.020258  -0.003687   0.000051   0.000000
     6  C    0.002083  -0.000345   0.370007   0.000395   0.000000   0.000000
     7  C    0.000007   0.000010  -0.001815  -0.026677  -0.000328   0.000000
     8  O    0.000000   0.000000   0.008447   0.001437  -0.000003   0.000000
     9  N    0.000000   0.000025   0.000279   0.298663  -0.006241  -0.000001
    10  N    0.000000   0.000000  -0.000001  -0.020000  -0.038871  -0.000001
    11  C    0.000000   0.000000   0.000000  -0.003262   0.381415   0.000998
    12  C    0.000000   0.000000   0.000000  -0.000782  -0.053499  -0.023371
    13  C    0.000000   0.000000   0.000000   0.000005   0.002148   0.372207
    14  C    0.000000   0.000000   0.000000   0.000000   0.000129  -0.021913
    15  C    0.000000   0.000000   0.000000   0.000000  -0.000185   0.004233
    16  O    0.000000   0.000000   0.000000   0.000001   0.001904   0.002251
    17  I    0.000000   0.000000   0.000000   0.000000   0.000007  -0.000096
    18  H   -0.001331  -0.000081  -0.001194   0.000000   0.000000   0.000000
    19  H    0.445693   0.000203  -0.000055  -0.000001   0.000000   0.000000
    20  H    0.000203   0.464788   0.000010  -0.000111   0.000000   0.000000
    21  H   -0.000055   0.000010   0.396993  -0.000034   0.000000   0.000000
    22  H   -0.000001  -0.000111  -0.000034   0.287868   0.010073  -0.000001
    23  H    0.000000   0.000000   0.000000   0.010073   0.503239   0.000973
    24  H    0.000000   0.000000   0.000000  -0.000001   0.000973   0.435414
    25  H    0.000000   0.000000   0.000000   0.000000   0.000000  -0.000176
              25
     1  C    0.000000
     2  C    0.000000
     3  C    0.000000
     4  N    0.000000
     5  C    0.000000
     6  C    0.000000
     7  C    0.000000
     8  O    0.000000
     9  N    0.000000
    10  N    0.000000
    11  C   -0.000028
    12  C    0.003249
    13  C   -0.020851
    14  C    0.374163
    15  C   -0.022398
    16  O    0.002189
    17  I    0.001656
    18  H    0.000000
    19  H    0.000000
    20  H    0.000000
    21  H    0.000000
    22  H    0.000000
    23  H    0.000000
    24  H   -0.000176
    25  H    0.428175
 Mulliken charges:
               1
     1  C   -0.150590
     2  C   -0.255657
     3  C    0.073610
     4  N   -0.611141
     5  C    0.190365
     6  C   -0.215038
     7  C    0.843572
     8  O   -0.600026
     9  N   -0.703026
    10  N   -0.181101
    11  C    0.011467
    12  C    0.373711
    13  C   -0.258354
    14  C   -0.245356
    15  C   -0.028520
    16  O   -0.574884
    17  I    0.292877
    18  H    0.231533
    19  H    0.225461
    20  H    0.216378
    21  H    0.269681
    22  H    0.432231
    23  H    0.199306
    24  H    0.229483
    25  H    0.234019
 Sum of Mulliken charges =   0.00000
 Mulliken charges with hydrogens summed into heavy atoms:
               1
     1  C    0.080943
     2  C   -0.030196
     3  C    0.289987
     4  N   -0.611141
     5  C    0.190365
     6  C    0.054642
     7  C    0.843572
     8  O   -0.600026
     9  N   -0.270795
    10  N   -0.181101
    11  C    0.210773
    12  C    0.373711
    13  C   -0.028871
    14  C   -0.011337
    15  C   -0.028520
    16  O   -0.574884
    17  I    0.292877
 DipInt: DoE/N= T F RetVal/Mat= T F Init=T NMatP=  1 IDeriv=0 Min/MaxMlt=  0  4
 Entering OneElI...
 OneElI was handed   235748817 working-precision words.
 Multipole integrals L=0 to 4 MinM= 0 MaxM= 0.
 Requested accuracy = 0.1000D-12
 PrtBox:  NBox=     1 Levels=  1 BoxLen=   45.18 SMaxX=       24.32
          Shift=           15.740107            4.714613            0.001223
 Box      1 Number                   0 centers from      1 to     84:
 ShPair: Thresh= 1.00D-13 NBox=     1 BxSize= 4.52D+01 RnKept= 2.31D+01
         NSMCal=                 3570 NSMKep=                2545
 PrsmSu:  NPrtUS=   1 ThrOK=F IAlg=1 NPAlg=1 LenDen=           0.
 Prism:   IPart=     0 DynPar=F LinDyn=F Incr=          25.
 PRISM was handed   235496864 working-precision words and  2545 shell-pairs
 IPart=  0 NShTot=        2545 NBatch=         106 AvBLen=        24.0
 PrSmSu:  NxtVal=             26.
 Electronic moments (au):
       -118.00000000        393.13551002        -66.85215969          0.01312108
      -7323.37063074       -838.57928266        -86.08182076       -590.82208343
          0.10450268         -0.01974369      60456.83429377      -1355.21722061
          0.00528055       1198.23146413       1094.18913672         -3.15640541
        157.77835704        -34.98573438         -0.02679477          0.04501585
    -906888.22134807     -14923.64240238       -347.79254616     -29216.15484496
         44.56279824     -11282.94619546         -0.89037318          0.18651329
         -0.01278515     -41701.83343999      -5733.81900965       -631.90893366
          0.03753515          0.04431440       -252.31007657
 Electronic spatial extent (au):  <R**2>=           8248.0317
 DipInt: DoE/N= F T RetVal/Mat= T F Init=T NMatP=  1 IDeriv=0 Min/MaxMlt=  0  4
 Nuclear    moments (au):
        118.00000000       -394.69431978         68.82695215         -0.01268981
       7278.44575218        762.99711205          0.00006763        590.55667529
         -0.10891139          0.01891156     -60474.83215981       1320.59268051
         -0.00000001      -1049.38071821      -1141.30880346          3.22246462
         -0.00041673          0.00001735          0.04466004         -0.04171154
     883615.76063243      12062.26539365          0.00000000      28773.85498394
        -45.52361443      10659.32526454          0.90403838         -0.00000018
          0.00000002      36656.95752675          0.00490026          0.00040018
         -0.08657188         -0.05348857          0.00030488
 Total      moments (au):
          0.00000000         -1.55880976          1.97479246          0.00043127
        -44.92487857        -75.58217061        -86.08175312         -0.26540814
         -0.00440871         -0.00083213        -17.99786605        -34.62454010
          0.00528054        148.85074592        -47.11966674          0.06605921
        157.77794031        -34.98571703          0.01786526          0.00330431
     -23272.46071564      -2861.37700873       -347.79254616       -442.29986102
         -0.96081618       -623.62093091          0.01366520          0.18651311
         -0.01278513      -5044.87591324      -5733.81410938       -631.90853348
         -0.04903673         -0.00917417       -252.30977169
 Traceless Quadrup. (au):
         23.93805553         -6.71923651        -17.21881902         -0.26540814
         -0.00440871         -0.00083213
 Charge=              0.0000 electrons
 Dipole moment (field-independent basis, Debye):
    X=             -3.9621    Y=              5.0194    Z=              0.0011  Tot=              6.3947
 Quadrupole moment (field-independent basis, Debye-Ang):
   XX=            -60.4255   YY=           -101.6606   ZZ=           -115.7829
   XY=             -0.3570   XZ=             -0.0059   YZ=             -0.0011
 Traceless Quadrupole moment (field-independent basis, Debye-Ang):
   XX=             32.1975   YY=             -9.0376   ZZ=            -23.1599
   XY=             -0.3570   XZ=             -0.0059   YZ=             -0.0011
 Octapole moment (field-independent basis, Debye-Ang**2):
  XXX=            -12.8102  YYY=            -24.6444  ZZZ=              0.0038  XYY=            105.9462
  XXY=            -33.5380  XXZ=              0.0470  XZZ=            112.3003  YZZ=            -24.9015
  YYZ=              0.0127  XYZ=              0.0024
 Hexadecapole moment (field-independent basis, Debye-Ang**3):
 XXXX=          -8765.5241 YYYY=          -1077.7317 ZZZZ=           -130.9953 XXXY=           -166.5913
 XXXZ=             -0.3619 YYYX=           -234.8855 YYYZ=              0.0051 ZZZX=              0.0702
 ZZZY=             -0.0048 XXYY=          -1900.1421 XXZZ=          -2159.6292 YYZZ=           -238.0070
 XXYZ=             -0.0185 YYXZ=             -0.0035 ZZXY=            -95.0320
 N-N= 1.010604429810D+03 E-N=-3.761058658711D+03  KE= 7.361205709160D+02
 Entering OneElI...
 OneElI was handed   235791116 working-precision words.
 Calculate electrostatic properties
    NBasis =   248  MinDer = 0  MaxDer = 0
    NGrid  =    25  NMatD  =   1
 Requested accuracy = 0.1000D-12
 PrtBox:  NBox=     1 Levels=  1 BoxLen=   37.65 SMaxX=       24.32
          Shift=           15.740107            4.714613            0.001223
 Box      1 Number                   0 centers from      1 to     84:
 ShPair: Thresh= 1.00D-13 NBox=     1 BxSize= 3.77D+01 RnKept= 2.08D+01
         NSMCal=                 3570 NSMKep=                2257
 PrsmSu:  NPrtUS=   1 ThrOK=F IAlg=1 NPAlg=1 LenDen=           0.
 Prism:   IPart=     0 DynPar=F LinDyn=F Incr=         512.
 PRISM was handed   235560034 working-precision words and  2257 shell-pairs
 IPart=  0 NShTot=       56425 NBatch=        2340 AvBLen=        24.1
 PrSmSu:  NxtVal=            513.
 --------------------------------------------------------
       Center         ----      EFG at Nuclei      ----
                      3XX-RR        3YY-RR        3ZZ-RR
 --------------------------------------------------------
     1   Atom        0.219324      0.209339     -0.428663
     2   Atom        0.141338      0.179331     -0.320669
     3   Atom        0.122304      0.244869     -0.367173
     4   Atom        0.340025      0.397528     -0.737554
     5   Atom        0.172816      0.137216     -0.310032
     6   Atom        0.172931      0.189704     -0.362635
     7   Atom        0.257028      0.246031     -0.503059
     8   Atom        1.480012     -0.676168     -0.803844
     9   Atom       -0.777908     -0.293454      1.071362
    10   Atom       -0.501108      1.137506     -0.636398
    11   Atom        0.133789      0.090858     -0.224647
    12   Atom        0.140489     -0.088137     -0.052353
    13   Atom        0.106603      0.120880     -0.227483
    14   Atom        0.111582      0.073835     -0.185417
    15   Atom       -0.250971      0.200070      0.050901
    16   Atom       -1.330752      0.345510      0.985243
    17   Atom       -0.021470     -0.028324      0.049794
    18   Atom       -0.068326     -0.092675      0.161001
    19   Atom       -0.277360      0.110879      0.166482
    20   Atom        0.112863     -0.272968      0.160105
    21   Atom        0.099464     -0.259342      0.159878
    22   Atom        0.041614     -0.258818      0.217204
    23   Atom        0.028726     -0.188853      0.160127
    24   Atom        0.110834     -0.283262      0.172428
    25   Atom       -0.195022      0.021994      0.173029
 --------------------------------------------------------
                        XY            XZ            YZ
 --------------------------------------------------------
     1   Atom       -0.026206     -0.000185      0.000015
     2   Atom        0.010881     -0.000130      0.000004
     3   Atom        0.044794     -0.000141     -0.000005
     4   Atom        0.702486     -0.000316     -0.000173
     5   Atom        0.064115     -0.000126     -0.000016
     6   Atom       -0.016556     -0.000162      0.000004
     7   Atom       -0.119129     -0.000113      0.000006
     8   Atom        0.788814     -0.000419      0.000182
     9   Atom        0.005774      0.000107     -0.000236
    10   Atom       -0.497597      0.000008      0.000377
    11   Atom        0.001799      0.000052      0.000059
    12   Atom        0.294363      0.000056     -0.000011
    13   Atom        0.009716      0.000001      0.000048
    14   Atom        0.022126      0.000019      0.000053
    15   Atom        0.082431      0.000104      0.000006
    16   Atom        0.690990     -0.000555      0.000336
    17   Atom        0.074415     -0.000001      0.000003
    18   Atom       -0.224889      0.000063      0.000061
    19   Atom        0.115317      0.000128     -0.000033
    20   Atom        0.105003      0.000015     -0.000036
    21   Atom        0.136197      0.000021     -0.000046
    22   Atom        0.189529      0.000027     -0.000059
    23   Atom        0.171478      0.000045     -0.000093
    24   Atom        0.126554      0.000030     -0.000113
    25   Atom       -0.208560      0.000032      0.000015
 --------------------------------------------------------


 ---------------------------------------------------------------------------------
              Nuclear Quadrupole Coupling Constant in Principal Axis System
 ---------------------------------------------------------------------------------

       Atom             a.u.   MegaHertz   Gauss  10(-4) cm-1        Axes

              Baa    -0.7376     3.542     1.264     1.182  0.0003  0.0000  1.0000
     4 N(14)  Bbb    -0.3343     1.606     0.573     0.536  0.7214 -0.6925 -0.0003
              Bcc     1.0719    -5.148    -1.837    -1.717  0.6925  0.7214 -0.0002
 
              Baa    -0.7780     3.736     1.333     1.246  0.9999 -0.0119 -0.0001
     9 N(14)  Bbb    -0.2934     1.409     0.503     0.470  0.0119  0.9999  0.0002
              Bcc     1.0714    -5.145    -1.836    -1.716  0.0001 -0.0002  1.0000
 
              Baa    -0.6404     3.076     1.097     1.026  0.9626  0.2694 -0.0274
    10 N(14)  Bbb    -0.6364     3.056     1.091     1.020  0.0264  0.0072  0.9996
              Bcc     1.2768    -6.132    -2.188    -2.045 -0.2695  0.9630  0.0002
 
              Baa    -0.0994   -16.581    -5.916    -5.531 -0.6906  0.7232  0.0000
    17 I(127) Bbb     0.0496     8.274     2.952     2.760  0.7232  0.6906 -0.0096
              Bcc     0.0498     8.307     2.964     2.771  0.0069  0.0066  1.0000
 

 ---------------------------------------------------------------------------------

 No NMR shielding tensors so no spin-rotation constants.
 Leave Link  601 at Fri Jan 17 11:57:17 2014, MaxMem=   235929600 cpu:         0.3
 FitSet:  NAtFit=    25 NAtPot=    25 NAtFrz=     0 MDM=    29 TotChg=   0.00000
 Merz-Kollman atomic radii used.
 Read replacement radii for each type of atom:
 Rad(53) =   2.700000000000D+00
 Atom Element Radius
    1     6    1.50
    2     6    1.50
    3     6    1.50
    4     7    1.50
    5     6    1.50
    6     6    1.50
    7     6    1.50
    8     8    1.40
    9     7    1.50
   10     7    1.50
   11     6    1.50
   12     6    1.50
   13     6    1.50
   14     6    1.50
   15     6    1.50
   16     8    1.40
   17    53    2.70
   18     1    1.20
   19     1    1.20
   20     1    1.20
   21     1    1.20
   22     1    1.20
   23     1    1.20
   24     1    1.20
   25     1    1.20
 Generate VDW surfaces: Layer= 5 Dens= 2 Start= 1.400 Inc= 0.179

 **********************************************************************

            Electrostatic Properties Using The SCF Density

 **********************************************************************

       Atomic Center    1 is at  -6.897994 -1.165374  0.000498
       Atomic Center    2 is at  -7.282259  0.175990  0.000623
       Atomic Center    3 is at  -6.286168  1.155268  0.000346
       Atomic Center    4 is at  -4.980510  0.870680 -0.000014
       Atomic Center    5 is at  -4.620432 -0.423916 -0.000138
       Atomic Center    6 is at  -5.539864 -1.475692  0.000107
       Atomic Center    7 is at  -3.145410 -0.751133 -0.000586
       Atomic Center    8 is at  -2.732688 -1.898546 -0.000492
       Atomic Center    9 is at  -2.358940  0.379802 -0.000546
       Atomic Center   10 is at  -1.008322  0.305721 -0.000647
       Atomic Center   11 is at  -0.377038  1.428155 -0.000507
       Atomic Center   12 is at   1.060871  1.509375 -0.000202
       Atomic Center   13 is at   1.900568  2.597284  0.000386
       Atomic Center   14 is at   3.234148  2.090807 -0.000085
       Atomic Center   15 is at   3.104041  0.731272  0.000109
       Atomic Center   16 is at   1.803314  0.355493 -0.000066
       Atomic Center   17 is at   4.540505 -0.791775  0.000146
       Atomic Center   18 is at  -7.644165 -1.955059  0.000703
       Atomic Center   19 is at  -8.329306  0.463115  0.000925
       Atomic Center   20 is at  -6.547875  2.211664  0.000437
       Atomic Center   21 is at  -5.170682 -2.494866 -0.000015
       Atomic Center   22 is at  -2.848507  1.276132 -0.000426
       Atomic Center   23 is at  -0.895659  2.395873 -0.000232
       Atomic Center   24 is at   1.598323  3.635735  0.000649
       Atomic Center   25 is at   4.157691  2.650266 -0.000169
      ESP Fit Center   26 is at  -6.897994 -1.165374  2.100498
      ESP Fit Center   27 is at  -6.538873 -0.543358  1.973852
      ESP Fit Center   28 is at  -7.257115 -0.543358  1.973852
      ESP Fit Center   29 is at  -7.616236 -1.165374  1.973852
      ESP Fit Center   30 is at  -7.257115 -1.787390  1.973852
      ESP Fit Center   31 is at  -6.538873 -1.787390  1.973852
      ESP Fit Center   32 is at  -8.193169 -1.545672  1.609191
      ESP Fit Center   33 is at  -7.090098 -2.501488  1.609191
      ESP Fit Center   34 is at  -8.193169 -1.545672 -1.608195
      ESP Fit Center   35 is at  -7.090098 -2.501488 -1.608195
      ESP Fit Center   36 is at  -6.538873 -0.543358 -1.972857
      ESP Fit Center   37 is at  -7.257115 -0.543358 -1.972857
      ESP Fit Center   38 is at  -7.616236 -1.165374 -1.972857
      ESP Fit Center   39 is at  -7.257115 -1.787390 -1.972857
      ESP Fit Center   40 is at  -6.538873 -1.787390 -1.972857
      ESP Fit Center   41 is at  -6.897994 -1.165374 -2.099502
      ESP Fit Center   42 is at  -7.282259  0.175990  2.100623
      ESP Fit Center   43 is at  -6.564016  0.175990  1.973977
      ESP Fit Center   44 is at  -6.923138  0.798006  1.973977
      ESP Fit Center   45 is at  -7.641380  0.798006  1.973977
      ESP Fit Center   46 is at  -8.000501  0.175990  1.973977
      ESP Fit Center   47 is at  -7.641380 -0.446026  1.973977
      ESP Fit Center   48 is at  -6.923138 -0.446026  1.973977
      ESP Fit Center   49 is at  -8.166225  1.196142  1.609316
      ESP Fit Center   50 is at  -8.577434 -0.204308  1.609316
      ESP Fit Center   51 is at  -8.753580 -0.892987  1.050623
      ESP Fit Center   52 is at  -8.753580 -0.892987 -1.049377
      ESP Fit Center   53 is at  -8.166225  1.196142 -1.608070
      ESP Fit Center   54 is at  -8.577434 -0.204308 -1.608070
      ESP Fit Center   55 is at  -6.564016  0.175990 -1.972732
      ESP Fit Center   56 is at  -6.923138  0.798006 -1.972732
      ESP Fit Center   57 is at  -7.641380  0.798006 -1.972732
      ESP Fit Center   58 is at  -8.000501  0.175990 -1.972732
      ESP Fit Center   59 is at  -7.641380 -0.446026 -1.972732
      ESP Fit Center   60 is at  -6.923138 -0.446026 -1.972732
      ESP Fit Center   61 is at  -7.282259  0.175990 -2.099377
      ESP Fit Center   62 is at  -6.286168  1.155268  2.100346
      ESP Fit Center   63 is at  -5.927047  1.777284  1.973700
      ESP Fit Center   64 is at  -6.645289  1.777284  1.973700
      ESP Fit Center   65 is at  -7.004410  1.155268  1.973700
      ESP Fit Center   66 is at  -6.645289  0.533252  1.973700
      ESP Fit Center   67 is at  -5.927047  0.533252  1.973700
      ESP Fit Center   68 is at  -5.725418  2.383139  1.609039
      ESP Fit Center   69 is at  -7.170134  2.175420  1.609039
      ESP Fit Center   70 is at  -7.581343  1.535566  1.609039
      ESP Fit Center   71 is at  -5.725418  2.383139 -1.608347
      ESP Fit Center   72 is at  -7.170134  2.175420 -1.608347
      ESP Fit Center   73 is at  -7.581343  1.535566 -1.608347
      ESP Fit Center   74 is at  -5.927047  1.777284 -1.973009
      ESP Fit Center   75 is at  -6.645289  1.777284 -1.973009
      ESP Fit Center   76 is at  -7.004410  1.155268 -1.973009
      ESP Fit Center   77 is at  -6.645289  0.533252 -1.973009
      ESP Fit Center   78 is at  -5.927047  0.533252 -1.973009
      ESP Fit Center   79 is at  -6.286168  1.155268 -2.099654
      ESP Fit Center   80 is at  -4.980510  0.870680  2.099986
      ESP Fit Center   81 is at  -4.262267  0.870680  1.973340
      ESP Fit Center   82 is at  -4.621389  1.492696  1.973340
      ESP Fit Center   83 is at  -5.339631  1.492696  1.973340
      ESP Fit Center   84 is at  -5.339631  0.248664  1.973340
      ESP Fit Center   85 is at  -3.630656  0.870680  1.608679
      ESP Fit Center   86 is at  -3.844940  1.600466  1.608679
      ESP Fit Center   87 is at  -4.419760  2.098551  1.608679
      ESP Fit Center   88 is at  -5.172614  2.206795  1.608679
      ESP Fit Center   89 is at  -3.763593  2.222203  1.049986
      ESP Fit Center   90 is at  -4.418515  2.600322  1.049986
      ESP Fit Center   91 is at  -5.170611  2.679371  1.049986
      ESP Fit Center   92 is at  -4.058680  2.721964  0.364647
      ESP Fit Center   93 is at  -4.789690  2.929954  0.364647
      ESP Fit Center   94 is at  -4.058680  2.721964 -0.364675
      ESP Fit Center   95 is at  -4.789690  2.929954 -0.364675
      ESP Fit Center   96 is at  -3.763593  2.222203 -1.050014
      ESP Fit Center   97 is at  -4.418515  2.600322 -1.050014
      ESP Fit Center   98 is at  -5.170611  2.679371 -1.050014
      ESP Fit Center   99 is at  -3.630656  0.870680 -1.608707
      ESP Fit Center  100 is at  -3.844940  1.600466 -1.608707
      ESP Fit Center  101 is at  -4.419760  2.098551 -1.608707
      ESP Fit Center  102 is at  -5.172614  2.206795 -1.608707
      ESP Fit Center  103 is at  -4.262267  0.870680 -1.973369
      ESP Fit Center  104 is at  -4.621389  1.492696 -1.973369
      ESP Fit Center  105 is at  -5.339631  1.492696 -1.973369
      ESP Fit Center  106 is at  -5.339631  0.248664 -1.973369
      ESP Fit Center  107 is at  -4.980510  0.870680 -2.100014
      ESP Fit Center  108 is at  -4.620432 -0.423916  2.099862
      ESP Fit Center  109 is at  -3.902190 -0.423916  1.973216
      ESP Fit Center  110 is at  -4.261311  0.198100  1.973216
      ESP Fit Center  111 is at  -5.338674 -0.423916  1.973216
      ESP Fit Center  112 is at  -4.261311 -1.045932  1.973216
      ESP Fit Center  113 is at  -3.902190 -0.423916 -1.973493
      ESP Fit Center  114 is at  -4.261311  0.198100 -1.973493
      ESP Fit Center  115 is at  -5.338674 -0.423916 -1.973493
      ESP Fit Center  116 is at  -4.261311 -1.045932 -1.973493
      ESP Fit Center  117 is at  -4.620432 -0.423916 -2.100138
      ESP Fit Center  118 is at  -5.539864 -1.475692  2.100107
      ESP Fit Center  119 is at  -4.821622 -1.475692  1.973461
      ESP Fit Center  120 is at  -5.898985 -0.853676  1.973461
      ESP Fit Center  121 is at  -5.898985 -2.097708  1.973461
      ESP Fit Center  122 is at  -5.180743 -2.097708  1.973461
      ESP Fit Center  123 is at  -6.423830 -2.495843  1.608800
      ESP Fit Center  124 is at  -5.731968 -2.811806  1.608800
      ESP Fit Center  125 is at  -4.404294 -2.205478  1.608800
      ESP Fit Center  126 is at  -6.449191 -3.050692  1.050107
      ESP Fit Center  127 is at  -6.449191 -3.050692 -1.049893
      ESP Fit Center  128 is at  -6.423830 -2.495843 -1.608586
      ESP Fit Center  129 is at  -5.731968 -2.811806 -1.608586
      ESP Fit Center  130 is at  -4.404294 -2.205478 -1.608586
      ESP Fit Center  131 is at  -4.821622 -1.475692 -1.973248
      ESP Fit Center  132 is at  -5.898985 -0.853676 -1.973248
      ESP Fit Center  133 is at  -5.898985 -2.097708 -1.973248
      ESP Fit Center  134 is at  -5.180743 -2.097708 -1.973248
      ESP Fit Center  135 is at  -5.539864 -1.475692 -2.099893
      ESP Fit Center  136 is at  -3.145410 -0.751133  2.099414
      ESP Fit Center  137 is at  -2.427168 -0.751133  1.972768
      ESP Fit Center  138 is at  -3.504531 -0.129117  1.972768
      ESP Fit Center  139 is at  -3.863652 -0.751133  1.972768
      ESP Fit Center  140 is at  -3.504531 -1.373149  1.972768
      ESP Fit Center  141 is at  -2.786289 -1.373149  1.972768
      ESP Fit Center  142 is at  -4.029376 -1.771284  1.608107
      ESP Fit Center  143 is at  -4.029376 -1.771284 -1.609279
      ESP Fit Center  144 is at  -2.427168 -0.751133 -1.973941
      ESP Fit Center  145 is at  -3.504531 -0.129117 -1.973941
      ESP Fit Center  146 is at  -3.863652 -0.751133 -1.973941
      ESP Fit Center  147 is at  -3.504531 -1.373149 -1.973941
      ESP Fit Center  148 is at  -2.786289 -1.373149 -1.973941
      ESP Fit Center  149 is at  -3.145410 -0.751133 -2.100586
      ESP Fit Center  150 is at  -2.732688 -1.898546  1.959508
      ESP Fit Center  151 is at  -1.982628 -1.898546  1.810312
      ESP Fit Center  152 is at  -3.482747 -1.898546  1.810312
      ESP Fit Center  153 is at  -3.107718 -2.548117  1.810312
      ESP Fit Center  154 is at  -2.357658 -2.548117  1.810312
      ESP Fit Center  155 is at  -1.346759 -1.898546  1.385437
      ESP Fit Center  156 is at  -1.532438 -1.205581  1.385437
      ESP Fit Center  157 is at  -3.932938 -2.591511  1.385437
      ESP Fit Center  158 is at  -3.425652 -3.098796  1.385437
      ESP Fit Center  159 is at  -2.732688 -3.284475  1.385437
      ESP Fit Center  160 is at  -2.039723 -3.098796  1.385437
      ESP Fit Center  161 is at  -1.532438 -2.591511  1.385437
      ESP Fit Center  162 is at  -0.921884 -1.898546  0.749568
      ESP Fit Center  163 is at  -3.638090 -3.466748  0.749568
      ESP Fit Center  164 is at  -2.921968 -3.699430  0.749568
      ESP Fit Center  165 is at  -2.173119 -3.620723  0.749568
      ESP Fit Center  166 is at  -1.521024 -3.244235  0.749568
      ESP Fit Center  167 is at  -1.078436 -2.635066  0.749568
      ESP Fit Center  168 is at  -0.772688 -1.898546 -0.000492
      ESP Fit Center  169 is at  -3.269067 -3.783724 -0.000492
      ESP Fit Center  170 is at  -2.551842 -3.850185 -0.000492
      ESP Fit Center  171 is at  -1.859041 -3.653066 -0.000492
      ESP Fit Center  172 is at  -1.284230 -3.218989 -0.000492
      ESP Fit Center  173 is at  -0.905042 -2.606580 -0.000492
      ESP Fit Center  174 is at  -0.921884 -1.898546 -0.750552
      ESP Fit Center  175 is at  -3.638090 -3.466748 -0.750552
      ESP Fit Center  176 is at  -2.921968 -3.699430 -0.750552
      ESP Fit Center  177 is at  -2.173119 -3.620723 -0.750552
      ESP Fit Center  178 is at  -1.521024 -3.244235 -0.750552
      ESP Fit Center  179 is at  -1.078436 -2.635066 -0.750552
      ESP Fit Center  180 is at  -1.346759 -1.898546 -1.386421
      ESP Fit Center  181 is at  -1.532438 -1.205581 -1.386421
      ESP Fit Center  182 is at  -3.932938 -2.591511 -1.386421
      ESP Fit Center  183 is at  -3.425652 -3.098796 -1.386421
      ESP Fit Center  184 is at  -2.732688 -3.284475 -1.386421
      ESP Fit Center  185 is at  -2.039723 -3.098796 -1.386421
      ESP Fit Center  186 is at  -1.532438 -2.591511 -1.386421
      ESP Fit Center  187 is at  -1.982628 -1.898546 -1.811296
      ESP Fit Center  188 is at  -3.482747 -1.898546 -1.811296
      ESP Fit Center  189 is at  -3.107718 -2.548117 -1.811296
      ESP Fit Center  190 is at  -2.357658 -2.548117 -1.811296
      ESP Fit Center  191 is at  -2.732688 -1.898546 -1.960492
      ESP Fit Center  192 is at  -2.358940  0.379802  2.099454
      ESP Fit Center  193 is at  -1.999819  1.001818  1.972808
      ESP Fit Center  194 is at  -2.718061  1.001818  1.972808
      ESP Fit Center  195 is at  -3.077182  0.379802  1.972808
      ESP Fit Center  196 is at  -1.999819 -0.242214  1.972808
      ESP Fit Center  197 is at  -1.798190  1.607672  1.608147
      ESP Fit Center  198 is at  -2.551044  1.715916  1.608147
      ESP Fit Center  199 is at  -1.798190 -0.848068  1.608147
      ESP Fit Center  200 is at  -1.798190  1.607672 -1.609239
      ESP Fit Center  201 is at  -2.551044  1.715916 -1.609239
      ESP Fit Center  202 is at  -1.798190 -0.848068 -1.609239
      ESP Fit Center  203 is at  -1.999819  1.001818 -1.973901
      ESP Fit Center  204 is at  -2.718061  1.001818 -1.973901
      ESP Fit Center  205 is at  -3.077182  0.379802 -1.973901
      ESP Fit Center  206 is at  -1.999819 -0.242214 -1.973901
      ESP Fit Center  207 is at  -2.358940  0.379802 -2.100546
      ESP Fit Center  208 is at  -1.008322  0.305721  2.099353
      ESP Fit Center  209 is at  -0.290079  0.305721  1.972707
      ESP Fit Center  210 is at  -1.367443  0.927737  1.972707
      ESP Fit Center  211 is at  -1.367443 -0.316295  1.972707
      ESP Fit Center  212 is at  -0.649201 -0.316295  1.972707
      ESP Fit Center  213 is at  -1.200426 -1.030393  1.608046
      ESP Fit Center  214 is at  -0.447572 -0.922149  1.608046
      ESP Fit Center  215 is at   0.127248 -0.424065  1.608046
      ESP Fit Center  216 is at  -0.446327 -1.423921  1.049353
      ESP Fit Center  217 is at   0.208595 -1.045802  1.049353
      ESP Fit Center  218 is at  -0.086492 -1.545563  0.364014
      ESP Fit Center  219 is at   0.520020 -1.087546  0.364014
      ESP Fit Center  220 is at  -0.086492 -1.545563 -0.365308
      ESP Fit Center  221 is at   0.520020 -1.087546 -0.365308
      ESP Fit Center  222 is at  -0.446327 -1.423921 -1.050647
      ESP Fit Center  223 is at   0.208595 -1.045802 -1.050647
      ESP Fit Center  224 is at  -1.200426 -1.030393 -1.609340
      ESP Fit Center  225 is at  -0.447572 -0.922149 -1.609340
      ESP Fit Center  226 is at   0.127248 -0.424065 -1.609340
      ESP Fit Center  227 is at  -0.290079  0.305721 -1.974002
      ESP Fit Center  228 is at  -1.367443  0.927737 -1.974002
      ESP Fit Center  229 is at  -1.367443 -0.316295 -1.974002
      ESP Fit Center  230 is at  -0.649201 -0.316295 -1.974002
      ESP Fit Center  231 is at  -1.008322  0.305721 -2.100647
      ESP Fit Center  232 is at  -0.377038  1.428155  2.099493
      ESP Fit Center  233 is at   0.341205  1.428155  1.972847
      ESP Fit Center  234 is at  -0.017917  2.050171  1.972847
      ESP Fit Center  235 is at  -0.736159  2.050171  1.972847
      ESP Fit Center  236 is at  -1.095280  1.428155  1.972847
      ESP Fit Center  237 is at  -0.017917  0.806139  1.972847
      ESP Fit Center  238 is at   0.183712  2.656025  1.608186
      ESP Fit Center  239 is at  -0.569142  2.764269  1.608186
      ESP Fit Center  240 is at  -1.672213  1.808453  1.608186
      ESP Fit Center  241 is at   0.183712  2.656025 -1.609200
      ESP Fit Center  242 is at  -0.569142  2.764269 -1.609200
      ESP Fit Center  243 is at  -1.672213  1.808453 -1.609200
      ESP Fit Center  244 is at   0.341205  1.428155 -1.973862
      ESP Fit Center  245 is at  -0.017917  2.050171 -1.973862
      ESP Fit Center  246 is at  -0.736159  2.050171 -1.973862
      ESP Fit Center  247 is at  -1.095280  1.428155 -1.973862
      ESP Fit Center  248 is at  -0.017917  0.806139 -1.973862
      ESP Fit Center  249 is at  -0.377038  1.428155 -2.100507
      ESP Fit Center  250 is at   1.060871  1.509375  2.099798
      ESP Fit Center  251 is at   1.779114  1.509375  1.973152
      ESP Fit Center  252 is at   0.701750  2.131391  1.973152
      ESP Fit Center  253 is at   0.342629  1.509375  1.973152
      ESP Fit Center  254 is at   0.701750  0.887359  1.973152
      ESP Fit Center  255 is at   1.419992  0.887359  1.973152
      ESP Fit Center  256 is at   1.779114  1.509375 -1.973557
      ESP Fit Center  257 is at   0.701750  2.131391 -1.973557
      ESP Fit Center  258 is at   0.342629  1.509375 -1.973557
      ESP Fit Center  259 is at   0.701750  0.887359 -1.973557
      ESP Fit Center  260 is at   1.419992  0.887359 -1.973557
      ESP Fit Center  261 is at   1.060871  1.509375 -2.100202
      ESP Fit Center  262 is at   1.900568  2.597284  2.100386
      ESP Fit Center  263 is at   2.618811  2.597284  1.973740
      ESP Fit Center  264 is at   2.259689  3.219300  1.973740
      ESP Fit Center  265 is at   1.541447  3.219300  1.973740
      ESP Fit Center  266 is at   1.182326  2.597284  1.973740
      ESP Fit Center  267 is at   2.259689  1.975268  1.973740
      ESP Fit Center  268 is at   2.461318  3.825154  1.609079
      ESP Fit Center  269 is at   1.016602  3.617436  1.609079
      ESP Fit Center  270 is at   0.605393  2.977582  1.609079
      ESP Fit Center  271 is at   3.117485  3.948807  1.050386
      ESP Fit Center  272 is at   3.117485  3.948807 -1.049614
      ESP Fit Center  273 is at   2.461318  3.825154 -1.608307
      ESP Fit Center  274 is at   1.016602  3.617436 -1.608307
      ESP Fit Center  275 is at   0.605393  2.977582 -1.608307
      ESP Fit Center  276 is at   2.618811  2.597284 -1.972969
      ESP Fit Center  277 is at   2.259689  3.219300 -1.972969
      ESP Fit Center  278 is at   1.541447  3.219300 -1.972969
      ESP Fit Center  279 is at   1.182326  2.597284 -1.972969
      ESP Fit Center  280 is at   2.259689  1.975268 -1.972969
      ESP Fit Center  281 is at   1.900568  2.597284 -2.099614
      ESP Fit Center  282 is at   3.234148  2.090807  2.099915
      ESP Fit Center  283 is at   3.593269  2.712823  1.973269
      ESP Fit Center  284 is at   2.875027  2.712823  1.973269
      ESP Fit Center  285 is at   2.515906  2.090807  1.973269
      ESP Fit Center  286 is at   3.794898  3.318677  1.608608
      ESP Fit Center  287 is at   3.042044  3.426921  1.608608
      ESP Fit Center  288 is at   3.424968  4.150081  0.364576
      ESP Fit Center  289 is at   3.424968  4.150081 -0.364746
      ESP Fit Center  290 is at   3.794898  3.318677 -1.608778
      ESP Fit Center  291 is at   3.042044  3.426921 -1.608778
      ESP Fit Center  292 is at   3.593269  2.712823 -1.973440
      ESP Fit Center  293 is at   2.875027  2.712823 -1.973440
      ESP Fit Center  294 is at   2.515906  2.090807 -1.973440
      ESP Fit Center  295 is at   3.234148  2.090807 -2.100085
      ESP Fit Center  296 is at   1.053255  0.355493  1.810738
      ESP Fit Center  297 is at   0.603064 -0.337472  1.385863
      ESP Fit Center  298 is at   0.622150 -1.208621 -0.000066
      ESP Fit Center  299 is at   0.603064 -0.337472 -1.385995
      ESP Fit Center  300 is at   1.053255  0.355493 -1.810870
      ESP Fit Center  301 is at   4.540505 -0.791775  3.780146
      ESP Fit Center  302 is at   5.277947 -0.791775  3.707514
      ESP Fit Center  303 is at   4.909226 -0.153132  3.707514
      ESP Fit Center  304 is at   4.171784 -0.153132  3.707514
      ESP Fit Center  305 is at   3.803064 -0.791775  3.707514
      ESP Fit Center  306 is at   4.171784 -1.430418  3.707514
      ESP Fit Center  307 is at   4.909226 -1.430418  3.707514
      ESP Fit Center  308 is at   5.987049 -0.791775  3.492411
      ESP Fit Center  309 is at   5.793248 -0.068503  3.492411
      ESP Fit Center  310 is at   5.263777  0.460968  3.492411
      ESP Fit Center  311 is at   4.540505  0.654768  3.492411
      ESP Fit Center  312 is at   3.817233  0.460968  3.492411
      ESP Fit Center  313 is at   3.287762 -0.068503  3.492411
      ESP Fit Center  314 is at   3.093962 -0.791775  3.492411
      ESP Fit Center  315 is at   3.287762 -1.515047  3.492411
      ESP Fit Center  316 is at   3.817233 -2.044518  3.492411
      ESP Fit Center  317 is at   4.540505 -2.238318  3.492411
      ESP Fit Center  318 is at   5.263777 -2.044518  3.492411
      ESP Fit Center  319 is at   5.793248 -1.515047  3.492411
      ESP Fit Center  320 is at   6.640561 -0.791775  3.143101
      ESP Fit Center  321 is at   6.513912 -0.073514  3.143101
      ESP Fit Center  322 is at   6.149241  0.558115  3.143101
      ESP Fit Center  323 is at   5.590533  1.026926  3.143101
      ESP Fit Center  324 is at   4.905176  1.276376  3.143101
      ESP Fit Center  325 is at   4.175834  1.276376  3.143101
      ESP Fit Center  326 is at   3.490477  1.026926  3.143101
      ESP Fit Center  327 is at   2.931769  0.558115  3.143101
      ESP Fit Center  328 is at   2.567099 -0.073514  3.143101
      ESP Fit Center  329 is at   2.440450 -0.791775  3.143101
      ESP Fit Center  330 is at   2.567099 -1.510036  3.143101
      ESP Fit Center  331 is at   2.931769 -2.141665  3.143101
      ESP Fit Center  332 is at   3.490477 -2.610476  3.143101
      ESP Fit Center  333 is at   4.175834 -2.859926  3.143101
      ESP Fit Center  334 is at   4.905176 -2.859926  3.143101
      ESP Fit Center  335 is at   5.590533 -2.610476  3.143101
      ESP Fit Center  336 is at   6.149241 -2.141665  3.143101
      ESP Fit Center  337 is at   6.513912 -1.510036  3.143101
      ESP Fit Center  338 is at   7.213369 -0.791775  2.673010
      ESP Fit Center  339 is at   7.114252 -0.070645  2.673010
      ESP Fit Center  340 is at   6.824252  0.597002  2.673010
      ESP Fit Center  341 is at   6.364877  1.161650  2.673010
      ESP Fit Center  342 is at   5.770196  1.581421  2.673010
      ESP Fit Center  343 is at   5.084315  1.825183  2.673010
      ESP Fit Center  344 is at   4.358103  1.874857  2.673010
      ESP Fit Center  345 is at   3.645418  1.726760  2.673010
      ESP Fit Center  346 is at   2.999117  1.391874  2.673010
      ESP Fit Center  347 is at   2.467135  0.895037  2.673010
      ESP Fit Center  348 is at   2.088924  0.273097  2.673010
      ESP Fit Center  349 is at   1.892537 -0.427820  2.673010
      ESP Fit Center  350 is at   1.892537 -1.155730  2.673010
      ESP Fit Center  351 is at   2.088924 -1.856647  2.673010
      ESP Fit Center  352 is at   2.467135 -2.478587  2.673010
      ESP Fit Center  353 is at   2.999117 -2.975424  2.673010
      ESP Fit Center  354 is at   3.645418 -3.310310  2.673010
      ESP Fit Center  355 is at   4.358103 -3.458408  2.673010
      ESP Fit Center  356 is at   5.084315 -3.408733  2.673010
      ESP Fit Center  357 is at   5.770196 -3.164971  2.673010
      ESP Fit Center  358 is at   6.364877 -2.745200  2.673010
      ESP Fit Center  359 is at   6.824252 -2.180552  2.673010
      ESP Fit Center  360 is at   7.114252 -1.512905  2.673010
      ESP Fit Center  361 is at   7.683460 -0.791775  2.100201
      ESP Fit Center  362 is at   7.598742 -0.066960  2.100201
      ESP Fit Center  363 is at   7.349152  0.618781  2.100201
      ESP Fit Center  364 is at   6.948148  1.228478  2.100201
      ESP Fit Center  365 is at   6.417348  1.729262  2.100201
      ESP Fit Center  366 is at   5.785366  2.094137  2.100201
      ESP Fit Center  367 is at   5.086274  2.303431  2.100201
      ESP Fit Center  368 is at   4.357759  2.345863  2.100201
      ESP Fit Center  369 is at   3.639095  2.219143  2.100201
      ESP Fit Center  370 is at   2.969028  1.930104  2.100201
      ESP Fit Center  371 is at   2.383679  1.494328  2.100201
      ESP Fit Center  372 is at   1.914604  0.935307  2.100201
      ESP Fit Center  373 is at   1.587093  0.283179  2.100201
      ESP Fit Center  374 is at   1.418802 -0.426900  2.100201
      ESP Fit Center  375 is at   1.418802 -1.156650  2.100201
      ESP Fit Center  376 is at   1.587093 -1.866729  2.100201
      ESP Fit Center  377 is at   1.914604 -2.518857  2.100201
      ESP Fit Center  378 is at   2.383679 -3.077878  2.100201
      ESP Fit Center  379 is at   2.969028 -3.513654  2.100201
      ESP Fit Center  380 is at   3.639095 -3.802693  2.100201
      ESP Fit Center  381 is at   4.357759 -3.929413  2.100201
      ESP Fit Center  382 is at   5.086274 -3.886982  2.100201
      ESP Fit Center  383 is at   5.785366 -3.677687  2.100201
      ESP Fit Center  384 is at   6.417348 -3.312812  2.100201
      ESP Fit Center  385 is at   6.948148 -2.812028  2.100201
      ESP Fit Center  386 is at   7.349152 -2.202331  2.100201
      ESP Fit Center  387 is at   7.598742 -1.516590  2.100201
      ESP Fit Center  388 is at   8.032770 -0.791775  1.446689
      ESP Fit Center  389 is at   7.956455 -0.065692  1.446689
      ESP Fit Center  390 is at   7.730848  0.628657  1.446689
      ESP Fit Center  391 is at   7.365807  1.260927  1.446689
      ESP Fit Center  392 is at   6.877286  1.803483  1.446689
      ESP Fit Center  393 is at   6.286637  2.232615  1.446689
      ESP Fit Center  394 is at   5.619674  2.529566  1.446689
      ESP Fit Center  395 is at   1.048241 -0.791775  1.446689
      ESP Fit Center  396 is at   1.124555 -1.517858  1.446689
      ESP Fit Center  397 is at   1.350163 -2.212207  1.446689
      ESP Fit Center  398 is at   1.715204 -2.844477  1.446689
      ESP Fit Center  399 is at   2.203724 -3.387033  1.446689
      ESP Fit Center  400 is at   2.794373 -3.816165  1.446689
      ESP Fit Center  401 is at   3.461336 -4.113116  1.446689
      ESP Fit Center  402 is at   4.175464 -4.264909  1.446689
      ESP Fit Center  403 is at   4.905546 -4.264909  1.446689
      ESP Fit Center  404 is at   5.619674 -4.113116  1.446689
      ESP Fit Center  405 is at   6.286637 -3.816165  1.446689
      ESP Fit Center  406 is at   6.877286 -3.387033  1.446689
      ESP Fit Center  407 is at   7.365807 -2.844477  1.446689
      ESP Fit Center  408 is at   7.730848 -2.212207  1.446689
      ESP Fit Center  409 is at   7.956455 -1.517858  1.446689
      ESP Fit Center  410 is at   8.247874 -0.791775  0.737587
      ESP Fit Center  411 is at   8.176637 -0.068503  0.737587
      ESP Fit Center  412 is at   7.965667  0.626973  0.737587
      ESP Fit Center  413 is at   7.623069  1.267928  0.737587
      ESP Fit Center  414 is at   7.162010  1.829730  0.737587
      ESP Fit Center  415 is at   6.600209  2.290789  0.737587
      ESP Fit Center  416 is at   5.959254  2.633387  0.737587
      ESP Fit Center  417 is at   0.904373 -1.515047  0.737587
      ESP Fit Center  418 is at   1.115343 -2.210524  0.737587
      ESP Fit Center  419 is at   1.457941 -2.851479  0.737587
      ESP Fit Center  420 is at   1.919000 -3.413280  0.737587
      ESP Fit Center  421 is at   2.480802 -3.874339  0.737587
      ESP Fit Center  422 is at   3.121757 -4.216937  0.737587
      ESP Fit Center  423 is at   3.817233 -4.427907  0.737587
      ESP Fit Center  424 is at   4.540505 -4.499143  0.737587
      ESP Fit Center  425 is at   5.263777 -4.427907  0.737587
      ESP Fit Center  426 is at   5.959254 -4.216937  0.737587
      ESP Fit Center  427 is at   6.600209 -3.874339  0.737587
      ESP Fit Center  428 is at   7.162010 -3.413280  0.737587
      ESP Fit Center  429 is at   7.623069 -2.851479  0.737587
      ESP Fit Center  430 is at   7.965667 -2.210524  0.737587
      ESP Fit Center  431 is at   8.176637 -1.515047  0.737587
      ESP Fit Center  432 is at   8.320505 -0.791775  0.000146
      ESP Fit Center  433 is at   8.252196 -0.076405  0.000146
      ESP Fit Center  434 is at   8.049736  0.613109  0.000146
      ESP Fit Center  435 is at   7.720444  1.251847  0.000146
      ESP Fit Center  436 is at   7.276220  1.816724  0.000146
      ESP Fit Center  437 is at   6.733120  2.287322  0.000146
      ESP Fit Center  438 is at   6.110774  2.646634  0.000146
      ESP Fit Center  439 is at   0.913622 -1.856724  0.000146
      ESP Fit Center  440 is at   1.180707 -2.523871  0.000146
      ESP Fit Center  441 is at   1.569224 -3.128416  0.000146
      ESP Fit Center  442 is at   2.065132 -3.648508  0.000146
      ESP Fit Center  443 is at   2.650505 -4.065351  0.000146
      ESP Fit Center  444 is at   3.304188 -4.363878  0.000146
      ESP Fit Center  445 is at   4.002555 -4.533300  0.000146
      ESP Fit Center  446 is at   4.720365 -4.567494  0.000146
      ESP Fit Center  447 is at   5.431674 -4.465223  0.000146
      ESP Fit Center  448 is at   6.110774 -4.230184  0.000146
      ESP Fit Center  449 is at   6.733120 -3.870872  0.000146
      ESP Fit Center  450 is at   7.276220 -3.400274  0.000146
      ESP Fit Center  451 is at   7.720444 -2.835397  0.000146
      ESP Fit Center  452 is at   8.049736 -2.196659  0.000146
      ESP Fit Center  453 is at   8.252196 -1.507145  0.000146
      ESP Fit Center  454 is at   8.247874 -0.791775 -0.737295
      ESP Fit Center  455 is at   8.176637 -0.068503 -0.737295
      ESP Fit Center  456 is at   7.965667  0.626973 -0.737295
      ESP Fit Center  457 is at   7.623069  1.267928 -0.737295
      ESP Fit Center  458 is at   7.162010  1.829730 -0.737295
      ESP Fit Center  459 is at   6.600209  2.290789 -0.737295
      ESP Fit Center  460 is at   5.959254  2.633387 -0.737295
      ESP Fit Center  461 is at   0.904373 -1.515047 -0.737295
      ESP Fit Center  462 is at   1.115343 -2.210524 -0.737295
      ESP Fit Center  463 is at   1.457941 -2.851479 -0.737295
      ESP Fit Center  464 is at   1.919000 -3.413280 -0.737295
      ESP Fit Center  465 is at   2.480802 -3.874339 -0.737295
      ESP Fit Center  466 is at   3.121757 -4.216937 -0.737295
      ESP Fit Center  467 is at   3.817233 -4.427907 -0.737295
      ESP Fit Center  468 is at   4.540505 -4.499143 -0.737295
      ESP Fit Center  469 is at   5.263777 -4.427907 -0.737295
      ESP Fit Center  470 is at   5.959254 -4.216937 -0.737295
      ESP Fit Center  471 is at   6.600209 -3.874339 -0.737295
      ESP Fit Center  472 is at   7.162010 -3.413280 -0.737295
      ESP Fit Center  473 is at   7.623069 -2.851479 -0.737295
      ESP Fit Center  474 is at   7.965667 -2.210524 -0.737295
      ESP Fit Center  475 is at   8.176637 -1.515047 -0.737295
      ESP Fit Center  476 is at   8.032770 -0.791775 -1.446397
      ESP Fit Center  477 is at   7.956455 -0.065692 -1.446397
      ESP Fit Center  478 is at   7.730848  0.628657 -1.446397
      ESP Fit Center  479 is at   7.365807  1.260927 -1.446397
      ESP Fit Center  480 is at   6.877286  1.803483 -1.446397
      ESP Fit Center  481 is at   6.286637  2.232615 -1.446397
      ESP Fit Center  482 is at   5.619674  2.529566 -1.446397
      ESP Fit Center  483 is at   1.048241 -0.791775 -1.446397
      ESP Fit Center  484 is at   1.124555 -1.517858 -1.446397
      ESP Fit Center  485 is at   1.350163 -2.212207 -1.446397
      ESP Fit Center  486 is at   1.715204 -2.844477 -1.446397
      ESP Fit Center  487 is at   2.203724 -3.387033 -1.446397
      ESP Fit Center  488 is at   2.794373 -3.816165 -1.446397
[...]
 4158 Fit       0.001675
 4159 Fit       0.002288
 4160 Fit       0.002547
 4161 Fit       0.002299
 4162 Fit       0.001508
 4163 Fit       0.000238
 4164 Fit      -0.004123
 4165 Fit      -0.014277
 4166 Fit      -0.019836
 4167 Fit      -0.024314
 4168 Fit      -0.026831
 4169 Fit      -0.027049
 4170 Fit      -0.025350
 4171 Fit      -0.022641
 4172 Fit      -0.019715
 4173 Fit      -0.016981
 4174 Fit      -0.014567
 4175 Fit      -0.012466
 4176 Fit      -0.010634
 4177 Fit      -0.009030
 4178 Fit      -0.007624
 4179 Fit      -0.006399
 4180 Fit      -0.005349
 4181 Fit      -0.004472
 4182 Fit      -0.003764
 4183 Fit      -0.003217
 4184 Fit      -0.002819
 4185 Fit      -0.002547
 4186 Fit      -0.002371
 4187 Fit      -0.002255
 4188 Fit      -0.001824
 4189 Fit      -0.001725
 4190 Fit      -0.001553
 4191 Fit      -0.001270
 4192 Fit      -0.000840
 4193 Fit      -0.000238
 4194 Fit       0.000553
 4195 Fit       0.001525
 4196 Fit       0.002635
 4197 Fit       0.003773
 4198 Fit       0.004738
 4199 Fit       0.005279
 4200 Fit       0.005225
 4201 Fit       0.004564
 4202 Fit      -0.036591
 4203 Fit      -0.034721
 4204 Fit      -0.030629
 4205 Fit      -0.026052
 4206 Fit      -0.021913
 4207 Fit      -0.018443
 4208 Fit      -0.015582
 4209 Fit      -0.013202
 4210 Fit      -0.011187
 4211 Fit      -0.009451
 4212 Fit      -0.007942
 4213 Fit      -0.006628
 4214 Fit      -0.005494
 4215 Fit      -0.004533
 4216 Fit      -0.003742
 4217 Fit      -0.003116
 4218 Fit      -0.002645
 4219 Fit      -0.002313
 4220 Fit      -0.002098
 4221 Fit      -0.001969
 4222 Fit      -0.001891
 4223 Fit      -0.001565
 4224 Fit      -0.001484
 4225 Fit      -0.001325
 4226 Fit      -0.001045
 4227 Fit      -0.000606
 4228 Fit       0.000031
 4229 Fit       0.000898
 4230 Fit       0.002019
 4231 Fit       0.003396
 4232 Fit       0.004983
 4233 Fit       0.006626
 4234 Fit       0.008037
 4235 Fit       0.008916
 4236 Fit      -0.039231
 4237 Fit      -0.031724
 4238 Fit      -0.025687
 4239 Fit      -0.021050
 4240 Fit      -0.017468
 4241 Fit      -0.014628
 4242 Fit      -0.012304
 4243 Fit      -0.010349
 4244 Fit      -0.008670
 4245 Fit      -0.007214
 4246 Fit      -0.005952
 4247 Fit      -0.004870
 4248 Fit      -0.003961
 4249 Fit      -0.003222
 4250 Fit      -0.002646
 4251 Fit      -0.002222
 4252 Fit      -0.001933
 4253 Fit      -0.001755
 4254 Fit      -0.001659
 4255 Fit      -0.001609
 4256 Fit      -0.001387
 4257 Fit      -0.001321
 4258 Fit      -0.001175
 4259 Fit      -0.000907
 4260 Fit      -0.000477
 4261 Fit       0.000158
 4262 Fit       0.001040
 4263 Fit       0.002214
 4264 Fit       0.003720
 4265 Fit       0.005574
 4266 Fit       0.007720
 4267 Fit       0.009938
 4268 Fit      -0.038113
 4269 Fit      -0.029694
 4270 Fit      -0.023735
 4271 Fit      -0.019388
 4272 Fit      -0.016083
 4273 Fit      -0.013461
 4274 Fit      -0.011303
 4275 Fit      -0.009475
 4276 Fit      -0.007899
 4277 Fit      -0.006530
 4278 Fit      -0.005346
 4279 Fit      -0.004335
 4280 Fit      -0.003492
 4281 Fit      -0.002813
 4282 Fit      -0.002291
 4283 Fit      -0.001913
 4284 Fit      -0.001663
 4285 Fit      -0.001517
 4286 Fit      -0.001446
 4287 Fit      -0.001416
 4288 Fit      -0.001297
 4289 Fit      -0.001236
 4290 Fit      -0.001090
 4291 Fit      -0.000816
 4292 Fit      -0.000368
 4293 Fit       0.000300
 4294 Fit       0.001239
 4295 Fit       0.002507
 4296 Fit       0.004164
 4297 Fit       0.006262
 4298 Fit       0.008781
 4299 Fit       0.011519
 4300 Fit      -0.041444
 4301 Fit      -0.031356
 4302 Fit      -0.024621
 4303 Fit      -0.019885
 4304 Fit      -0.016368
 4305 Fit      -0.013621
 4306 Fit      -0.011382
 4307 Fit      -0.009499
 4308 Fit      -0.007881
 4309 Fit      -0.006481
 4310 Fit      -0.005271
 4311 Fit      -0.004241
 4312 Fit      -0.003384
 4313 Fit      -0.002696
 4314 Fit      -0.002168
 4315 Fit      -0.001790
 4316 Fit      -0.001543
 4317 Fit      -0.001403
 4318 Fit      -0.001340
 4319 Fit      -0.001318
 4320 Fit      -0.001297
 4321 Fit      -0.001236
 4322 Fit      -0.001090
 4323 Fit      -0.000816
 4324 Fit      -0.000368
 4325 Fit       0.000300
 4326 Fit       0.001239
 4327 Fit       0.002507
 4328 Fit       0.004165
 4329 Fit       0.006263
 4330 Fit       0.008782
 4331 Fit       0.011520
 4332 Fit      -0.041447
 4333 Fit      -0.031357
 4334 Fit      -0.024622
 4335 Fit      -0.019885
 4336 Fit      -0.016368
 4337 Fit      -0.013621
 4338 Fit      -0.011383
 4339 Fit      -0.009499
 4340 Fit      -0.007881
 4341 Fit      -0.006481
 4342 Fit      -0.005271
 4343 Fit      -0.004241
 4344 Fit      -0.003384
 4345 Fit      -0.002696
 4346 Fit      -0.002168
 4347 Fit      -0.001790
 4348 Fit      -0.001543
 4349 Fit      -0.001403
 4350 Fit      -0.001340
 4351 Fit      -0.001318
 4352 Fit      -0.001387
 4353 Fit      -0.001321
 4354 Fit      -0.001175
 4355 Fit      -0.000907
 4356 Fit      -0.000477
 4357 Fit       0.000158
 4358 Fit       0.001041
 4359 Fit       0.002215
 4360 Fit       0.003720
 4361 Fit       0.005575
 4362 Fit       0.007721
 4363 Fit       0.009940
 4364 Fit      -0.038121
 4365 Fit      -0.029699
 4366 Fit      -0.023738
 4367 Fit      -0.019390
 4368 Fit      -0.016084
 4369 Fit      -0.013462
 4370 Fit      -0.011304
 4371 Fit      -0.009476
 4372 Fit      -0.007900
 4373 Fit      -0.006531
 4374 Fit      -0.005346
 4375 Fit      -0.004335
 4376 Fit      -0.003493
 4377 Fit      -0.002813
 4378 Fit      -0.002291
 4379 Fit      -0.001913
 4380 Fit      -0.001663
 4381 Fit      -0.001517
 4382 Fit      -0.001446
 4383 Fit      -0.001416
 4384 Fit      -0.001565
 4385 Fit      -0.001484
 4386 Fit      -0.001325
 4387 Fit      -0.001045
 4388 Fit      -0.000605
 4389 Fit       0.000032
 4390 Fit       0.000899
 4391 Fit       0.002020
 4392 Fit       0.003398
 4393 Fit       0.004984
 4394 Fit       0.006628
 4395 Fit       0.008039
 4396 Fit       0.008917
 4397 Fit      -0.039248
 4398 Fit      -0.031734
 4399 Fit      -0.025693
 4400 Fit      -0.021054
 4401 Fit      -0.017471
 4402 Fit      -0.014630
 4403 Fit      -0.012305
 4404 Fit      -0.010350
 4405 Fit      -0.008671
 4406 Fit      -0.007215
 4407 Fit      -0.005953
 4408 Fit      -0.004871
 4409 Fit      -0.003962
 4410 Fit      -0.003222
 4411 Fit      -0.002646
 4412 Fit      -0.002222
 4413 Fit      -0.001933
 4414 Fit      -0.001755
 4415 Fit      -0.001659
 4416 Fit      -0.001609
 4417 Fit      -0.001824
 4418 Fit      -0.001725
 4419 Fit      -0.001553
 4420 Fit      -0.001270
 4421 Fit      -0.000840
 4422 Fit      -0.000237
 4423 Fit       0.000554
 4424 Fit       0.001526
 4425 Fit       0.002637
 4426 Fit       0.003775
 4427 Fit       0.004740
 4428 Fit       0.005280
 4429 Fit       0.005225
 4430 Fit       0.004561
 4431 Fit      -0.036615
 4432 Fit      -0.034740
 4433 Fit      -0.030642
 4434 Fit      -0.026061
 4435 Fit      -0.021919
 4436 Fit      -0.018447
 4437 Fit      -0.015585
 4438 Fit      -0.013204
 4439 Fit      -0.011188
 4440 Fit      -0.009453
 4441 Fit      -0.007943
 4442 Fit      -0.006629
 4443 Fit      -0.005495
 4444 Fit      -0.004534
 4445 Fit      -0.003743
 4446 Fit      -0.003116
 4447 Fit      -0.002645
 4448 Fit      -0.002314
 4449 Fit      -0.002098
 4450 Fit      -0.001969
 4451 Fit      -0.001891
 4452 Fit      -0.002156
 4453 Fit      -0.002033
 4454 Fit      -0.001845
 4455 Fit      -0.001554
 4456 Fit      -0.001135
 4457 Fit      -0.000574
 4458 Fit       0.000119
 4459 Fit       0.000901
 4460 Fit       0.001676
 4461 Fit       0.002289
 4462 Fit       0.002548
 4463 Fit       0.002300
 4464 Fit       0.001507
 4465 Fit       0.000235
 4466 Fit      -0.004123
 4467 Fit      -0.014285
 4468 Fit      -0.019849
 4469 Fit      -0.024329
 4470 Fit      -0.026847
 4471 Fit      -0.027063
 4472 Fit      -0.025361
 4473 Fit      -0.022649
 4474 Fit      -0.019721
 4475 Fit      -0.016986
 4476 Fit      -0.014570
 4477 Fit      -0.012468
 4478 Fit      -0.010636
 4479 Fit      -0.009032
 4480 Fit      -0.007625
 4481 Fit      -0.006400
 4482 Fit      -0.005350
 4483 Fit      -0.004473
 4484 Fit      -0.003764
 4485 Fit      -0.003218
 4486 Fit      -0.002820
 4487 Fit      -0.002548
 4488 Fit      -0.002371
 4489 Fit      -0.002255
 4490 Fit      -0.002554
 4491 Fit      -0.002401
 4492 Fit      -0.002191
 4493 Fit      -0.001893
 4494 Fit      -0.001490
 4495 Fit      -0.000990
 4496 Fit      -0.000438
 4497 Fit       0.000079
 4498 Fit       0.000427
 4499 Fit       0.000453
 4500 Fit       0.000045
 4501 Fit      -0.000804
 4502 Fit      -0.001988
 4503 Fit      -0.003333
 4504 Fit      -0.004727
 4505 Fit      -0.006372
 4506 Fit      -0.008773
 4507 Fit      -0.012129
 4508 Fit      -0.015853
 4509 Fit      -0.018992
 4510 Fit      -0.020822
 4511 Fit      -0.021093
 4512 Fit      -0.020056
 4513 Fit      -0.018254
 4514 Fit      -0.016182
 4515 Fit      -0.014134
 4516 Fit      -0.012236
 4517 Fit      -0.010521
 4518 Fit      -0.008988
 4519 Fit      -0.007632
 4520 Fit      -0.006450
 4521 Fit      -0.005443
 4522 Fit      -0.004611
 4523 Fit      -0.003952
 4524 Fit      -0.003456
 4525 Fit      -0.003101
 4526 Fit      -0.002860
 4527 Fit      -0.002692
 4528 Fit      -0.003006
 4529 Fit      -0.002823
 4530 Fit      -0.002599
 4531 Fit      -0.002312
 4532 Fit      -0.001961
 4533 Fit      -0.001582
 4534 Fit      -0.001249
 4535 Fit      -0.001075
 4536 Fit      -0.001181
 4537 Fit      -0.001648
 4538 Fit      -0.002467
 4539 Fit      -0.003552
 4540 Fit      -0.004817
 4541 Fit      -0.006297
 4542 Fit      -0.008181
 4543 Fit      -0.010568
 4544 Fit      -0.013171
 4545 Fit      -0.015403
 4546 Fit      -0.016741
 4547 Fit      -0.016986
 4548 Fit      -0.016292
 4549 Fit      -0.015003
 4550 Fit      -0.013450
 4551 Fit      -0.011849
 4552 Fit      -0.010314
 4553 Fit      -0.008896
 4554 Fit      -0.007621
 4555 Fit      -0.006503
 4556 Fit      -0.005556
 4557 Fit      -0.004783
 4558 Fit      -0.004181
 4559 Fit      -0.003735
 4560 Fit      -0.003417
 4561 Fit      -0.003189
 4562 Fit      -0.003506
 4563 Fit      -0.003288
 4564 Fit      -0.003054
 4565 Fit      -0.002793
 4566 Fit      -0.002530
 4567 Fit      -0.002335
 4568 Fit      -0.002313
 4569 Fit      -0.002567
 4570 Fit      -0.003150
 4571 Fit      -0.004042
 4572 Fit      -0.005184
 4573 Fit      -0.006573
 4574 Fit      -0.008262
 4575 Fit      -0.010201
 4576 Fit      -0.012085
 4577 Fit      -0.013470
 4578 Fit      -0.014049
 4579 Fit      -0.013802
 4580 Fit      -0.012941
 4581 Fit      -0.011737
 4582 Fit      -0.010406
 4583 Fit      -0.009083
 4584 Fit      -0.007847
 4585 Fit      -0.006748
 4586 Fit      -0.005813
 4587 Fit      -0.005057
 4588 Fit      -0.004478
 4589 Fit      -0.004053
 4590 Fit      -0.003745
 4591 Fit      -0.004046
 4592 Fit      -0.003799
 4593 Fit      -0.003577
 4594 Fit      -0.003388
 4595 Fit      -0.003291
 4596 Fit      -0.003381
 4597 Fit      -0.003750
 4598 Fit      -0.004436
 4599 Fit      -0.005418
 4600 Fit      -0.006662
 4601 Fit      -0.008129
 4602 Fit      -0.009676
 4603 Fit      -0.010992
 4604 Fit      -0.011743
 4605 Fit      -0.011786
 4606 Fit      -0.011219
 4607 Fit      -0.010264
 4608 Fit      -0.009136
 4609 Fit      -0.007994
 4610 Fit      -0.006937
 4611 Fit      -0.006030
 4612 Fit      -0.005301
 4613 Fit      -0.004749
 4614 Fit      -0.004346
 4615 Fit      -0.004623
 4616 Fit      -0.004350
 4617 Fit      -0.004180
 4618 Fit      -0.004163
 4619 Fit      -0.004402
 4620 Fit      -0.004982
 4621 Fit      -0.005912
 4622 Fit      -0.007119
 4623 Fit      -0.008438
 4624 Fit      -0.009553
 4625 Fit      -0.010111
 4626 Fit      -0.009973
 4627 Fit      -0.009282
 4628 Fit      -0.008299
 4629 Fit      -0.007259
 4630 Fit      -0.006321
 4631 Fit      -0.005568
 4632 Fit      -0.005013
 4633 Fit      -0.005240
 4634 Fit      -0.004975
 4635 Fit      -0.004996
 4636 Fit      -0.005414
 4637 Fit      -0.006274
 4638 Fit      -0.007411
 4639 Fit      -0.008405
 4640 Fit      -0.008762
 4641 Fit      -0.008354
 4642 Fit      -0.007479
 4643 Fit      -0.006528
 4644 Fit      -0.005755
 4645 Fit      -0.005904
 4646 Fit      -0.005812
 4647 Fit      -0.006513
 4648 Fit      -0.007452
 4649 Fit      -0.007475
 4650 Fit      -0.006635
 4651 Fit      -0.006632
 4652 Fit       0.012668
 4653 Fit       0.011553
 4654 Fit       0.015592
 4655 Fit       0.014522
 4656 Fit       0.013405
 4657 Fit       0.012076
 4658 Fit       0.010518
 4659 Fit       0.017537
 4660 Fit       0.016154
 4661 Fit       0.015058
 4662 Fit       0.013960
 4663 Fit       0.012756
 4664 Fit       0.011523
 4665 Fit       0.019814
 4666 Fit       0.017659
 4667 Fit       0.016321
 4668 Fit       0.015214
 4669 Fit       0.014088
 4670 Fit       0.012900
 4671 Fit       0.011855
 4672 Fit       0.019813
 4673 Fit       0.017659
 4674 Fit       0.016320
 4675 Fit       0.015214
 4676 Fit       0.014088
 4677 Fit       0.012900
 4678 Fit       0.011855
 4679 Fit       0.017534
 4680 Fit       0.016152
 4681 Fit       0.015056
 4682 Fit       0.013958
 4683 Fit       0.012755
 4684 Fit       0.011523
 4685 Fit       0.015588
 4686 Fit       0.014519
 4687 Fit       0.013403
 4688 Fit       0.012074
 4689 Fit       0.010517
 4690 Fit       0.012664
 4691 Fit       0.011550
 4692 Fit       0.014288
 4693 Fit       0.014326
 4694 Fit       0.014053
 4695 Fit       0.016809
 4696 Fit       0.016402
 4697 Fit       0.016205
 4698 Fit       0.016102
 4699 Fit       0.016140
 4700 Fit       0.019358
 4701 Fit       0.018142
 4702 Fit       0.017609
 4703 Fit       0.017384
 4704 Fit       0.017336
 4705 Fit       0.017546
 4706 Fit       0.018340
 4707 Fit       0.019402
 4708 Fit       0.018459
 4709 Fit       0.018066
 4710 Fit       0.017934
 4711 Fit       0.018041
 4712 Fit       0.018631
 4713 Fit       0.020373
 4714 Fit       0.019402
 4715 Fit       0.018458
 4716 Fit       0.018066
 4717 Fit       0.017933
 4718 Fit       0.018041
 4719 Fit       0.018630
 4720 Fit       0.020372
 4721 Fit       0.019359
 4722 Fit       0.018141
 4723 Fit       0.017608
 4724 Fit       0.017382
 4725 Fit       0.017334
 4726 Fit       0.017545
 4727 Fit       0.018338
 4728 Fit       0.016808
 4729 Fit       0.016400
 4730 Fit       0.016202
 4731 Fit       0.016099
 4732 Fit       0.016137
 4733 Fit       0.014284
 4734 Fit       0.014323
 4735 Fit       0.014049
 4736 Fit       0.011819
 4737 Fit       0.013063
 4738 Fit       0.011272
 4739 Fit       0.013080
 4740 Fit       0.014330
 4741 Fit       0.015357
 4742 Fit       0.016442
 4743 Fit       0.011003
 4744 Fit       0.012933
 4745 Fit       0.014275
 4746 Fit       0.015328
 4747 Fit       0.016300
 4748 Fit       0.017475
 4749 Fit       0.019314
 4750 Fit       0.011514
 4751 Fit       0.013320
 4752 Fit       0.014612
 4753 Fit       0.015651
 4754 Fit       0.016611
 4755 Fit       0.017752
 4756 Fit       0.019569
 4757 Fit       0.011514
 4758 Fit       0.013320
 4759 Fit       0.014612
 4760 Fit       0.015651
 4761 Fit       0.016611
 4762 Fit       0.017751
 4763 Fit       0.019568
 4764 Fit       0.011001
 4765 Fit       0.012931
 4766 Fit       0.014274
 4767 Fit       0.015326
 4768 Fit       0.016298
 4769 Fit       0.017472
 4770 Fit       0.019309
 4771 Fit       0.011269
 4772 Fit       0.013077
 4773 Fit       0.014327
 4774 Fit       0.015354
 4775 Fit       0.016436
 4776 Fit       0.011816
 4777 Fit       0.013058
 4778 Fit      -0.003200
 4779 Fit      -0.010835
 4780 Fit       0.001903
 4781 Fit      -0.004020
 4782 Fit      -0.012207
 4783 Fit       0.007640
 4784 Fit       0.002485
 4785 Fit      -0.003351
 4786 Fit      -0.011178
 4787 Fit       0.007176
 4788 Fit       0.001666
 4789 Fit      -0.004758
 4790 Fit      -0.013700
 4791 Fit       0.007175
 4792 Fit       0.001665
 4793 Fit      -0.004759
 4794 Fit      -0.013702
 4795 Fit       0.007635
 4796 Fit       0.002482
 4797 Fit      -0.003354
 4798 Fit      -0.011183
 4799 Fit       0.001898
 4800 Fit      -0.004025
 4801 Fit      -0.012214
 4802 Fit      -0.003206
 4803 Fit      -0.010843
 4804 Fit       0.009145
 4805 Fit       0.015547
 4806 Fit       0.016668
 4807 Fit       0.016667
 4808 Fit       0.015544
 4809 Fit       0.009144
 4810 Fit       0.014087
 4811 Fit       0.013998
 4812 Fit       0.017536
 4813 Fit       0.017278
 4814 Fit       0.017099
 4815 Fit       0.020364
 4816 Fit       0.019474
 4817 Fit       0.019258
 4818 Fit       0.019465
 4819 Fit       0.022593
 4820 Fit       0.020816
 4821 Fit       0.020317
 4822 Fit       0.020519
 4823 Fit       0.022591
 4824 Fit       0.020815
 4825 Fit       0.020316
 4826 Fit       0.020519
 4827 Fit       0.020358
 4828 Fit       0.019470
 4829 Fit       0.019256
 4830 Fit       0.019465
 4831 Fit       0.017529
 4832 Fit       0.017274
 4833 Fit       0.017097
 4834 Fit       0.014082
 4835 Fit       0.013995
 4836 Fit       0.010957
 4837 Fit       0.011769
 4838 Fit       0.012219
 4839 Fit       0.013325
 4840 Fit       0.014424
 4841 Fit       0.015648
 4842 Fit       0.017186
 4843 Fit       0.013649
 4844 Fit       0.014192
 4845 Fit       0.015044
 4846 Fit       0.016089
 4847 Fit       0.017466
 4848 Fit       0.019635
 4849 Fit       0.014791
 4850 Fit       0.014950
 4851 Fit       0.015660
 4852 Fit       0.016660
 4853 Fit       0.018024
 4854 Fit       0.020214
 4855 Fit       0.014791
 4856 Fit       0.014949
 4857 Fit       0.015659
 4858 Fit       0.016659
 4859 Fit       0.018024
 4860 Fit       0.020215
 4861 Fit       0.013649
 4862 Fit       0.014191
 4863 Fit       0.015043
 4864 Fit       0.016089
 4865 Fit       0.017467
 4866 Fit       0.019638
 4867 Fit       0.012218
 4868 Fit       0.013323
 4869 Fit       0.014423
 4870 Fit       0.015650
 4871 Fit       0.017192
 4872 Fit       0.010955
 4873 Fit       0.011768
 4874 Fit       0.011405
 4875 Fit       0.012475
 4876 Fit       0.012226
 4877 Fit       0.013500
 4878 Fit       0.012225
 4879 Fit       0.013499
 4880 Fit       0.011404
 4881 Fit       0.012472
 -----------------------------------------------------------------
 Leave Link  602 at Fri Jan 17 11:57:19 2014, MaxMem=   235929600 cpu:         1.8

 Test job not archived.
 1\1\GINC-G42\SP\RHF\Gen\C11H8I1N3O2\KOLAR\17-Jan-2014\0\\# hf/gen pseu
 do=read pop=(mk, readradii) iop(6/33=2,6/41=5,6/42=2)\\na resp\\0,1\C,
 0,6.897994,-1.165374,-0.000498\C,0,7.282259,0.17599,-0.000623\C,0,6.28
 6168,1.155268,-0.000346\N,0,4.98051,0.87068,0.000014\C,0,4.620432,-0.4
 23916,0.000138\C,0,5.539864,-1.475692,-0.000107\C,0,3.14541,-0.751133,
 0.000586\O,0,2.732688,-1.898546,0.000492\N,0,2.35894,0.379802,0.000546
 \N,0,1.008322,0.305721,0.000647\C,0,0.377038,1.428155,0.000507\C,0,-1.
 060871,1.509375,0.000202\C,0,-1.900568,2.597284,-0.000386\C,0,-3.23414
 8,2.090807,0.000085\C,0,-3.104041,0.731272,-0.000109\O,0,-1.803314,0.3
 55493,0.000066\I,0,-4.540505,-0.791775,-0.000146\H,0,7.644165,-1.95505
 9,-0.000703\H,0,8.329306,0.463115,-0.000925\H,0,6.547875,2.211664,-0.0
 00437\H,0,5.170682,-2.494866,0.000015\H,0,2.848507,1.276132,0.000426\H
 ,0,0.895659,2.395873,0.000232\H,0,-1.598323,3.635735,-0.000649\H,0,-4.
 157691,2.650266,0.000169\\Version=AM64L-G09RevD.01\State=1-A\HF=-745.3
 603302\RMSD=6.738e-09\Dipole=1.5588098,1.9747924,-0.0004313\Quadrupole
 =23.9380555,-6.7192365,-17.218819,0.2654074,-0.0044087,0.0008321\PG=C0
 1 [X(C11H8I1N3O2)]\\@


 CHINESE FORTUNE COOKIE OF JAN 1 1967 SAY....
 ALL THINGS ARE DIFFICULT BEFORE THEY ARE EASY.
 WE LEARN SO LITTLE AND FORGET SO MUCH.
 YOU WILL OVERCOME OBSTACLES TO ACHIEVE SUCCESS.
 AH SO.
 Job cpu time:       0 days  0 hours  2 minutes 47.1 seconds.
 File lengths (MBytes):  RWF=     35 Int=      0 D2E=      0 Chk=      3 Scr=      1
 Normal termination of Gaussian 09 at Fri Jan 17 11:57:19 2014.
166.79user 0.35system 2:47.89elapsed 99%CPU (0avgtext+0avgdata 603568maxresident)k
8inputs+153128outputs (0major+171619minor)pagefaults 0swaps
