Linux g42 2.6.38.6-client #1 SMP Tue Jun 12 11:27:21 CEST 2012 x86_64 GNU/Linux
Fri Jan 17 11:54:31 CET 2014

 Entering Gaussian System, Link 0=/usr/local/programs/common/gaussian/gaussian09_d01/arch/amd64-pgi_10.4.0-acml/g09/g09
 Initial command:
 /usr/local/programs/common/gaussian/gaussian09_d01/arch/amd64-pgi_10.4.0-acml/g09/l1.exe "/scratch/kolar/g09_20031/Gau-20612.inp" -scrdir="/scratch/kolar/g09_20031/"
 Entering Link 1 = /usr/local/programs/common/gaussian/gaussian09_d01/arch/amd64-pgi_10.4.0-acml/g09/l1.exe PID=     20619.
  
 Copyright (c) 1988,1990,1992,1993,1995,1998,2003,2009,2013,
            Gaussian, Inc.  All Rights Reserved.
  
 This is part of the Gaussian(R) 09 program.  It is based on
 the Gaussian(R) 03 system (copyright 2003, Gaussian, Inc.),
 the Gaussian(R) 98 system (copyright 1998, Gaussian, Inc.),
 the Gaussian(R) 94 system (copyright 1995, Gaussian, Inc.),
 the Gaussian 92(TM) system (copyright 1992, Gaussian, Inc.),
 the Gaussian 90(TM) system (copyright 1990, Gaussian, Inc.),
 the Gaussian 88(TM) system (copyright 1988, Gaussian, Inc.),
 the Gaussian 86(TM) system (copyright 1986, Carnegie Mellon
 University), and the Gaussian 82(TM) system (copyright 1983,
 Carnegie Mellon University). Gaussian is a federally registered
 trademark of Gaussian, Inc.
  
 This software contains proprietary and confidential information,
 including trade secrets, belonging to Gaussian, Inc.
  
 This software is provided under written license and may be
 used, copied, transmitted, or stored only in accord with that
 written license.
  
 The following legend is applicable only to US Government
 contracts under FAR:
  
                    RESTRICTED RIGHTS LEGEND
  
 Use, reproduction and disclosure by the US Government is
 subject to restrictions as set forth in subparagraphs (a)
 and (c) of the Commercial Computer Software - Restricted
 Rights clause in FAR 52.227-19.
  
 Gaussian, Inc.
 340 Quinnipiac St., Bldg. 40, Wallingford CT 06492
  
  
 ---------------------------------------------------------------
 Warning -- This program may not be used in any manner that
 competes with the business of Gaussian, Inc. or will provide
 assistance to any competitor of Gaussian, Inc.  The licensee
 of this program is prohibited from giving any competitor of
 Gaussian, Inc. access to this program.  By using this program,
 the user acknowledges that Gaussian, Inc. is engaged in the
 business of creating and licensing software in the field of
 computational chemistry and represents and warrants to the
 licensee that it is not a competitor of Gaussian, Inc. and that
 it will not use this program in any manner prohibited above.
 ---------------------------------------------------------------
  

 Cite this work as:
 Gaussian 09, Revision D.01,
 M. J. Frisch, G. W. Trucks, H. B. Schlegel, G. E. Scuseria, 
 M. A. Robb, J. R. Cheeseman, G. Scalmani, V. Barone, B. Mennucci, 
 G. A. Petersson, H. Nakatsuji, M. Caricato, X. Li, H. P. Hratchian, 
 A. F. Izmaylov, J. Bloino, G. Zheng, J. L. Sonnenberg, M. Hada, 
 M. Ehara, K. Toyota, R. Fukuda, J. Hasegawa, M. Ishida, T. Nakajima, 
 Y. Honda, O. Kitao, H. Nakai, T. Vreven, J. A. Montgomery, Jr., 
 J. E. Peralta, F. Ogliaro, M. Bearpark, J. J. Heyd, E. Brothers, 
 K. N. Kudin, V. N. Staroverov, T. Keith, R. Kobayashi, J. Normand, 
 K. Raghavachari, A. Rendell, J. C. Burant, S. S. Iyengar, J. Tomasi, 
 M. Cossi, N. Rega, J. M. Millam, M. Klene, J. E. Knox, J. B. Cross, 
 V. Bakken, C. Adamo, J. Jaramillo, R. Gomperts, R. E. Stratmann, 
 O. Yazyev, A. J. Austin, R. Cammi, C. Pomelli, J. W. Ochterski, 
 R. L. Martin, K. Morokuma, V. G. Zakrzewski, G. A. Voth, 
 P. Salvador, J. J. Dannenberg, S. Dapprich, A. D. Daniels, 
 O. Farkas, J. B. Foresman, J. V. Ortiz, J. Cioslowski, 
 and D. J. Fox, Gaussian, Inc., Wallingford CT, 2013.
 
 ******************************************
 Gaussian 09:  AM64L-G09RevD.01 24-Apr-2013
                17-Jan-2014 
 ******************************************
 %mem=1800mb
 ------------------------------------------------------------------
 # hf/gen pseudo=read pop=(mk, readradii) iop(6/33=2,6/41=5,6/42=2)
 ------------------------------------------------------------------
 1/38=1/1;
 2/12=2,17=6,18=5,40=1/2;
 3/5=7,11=9,16=1,17=8,25=1,30=1/1,2,3;
 4//1;
 5/5=2,38=5/2;
 6/7=2,8=2,9=2,10=2,15=8,20=101,28=1,33=2,41=5,42=2/1,2;
 99/5=1,9=1/99;
 -------
 na resp
 -------
 Symbolic Z-matrix:
 Charge =  0 Multiplicity = 1
 6                     6.11974  -0.27229  -0.57336 
 6                     5.50407  -1.47925  -0.23944 
 7                     4.2117   -1.56481   0.07461 
 6                     3.52634  -0.4049    0.05232 
 7                     4.00192   0.80782  -0.23946 
 6                     5.30055   0.85451  -0.55112 
 7                     2.18933  -0.56201   0.4015 
 6                     1.15737   0.35377   0.40346 
 7                     1.14067   1.50584  -0.13216 
 6                    -0.08803   2.21539   0.16982 
 6                    -1.23732   1.21812   0.54206 
 1                    -1.88722   1.64929   1.30624 
 16                   -0.33432  -0.20167   1.28713 
 6                    -2.04806   0.84125  -0.69056 
 53                   -3.76642  -0.47449  -0.26162 
 1                     7.17125  -0.21521  -0.83076 
 1                     6.06345  -2.41342  -0.22229 
 1                     5.6947    1.84122  -0.79006 
 1                     1.96131  -1.5174    0.64392 
 1                    -0.38141   2.83363  -0.68716 
 1                     0.08631   2.89674   1.01475 
 1                    -2.49853   1.72627  -1.14352 
 1                    -1.45344   0.30572  -1.4302 
 
                          Input orientation:                          
 ---------------------------------------------------------------------
 Center     Atomic      Atomic             Coordinates (Angstroms)
 Number     Number       Type             X           Y           Z
 ---------------------------------------------------------------------
      1          6           0        6.119736   -0.272286   -0.573359
      2          6           0        5.504067   -1.479247   -0.239441
      3          7           0        4.211702   -1.564807    0.074611
      4          6           0        3.526341   -0.404900    0.052320
      5          7           0        4.001921    0.807817   -0.239456
      6          6           0        5.300547    0.854507   -0.551124
      7          7           0        2.189325   -0.562010    0.401503
      8          6           0        1.157366    0.353773    0.403462
      9          7           0        1.140672    1.505843   -0.132156
     10          6           0       -0.088034    2.215389    0.169824
     11          6           0       -1.237318    1.218122    0.542061
     12          1           0       -1.887217    1.649290    1.306236
     13         16           0       -0.334323   -0.201666    1.287134
     14          6           0       -2.048057    0.841254   -0.690563
     15         53           0       -3.766424   -0.474486   -0.261616
     16          1           0        7.171252   -0.215205   -0.830759
     17          1           0        6.063449   -2.413415   -0.222294
     18          1           0        5.694700    1.841221   -0.790059
     19          1           0        1.961313   -1.517404    0.643915
     20          1           0       -0.381407    2.833627   -0.687156
     21          1           0        0.086310    2.896742    1.014754
     22          1           0       -2.498529    1.726269   -1.143523
     23          1           0       -1.453443    0.305716   -1.430198
 ---------------------------------------------------------------------
                    Distance matrix (angstroms):
                    1          2          3          4          5
     1  C    0.000000
     2  C    1.395458   0.000000
     3  N    2.393965   1.332725   0.000000
     4  C    2.671097   2.269526   1.347442   0.000000
     5  N    2.400678   2.736257   2.402497   1.334913   0.000000
     6  C    1.393279   2.363255   2.725841   2.257888   1.336318
     7  N    4.059855   3.498521   2.280892   1.390764   2.360669
     8  C    5.096199   4.760997   3.621886   2.512156   2.951439
     9  N    5.305420   5.287862   4.347743   3.062089   2.947117
    10  C    6.728838   6.714866   5.725965   4.465807   4.344710
    11  C    7.588921   7.302932   6.136369   5.056332   5.313073
    12  H    8.446101   8.173612   7.003152   5.924408   6.146478
    13  S    6.717239   6.168423   4.898439   4.058423   4.706649
    14  C    8.244183   7.913458   6.749756   5.760094   6.066865
    15  I    9.893140   9.324808   8.059302   7.299851   7.873498
    16  H    1.084066   2.174158   3.376397   3.755155   3.382436
    17  H    2.170449   1.088978   2.058459   3.247532   3.824464
    18  H    2.166686   3.371206   3.814179   3.233642   2.058297
    19  H    4.508276   3.651422   2.321768   2.009219   3.217309
    20  H    7.205866   7.310276   6.404933   5.128877   4.849526
    21  H    6.997648   7.076325   6.148833   4.864250   4.611796
    22  H    8.865314   8.668001   7.572465   6.501614   6.626971
    23  H    7.643383   7.280861   6.152818   5.244148   5.606333
                    6          7          8          9         10
     6  C    0.000000
     7  N    3.548763   0.000000
     8  C    4.281112   1.379711   0.000000
     9  N    4.231351   2.379177   1.270602   0.000000
    10  C    5.604335   3.599164   2.251937   1.450643   0.000000
    11  C    6.638595   3.864002   2.549671   2.488411   1.566511
    12  H    7.466285   4.725101   3.429701   3.355244   2.202035
    13  S    6.020503   2.698701   1.820584   2.665630   2.674172
    14  C    7.349939   4.595342   3.421880   3.304768   2.543659
    15  I    9.168424   5.993191   5.037068   5.293208   4.577349
    16  H    2.173020   5.143767   6.165538   6.310146   7.720504
    17  H    3.371863   4.338855   5.667323   6.293047   7.708458
    18  H    1.089060   4.413954   4.921828   4.613511   5.873788
    19  H    4.266681   1.011697   2.050720   3.227346   4.284662
    20  H    6.018307   4.395929   3.115597   2.094698   1.096677
    21  H    5.814720   4.094107   2.826222   2.088464   1.099338
    22  H    7.869974   5.440524   4.200295   3.783548   2.788298
    23  H    6.833032   4.168673   3.190759   3.139212   2.840997
                   11         12         13         14         15
    11  C    0.000000
    12  H    1.091897   0.000000
    13  S    1.840199   2.416171   0.000000
    14  C    1.522724   2.160092   2.817064   0.000000
    15  I    3.147570   3.240371   3.775232   2.206344   0.000000
    16  H    8.639624   9.492047   7.798674   9.280701  10.955542
    17  H    8.189841   9.058425   6.935538   8.752638  10.019351
    18  H    7.086302   7.868720   6.696061   7.807696   9.754723
    19  H    4.210073   5.027704   2.723021   4.839333   5.891913
    20  H    2.203047   2.764730   3.621193   2.597553   4.752161
    21  H    2.189337   2.352851   3.138671   3.418868   5.276159
    22  H    2.165655   2.526054   3.782699   1.091490   2.688613
    23  H    2.183804   3.079192   2.982241   1.089691   2.706322
                   16         17         18         19         20
    16  H    0.000000
    17  H    2.535663   0.000000
    18  H    2.531946   4.308162   0.000000
    19  H    5.569008   4.287269   5.222530   0.000000
    20  H    8.146082   8.323684   6.157478   5.117769   0.000000
    21  H    7.955283   8.090380   5.985442   4.810181   1.766137
    22  H    9.867715   9.554743   8.201655   5.797115   2.432431
    23  H    8.661181   8.084329   7.339176   4.391614   2.844593
                   21         22         23
    21  H    0.000000
    22  H    3.565047   0.000000
    23  H    3.880985   1.786717   0.000000
 Stoichiometry    C8H9IN4S
 Framework group  C1[X(C8H9IN4S)]
 Deg. of freedom    63
 Full point group                 C1      NOp   1
 Largest Abelian subgroup         C1      NOp   1
 Largest concise Abelian subgroup C1      NOp   1
                         Standard orientation:                         
 ---------------------------------------------------------------------
 Center     Atomic      Atomic             Coordinates (Angstroms)
 Number     Number       Type             X           Y           Z
 ---------------------------------------------------------------------
      1          6           0        6.119736   -0.272286   -0.573359
      2          6           0        5.504067   -1.479247   -0.239441
      3          7           0        4.211702   -1.564807    0.074611
      4          6           0        3.526341   -0.404900    0.052320
      5          7           0        4.001921    0.807817   -0.239456
      6          6           0        5.300547    0.854507   -0.551124
      7          7           0        2.189325   -0.562010    0.401503
      8          6           0        1.157366    0.353773    0.403462
      9          7           0        1.140672    1.505843   -0.132156
     10          6           0       -0.088034    2.215389    0.169824
     11          6           0       -1.237318    1.218122    0.542061
     12          1           0       -1.887217    1.649290    1.306236
     13         16           0       -0.334323   -0.201666    1.287134
     14          6           0       -2.048057    0.841254   -0.690563
     15         53           0       -3.766424   -0.474486   -0.261616
     16          1           0        7.171252   -0.215205   -0.830759
     17          1           0        6.063449   -2.413415   -0.222294
     18          1           0        5.694700    1.841221   -0.790059
     19          1           0        1.961313   -1.517404    0.643915
     20          1           0       -0.381407    2.833627   -0.687156
     21          1           0        0.086310    2.896742    1.014754
     22          1           0       -2.498529    1.726269   -1.143523
     23          1           0       -1.453443    0.305716   -1.430198
 ---------------------------------------------------------------------
 Rotational constants (GHZ):      1.4055173      0.1279358      0.1225519
 General basis read from cards:  (5D, 7F)
 ======================================================================================================
                                       Pseudopotential Parameters
 ======================================================================================================
  Center     Atomic      Valence      Angular      Power
  Number     Number     Electrons     Momentum     of R      Exponent        Coefficient   SO-Coeffient
 ======================================================================================================
    1          6
                                   No pseudopotential on this center.
    2          6
                                   No pseudopotential on this center.
    3          7
                                   No pseudopotential on this center.
    4          6
                                   No pseudopotential on this center.
    5          7
                                   No pseudopotential on this center.
    6          6
                                   No pseudopotential on this center.
    7          7
                                   No pseudopotential on this center.
    8          6
                                   No pseudopotential on this center.
    9          7
                                   No pseudopotential on this center.
   10          6
                                   No pseudopotential on this center.
   11          6
                                   No pseudopotential on this center.
   12          1
                                   No pseudopotential on this center.
   13         16
                                   No pseudopotential on this center.
   14          6
                                   No pseudopotential on this center.
   15         53            7
                                      F and up 
                                                     0        1.0715702       -0.07476210    0.00000000
                                                     1       44.1936028      -30.08112240    0.00000000
                                                     2       12.9367609      -75.37227210    0.00000000
                                                     2        3.1956412      -22.05637580    0.00000000
                                                     2        0.8589806       -1.69795850    0.00000000
                                      S - F
                                                     0      127.9202670        2.93800360    0.00000000
                                                     1       78.6211465       41.24712670    0.00000000
                                                     2       36.5146237      287.86800950    0.00000000
                                                     2        9.9065681      114.37585060    0.00000000
                                                     2        1.9420086       37.65477140    0.00000000
                                      P - F
                                                     0       13.0035304        2.22226300    0.00000000
                                                     1       76.0331404       39.40908310    0.00000000
                                                     2       24.1961684      177.40750020    0.00000000
                                                     2        6.4053433       77.98894620    0.00000000
                                                     2        1.5851786       25.75476410    0.00000000
                                      D - F
                                                     0       40.4278108        7.05243600    0.00000000
                                                     1       28.9084375       33.30416350    0.00000000
                                                     2       15.6268936      186.94538750    0.00000000
                                                     2        4.1442856       71.96883610    0.00000000
                                                     2        0.9377235        9.36306570    0.00000000
   16          1
                                   No pseudopotential on this center.
   17          1
                                   No pseudopotential on this center.
   18          1
                                   No pseudopotential on this center.
   19          1
                                   No pseudopotential on this center.
   20          1
                                   No pseudopotential on this center.
   21          1
                                   No pseudopotential on this center.
   22          1
                                   No pseudopotential on this center.
   23          1
                                   No pseudopotential on this center.
 ======================================================================================================
 There are   225 symmetry adapted cartesian basis functions of A   symmetry.
 There are   212 symmetry adapted basis functions of A   symmetry.
   212 basis functions,   436 primitive gaussians,   225 cartesian basis functions
    54 alpha electrons       54 beta electrons
       nuclear repulsion energy       911.1893355303 Hartrees.
 NAtoms=   23 NActive=   23 NUniq=   23 SFac= 1.00D+00 NAtFMM=   60 NAOKFM=F Big=F
 Integral buffers will be    131072 words long.
 Raffenetti 1 integral format.
 Two-electron integral symmetry is turned on.
 One-electron integrals computed using PRISM.
   1 Symmetry operations used in ECPInt.
 ECPInt:  NShTT=    2850 NPrTT=   18614 LenC2=    2564 LenP2D=   10457.
 LDataN:  DoStor=T MaxTD1= 5 Len=  102
 NBasis=   212 RedAO= T EigKep=  1.70D-03  NBF=   212
 NBsUse=   212 1.00D-06 EigRej= -1.00D+00 NBFU=   212
 ExpMin= 1.05D-01 ExpMax= 2.19D+04 ExpMxC= 3.30D+03 IAcc=1 IRadAn=         1 AccDes= 0.00D+00
 Harris functional with IExCor=  205 and IRadAn=       1 diagonalized for initial guess.
 HarFok:  IExCor=  205 AccDes= 0.00D+00 IRadAn=         1 IDoV= 1 UseB2=F ITyADJ=14
 ICtDFT=  3500011 ScaDFX=  1.000000  1.000000  1.000000  1.000000
 Defaulting to unpruned grid for atomic number  53.
 FoFCou: FMM=F IPFlag=           0 FMFlag=      100000 FMFlg1=           0
         NFxFlg=           0 DoJE=T BraDBF=F KetDBF=T FulRan=T
         wScrn=  0.000000 ICntrl=     500 IOpCl=  0 I1Cent=   200000004 NGrid=           0
         NMat0=    1 NMatS0=      1 NMatT0=    0 NMatD0=    1 NMtDS0=    0 NMtDT0=    0
 Petite list used in FoFCou.
 Requested convergence on RMS density matrix=1.00D-08 within 128 cycles.
 Requested convergence on MAX density matrix=1.00D-06.
 Requested convergence on             energy=1.00D-06.
 No special actions if energy rises.
 Integral accuracy reduced to 1.0D-05 until final iterations.
 Initial convergence to 1.0D-05 achieved.  Increase integral accuracy.
 SCF Done:  E(RHF) =  -934.639335968     A.U. after   16 cycles
            NFock= 16  Conv=0.40D-08     -V/T= 2.0094

 **********************************************************************

            Population analysis using the SCF density.

 **********************************************************************

 Orbital symmetries:
 BldTbl:  Degeneracy threshold= 1.00D-02
       Occupied  (A) (A) (A) (A) (A) (A) (A) (A) (A) (A) (A) (A)
                 (A) (A) (A) (A) (A) (A) (A) (A) (A) (A) (A) (A)
                 (A) (A) (A) (A) (A) (A) (A) (A) (A) (A) (A) (A)
                 (A) (A) (A) (A) (A) (A) (A) (A) (A) (A) (A) (A)
                 (A) (A) (A) (A) (A) (A)
       Virtual   (A) (A) (A) (A) (A) (A) (A) (A) (A) (A) (A) (A)
                 (A) (A) (A) (A) (A) (A) (A) (A) (A) (A) (A) (A)
                 (A) (A) (A) (A) (A) (A) (A) (A) (A) (A) (A) (A)
                 (A) (A) (A) (A) (A) (A) (A) (A) (A) (A) (A) (A)
                 (A) (A) (A) (A) (A) (A) (A) (A) (A) (A) (A) (A)
                 (A) (A) (A) (A) (A) (A) (A) (A) (A) (A) (A) (A)
                 (A) (A) (A) (A) (A) (A) (A) (A) (A) (A) (A) (A)
                 (A) (A) (A) (A) (A) (A) (A) (A) (A) (A) (A) (A)
                 (A) (A) (A) (A) (A) (A) (A) (A) (A) (A) (A) (A)
                 (A) (A) (A) (A) (A) (A) (A) (A) (A) (A) (A) (A)
                 (A) (A) (A) (A) (A) (A) (A) (A) (A) (A) (A) (A)
                 (A) (A) (A) (A) (A) (A) (A) (A) (A) (A) (A) (A)
                 (A) (A) (A) (A) (A) (A) (A) (A) (A) (A) (A) (A)
                 (A) (A)
 The electronic state is 1-A.
 Alpha  occ. eigenvalues --  -91.95708 -15.61434 -15.57815 -15.57202 -15.55297
 Alpha  occ. eigenvalues --  -11.36847 -11.35705 -11.30584 -11.30354 -11.30062
 Alpha  occ. eigenvalues --  -11.29308 -11.27383 -11.24301  -8.97276  -6.65451
 Alpha  occ. eigenvalues --   -6.65340  -6.65127  -1.34812  -1.28538  -1.21867
 Alpha  occ. eigenvalues --   -1.20058  -1.09703  -1.06730  -0.99426  -0.96385
 Alpha  occ. eigenvalues --   -0.90396  -0.89113  -0.84751  -0.80251  -0.79225
 Alpha  occ. eigenvalues --   -0.74367  -0.69417  -0.67221  -0.66103  -0.65587
 Alpha  occ. eigenvalues --   -0.62787  -0.61684  -0.60663  -0.59448  -0.58696
 Alpha  occ. eigenvalues --   -0.56315  -0.53121  -0.52398  -0.49415  -0.47656
 Alpha  occ. eigenvalues --   -0.43730  -0.42876  -0.42412  -0.41837  -0.39734
 Alpha  occ. eigenvalues --   -0.36327  -0.35884  -0.35227  -0.33081
 Alpha virt. eigenvalues --    0.09914   0.10449   0.12075   0.15092   0.20402
 Alpha virt. eigenvalues --    0.22908   0.24037   0.24504   0.25522   0.26703
 Alpha virt. eigenvalues --    0.28763   0.29054   0.29672   0.30979   0.33315
 Alpha virt. eigenvalues --    0.34383   0.35193   0.38563   0.39182   0.39901
 Alpha virt. eigenvalues --    0.41378   0.45070   0.48035   0.51322   0.51929
 Alpha virt. eigenvalues --    0.52926   0.54500   0.54901   0.55564   0.56690
 Alpha virt. eigenvalues --    0.57372   0.59761   0.62866   0.64155   0.65901
 Alpha virt. eigenvalues --    0.69350   0.72031   0.73388   0.75858   0.77785
 Alpha virt. eigenvalues --    0.78238   0.79657   0.80006   0.80619   0.81223
 Alpha virt. eigenvalues --    0.83189   0.84224   0.84601   0.89815   0.90627
 Alpha virt. eigenvalues --    0.91192   0.91330   0.92572   0.93159   0.94663
 Alpha virt. eigenvalues --    0.96028   1.00206   1.02098   1.03422   1.05688
 Alpha virt. eigenvalues --    1.06506   1.06856   1.07846   1.09669   1.09955
 Alpha virt. eigenvalues --    1.12272   1.12795   1.13128   1.14161   1.14919
 Alpha virt. eigenvalues --    1.15967   1.17103   1.17471   1.18056   1.19003
 Alpha virt. eigenvalues --    1.20859   1.22069   1.23591   1.25316   1.26727
 Alpha virt. eigenvalues --    1.27351   1.29341   1.31952   1.35601   1.37537
 Alpha virt. eigenvalues --    1.39530   1.41670   1.46995   1.50238   1.52789
 Alpha virt. eigenvalues --    1.55534   1.64189   1.65527   1.67011   1.69340
 Alpha virt. eigenvalues --    1.70649   1.73408   1.74624   1.76227   1.77395
 Alpha virt. eigenvalues --    1.78224   1.82093   1.86902   1.88131   1.92338
 Alpha virt. eigenvalues --    1.93111   1.98495   2.03322   2.04690   2.08877
 Alpha virt. eigenvalues --    2.10265   2.11897   2.14755   2.16807   2.20376
 Alpha virt. eigenvalues --    2.22615   2.24247   2.24655   2.26622   2.31175
 Alpha virt. eigenvalues --    2.32707   2.40048   2.42102   2.45453   2.48402
 Alpha virt. eigenvalues --    2.49351   2.50604   2.50699   2.52531   2.53521
 Alpha virt. eigenvalues --    2.57794   2.61770   2.62641   2.65610   2.66555
 Alpha virt. eigenvalues --    2.68950   2.72063   2.74695   2.78668   2.82644
 Alpha virt. eigenvalues --    2.82904   2.90351   2.91085   2.93934   2.96269
 Alpha virt. eigenvalues --    2.98238   3.00825   3.02630   3.07410   3.09593
 Alpha virt. eigenvalues --    3.17137   3.22258   3.23727   3.34070   3.41389
 Alpha virt. eigenvalues --    3.69743   3.78684  10.21609
          Condensed to atoms (all electrons):
               1          2          3          4          5          6
     1  C    5.167044   0.516134  -0.049773  -0.023368  -0.052495   0.503880
     2  C    0.516134   4.638221   0.480833  -0.073430  -0.017080  -0.049654
     3  N   -0.049773   0.480833   6.915899   0.513466  -0.093798  -0.025679
     4  C   -0.023368  -0.073430   0.513466   4.056186   0.509272  -0.067772
     5  N   -0.052495  -0.017080  -0.093798   0.509272   6.854372   0.476402
     6  C    0.503880  -0.049654  -0.025679  -0.067772   0.476402   4.657230
     7  N    0.000070   0.001966  -0.102679   0.252723  -0.081054   0.002702
     8  C    0.000024  -0.000076   0.002170  -0.014775   0.002623  -0.000168
     9  N   -0.000013   0.000001  -0.000007   0.005273  -0.012768  -0.000229
    10  C    0.000000   0.000000   0.000001  -0.000159   0.000051   0.000006
    11  C    0.000000   0.000000   0.000000  -0.000035  -0.000005   0.000000
    12  H    0.000000   0.000000   0.000000   0.000001   0.000000   0.000000
    13  S   -0.000001   0.000004  -0.000151   0.001953  -0.000378   0.000003
    14  C    0.000000   0.000000   0.000000  -0.000001   0.000000   0.000000
    15  I    0.000000   0.000000   0.000000   0.000000   0.000000   0.000000
    16  H    0.375554  -0.024520   0.002609   0.000527   0.002236  -0.023105
    17  H   -0.046131   0.400605  -0.039343   0.002741  -0.000470   0.002374
    18  H   -0.050895   0.002623  -0.000562   0.003513  -0.042385   0.404005
    19  H    0.000047   0.000317   0.007454  -0.017906   0.003085  -0.000140
    20  H    0.000000   0.000000   0.000000  -0.000002  -0.000004   0.000000
    21  H    0.000000   0.000000   0.000000   0.000005  -0.000002   0.000000
    22  H    0.000000   0.000000   0.000000   0.000000   0.000000   0.000000
    23  H    0.000000   0.000000   0.000000   0.000002   0.000000   0.000000
               7          8          9         10         11         12
     1  C    0.000070   0.000024  -0.000013   0.000000   0.000000   0.000000
     2  C    0.001966  -0.000076   0.000001   0.000000   0.000000   0.000000
     3  N   -0.102679   0.002170  -0.000007   0.000001   0.000000   0.000000
     4  C    0.252723  -0.014775   0.005273  -0.000159  -0.000035   0.000001
     5  N   -0.081054   0.002623  -0.012768   0.000051  -0.000005   0.000000
     6  C    0.002702  -0.000168  -0.000229   0.000006   0.000000   0.000000
     7  N    7.437795   0.216390  -0.063939   0.005541   0.001122  -0.000025
     8  C    0.216390   4.668474   0.573777  -0.085841  -0.036720   0.002359
     9  N   -0.063939   0.573777   6.892226   0.305833  -0.060142   0.002938
    10  C    0.005541  -0.085841   0.305833   4.979819   0.265135  -0.024783
    11  C    0.001122  -0.036720  -0.060142   0.265135   5.480441   0.395306
    12  H   -0.000025   0.002359   0.002938  -0.024783   0.395306   0.475798
    13  S   -0.070194   0.267569  -0.073328  -0.063926   0.284117  -0.038126
    14  C   -0.000014   0.000088   0.001875  -0.048201   0.223842  -0.046954
    15  I    0.000005   0.000370  -0.000265   0.005088  -0.061854  -0.001903
    16  H    0.000013   0.000000   0.000000   0.000000   0.000000   0.000000
    17  H   -0.000059   0.000002   0.000000   0.000000   0.000000   0.000000
    18  H   -0.000047  -0.000006   0.000026   0.000000   0.000000   0.000000
    19  H    0.320327  -0.027179   0.001310  -0.000090   0.000011  -0.000001
    20  H    0.000011   0.004816  -0.044421   0.407114  -0.044104   0.000252
    21  H   -0.000116  -0.006524  -0.040177   0.391665  -0.041077  -0.001919
    22  H    0.000001  -0.000043   0.000115  -0.005309  -0.029243  -0.000630
    23  H   -0.000110   0.002557   0.002462  -0.002777  -0.031740   0.003245
              13         14         15         16         17         18
     1  C   -0.000001   0.000000   0.000000   0.375554  -0.046131  -0.050895
     2  C    0.000004   0.000000   0.000000  -0.024520   0.400605   0.002623
     3  N   -0.000151   0.000000   0.000000   0.002609  -0.039343  -0.000562
     4  C    0.001953  -0.000001   0.000000   0.000527   0.002741   0.003513
     5  N   -0.000378   0.000000   0.000000   0.002236  -0.000470  -0.042385
     6  C    0.000003   0.000000   0.000000  -0.023105   0.002374   0.404005
     7  N   -0.070194  -0.000014   0.000005   0.000013  -0.000059  -0.000047
     8  C    0.267569   0.000088   0.000370   0.000000   0.000002  -0.000006
     9  N   -0.073328   0.001875  -0.000265   0.000000   0.000000   0.000026
    10  C   -0.063926  -0.048201   0.005088   0.000000   0.000000   0.000000
    11  C    0.284117   0.223842  -0.061854   0.000000   0.000000   0.000000
    12  H   -0.038126  -0.046954  -0.001903   0.000000   0.000000   0.000000
    13  S   15.585098  -0.075636  -0.008853   0.000000   0.000000   0.000000
    14  C   -0.075636   5.544014   0.281781   0.000000   0.000000   0.000000
    15  I   -0.008853   0.281781   6.814117   0.000000   0.000000   0.000000
    16  H    0.000000   0.000000   0.000000   0.444182  -0.000037   0.000015
    17  H    0.000000   0.000000   0.000000  -0.000037   0.454784  -0.000078
    18  H    0.000000   0.000000   0.000000   0.000015  -0.000078   0.457665
    19  H    0.000369  -0.000004   0.000001  -0.000001  -0.000038   0.000004
    20  H    0.004072  -0.003891   0.000000   0.000000   0.000000   0.000000
    21  H    0.004411   0.004189  -0.000130   0.000000   0.000000   0.000000
    22  H    0.005040   0.363624  -0.044801   0.000000   0.000000   0.000000
    23  H   -0.004135   0.373321  -0.041996   0.000000   0.000000   0.000000
              19         20         21         22         23
     1  C    0.000047   0.000000   0.000000   0.000000   0.000000
     2  C    0.000317   0.000000   0.000000   0.000000   0.000000
     3  N    0.007454   0.000000   0.000000   0.000000   0.000000
     4  C   -0.017906  -0.000002   0.000005   0.000000   0.000002
     5  N    0.003085  -0.000004  -0.000002   0.000000   0.000000
     6  C   -0.000140   0.000000   0.000000   0.000000   0.000000
     7  N    0.320327   0.000011  -0.000116   0.000001  -0.000110
     8  C   -0.027179   0.004816  -0.006524  -0.000043   0.002557
     9  N    0.001310  -0.044421  -0.040177   0.000115   0.002462
    10  C   -0.000090   0.407114   0.391665  -0.005309  -0.002777
    11  C    0.000011  -0.044104  -0.041077  -0.029243  -0.031740
    12  H   -0.000001   0.000252  -0.001919  -0.000630   0.003245
    13  S    0.000369   0.004072   0.004411   0.005040  -0.004135
    14  C   -0.000004  -0.003891   0.004189   0.363624   0.373321
    15  I    0.000001   0.000000  -0.000130  -0.044801  -0.041996
    16  H   -0.000001   0.000000   0.000000   0.000000   0.000000
    17  H   -0.000038   0.000000   0.000000   0.000000   0.000000
    18  H    0.000004   0.000000   0.000000   0.000000   0.000000
    19  H    0.280762   0.000004  -0.000006   0.000000  -0.000006
    20  H    0.000004   0.520263  -0.034553   0.002229  -0.000370
    21  H   -0.000006  -0.034553   0.525939  -0.000120   0.000091
    22  H    0.000000   0.002229  -0.000120   0.481726  -0.020607
    23  H   -0.000006  -0.000370   0.000091  -0.020607   0.460699
 Mulliken charges:
               1
     1  C   -0.340077
     2  C    0.124056
     3  N   -0.610438
     4  C    0.851784
     5  N   -0.547604
     6  C    0.120145
     7  N   -0.920429
     8  C    0.430113
     9  N   -0.490544
    10  C   -0.129166
    11  C   -0.345054
    12  H    0.234441
    13  S    0.182092
    14  C   -0.618032
    15  I    0.058440
    16  H    0.222527
    17  H    0.225651
    18  H    0.226125
    19  H    0.431681
    20  H    0.188585
    21  H    0.198323
    22  H    0.248017
    23  H    0.259364
 Sum of Mulliken charges =   0.00000
 Mulliken charges with hydrogens summed into heavy atoms:
               1
     1  C   -0.117549
     2  C    0.349707
     3  N   -0.610438
     4  C    0.851784
     5  N   -0.547604
     6  C    0.346269
     7  N   -0.488748
     8  C    0.430113
     9  N   -0.490544
    10  C    0.257743
    11  C   -0.110614
    13  S    0.182092
    14  C   -0.110650
    15  I    0.058440
 DipInt: DoE/N= T F RetVal/Mat= T F Init=T NMatP=  1 IDeriv=0 Min/MaxMlt=  0  4
 Entering OneElI...
 OneElI was handed   235797407 working-precision words.
 Multipole integrals L=0 to 4 MinM= 0 MaxM= 0.
 Requested accuracy = 0.1000D-12
 ShPair: Thresh= 1.00D-13 NBox=     0 BxSize= 0.00D+00 RnKept= 2.07D+01
         NSMCal=                 2850 NSMKep=                2392
 PrsmSu:  NPrtUS=   1 ThrOK=F IAlg=1 NPAlg=1 LenDen=           0.
 Prism:   IPart=     0 DynPar=F LinDyn=F Incr=          23.
 PRISM was handed   235573386 working-precision words and  2392 shell-pairs
 IPart=  0 NShTot=        2392 NBatch=         103 AvBLen=        23.2
 PrSmSu:  NxtVal=             24.
 Electronic moments (au):
       -108.00000000       -326.27092879        -40.85711654        -22.93366443
      -4379.63617478       -567.97551276       -246.21527594        287.22923885
        159.27978338         20.46549059     -33215.19300335       -761.05874014
       -226.90314508      -1690.03622008       2437.64203839       2517.36598489
       -199.71027429        -80.27831307        -14.43191022         95.75470064
    -403558.44772607      -8132.73618794      -1741.53748911      24218.25121396
      23772.74403926       3718.74594791       -179.15823445        482.63415156
        101.88425370     -20901.10890294      -6711.43507322       -937.12745810
        600.34665724        612.18249549        246.00739860
 Electronic spatial extent (au):  <R**2>=           5193.8270
 DipInt: DoE/N= F T RetVal/Mat= T F Init=T NMatP=  1 IDeriv=0 Min/MaxMlt=  0  4
 Nuclear    moments (au):
        108.00000000        327.40546202         41.24584000         22.74160262
       4316.21061528        493.10340971        167.64893022       -293.56768043
       -161.86365530        -20.39125350      33188.19963295        727.28701437
        197.33032387       1565.08640859      -2466.31815267      -2558.58263750
         71.09251077         69.49652402          8.88289116        -93.97904439
     387869.91765937       6081.36183940        746.68750473     -24014.95754717
     -24232.50658129      -3452.26994199        199.41564238       -282.82353744
        -86.21011787      17577.01198474       3212.85849454        440.89647843
       -643.38394413       -578.10219956       -142.33890451
 Total      moments (au):
          0.00000000          1.13453323          0.38872345         -0.19206181
        -63.42555950        -74.87210305        -78.56634572         -6.33844158
         -2.58387192          0.07423709        -26.99337040        -33.77172577
        -29.57282121       -124.94981149        -28.67611428        -41.21665260
       -128.61776352        -10.78178905         -5.54901906          1.77565625
     -15688.53006670      -2051.37434854       -994.84998438        203.29366680
       -459.76254202        266.47600592         20.25740793        199.81061412
         15.67413583      -3324.09691820      -3498.57657867       -496.23097968
        -43.03728689         34.08029593        103.66849409
 Traceless Quadrup. (au):
          8.86244326         -2.58410029         -6.27834297         -6.33844158
         -2.58387192          0.07423709
 Charge=              0.0000 electrons
 Dipole moment (field-independent basis, Debye):
    X=              2.8837    Y=              0.9880    Z=             -0.4882  Tot=              3.0871
 Quadrupole moment (field-independent basis, Debye-Ang):
   XX=            -85.3095   YY=           -100.7055   ZZ=           -105.6744
   XY=             -8.5254   XZ=             -3.4754   YZ=              0.0999
 Traceless Quadrupole moment (field-independent basis, Debye-Ang):
   XX=             11.9203   YY=             -3.4757   ZZ=             -8.4446
   XY=             -8.5254   XZ=             -3.4754   YZ=              0.0999
 Octapole moment (field-independent basis, Debye-Ang**2):
  XXX=            -19.2128  YYY=            -24.0374  ZZZ=            -21.0488  XYY=            -88.9345
  XXY=            -20.4106  XXZ=            -29.3364  XZZ=            -91.5452  YZZ=             -7.6741
  YYZ=             -3.9496  XYZ=              1.2638
 Hexadecapole moment (field-independent basis, Debye-Ang**3):
 XXXX=          -5909.0523 YYYY=           -772.6459 ZZZZ=           -374.7082 XXXY=             76.5701
 XXXZ=           -173.1686 YYYX=            100.3676 YYYZ=              7.6299 ZZZX=             75.2583
 ZZZY=              5.9036 XXYY=          -1252.0142 XXZZ=          -1317.7316 YYZZ=           -186.9044
 XXYZ=            -16.2099 YYXZ=             12.8363 ZZXY=             39.0465
 N-N= 9.111893355303D+02 E-N=-4.018316495284D+03  KE= 9.259078443145D+02
 Entering OneElI...
 OneElI was handed   235827726 working-precision words.
 Calculate electrostatic properties
    NBasis =   212  MinDer = 0  MaxDer = 0
    NGrid  =    23  NMatD  =   1
 Requested accuracy = 0.1000D-12
 PrtBox:  NBox=     1 Levels=  1 BoxLen=   37.65 SMaxX=       20.67
          Shift=            7.117510            4.560693            2.702683
 Box      1 Number                   0 centers from      1 to     75:
 ShPair: Thresh= 1.00D-13 NBox=     1 BxSize= 3.77D+01 RnKept= 1.89D+01
         NSMCal=                 2850 NSMKep=                2147
 PrsmSu:  NPrtUS=   1 ThrOK=F IAlg=1 NPAlg=1 LenDen=           0.
 Prism:   IPart=     0 DynPar=F LinDyn=F Incr=         493.
 PRISM was handed   235624233 working-precision words and  2147 shell-pairs
 IPart=  0 NShTot=       49381 NBatch=        2148 AvBLen=        23.0
 PrSmSu:  NxtVal=            494.
 --------------------------------------------------------
       Center         ----      EFG at Nuclei      ----
                      3XX-RR        3YY-RR        3ZZ-RR
 --------------------------------------------------------
     1   Atom        0.061949      0.096778     -0.158726
     2   Atom        0.149602      0.303377     -0.452978
     3   Atom       -0.156508      0.523917     -0.367410
     4   Atom        0.064899      0.277248     -0.342147
     5   Atom        0.044456      0.459762     -0.504218
     6   Atom        0.158758      0.304029     -0.462787
     7   Atom       -0.530904     -0.378852      0.909756
     8   Atom       -0.028324      0.219987     -0.191662
     9   Atom        0.229215     -0.214576     -0.014639
    10   Atom       -0.157611      0.026728      0.130883
    11   Atom        0.084717     -0.126749      0.042032
    12   Atom       -0.008221      0.077323     -0.069103
    13   Atom       -1.952088      0.528457      1.423632
    14   Atom       -0.170859      0.000370      0.170489
    15   Atom       -0.035128     -0.000877      0.036005
    16   Atom       -0.286078      0.140751      0.145326
    17   Atom        0.024535     -0.177291      0.152756
    18   Atom        0.083289     -0.214270      0.130981
    19   Atom        0.121473     -0.318053      0.196580
    20   Atom        0.104198      0.010720     -0.114918
    21   Atom        0.126699     -0.018482     -0.108217
    22   Atom        0.068765     -0.145783      0.077018
    23   Atom        0.013185      0.041624     -0.054809
 --------------------------------------------------------
                        XY            XZ            YZ
 --------------------------------------------------------
     1   Atom       -0.014202     -0.054955     -0.037633
     2   Atom       -0.013054     -0.152152     -0.125308
     3   Atom        0.557051     -0.150589     -0.286486
     4   Atom       -0.023723     -0.098242     -0.097669
     5   Atom       -0.724442     -0.020988      0.010935
     6   Atom       -0.052613     -0.151514     -0.109366
     7   Atom        0.116679      0.312290      0.280869
     8   Atom       -0.053444     -0.049505     -0.179542
     9   Atom        0.457457     -0.422915     -0.210297
    10   Atom        0.010428      0.093389      0.005905
    11   Atom        0.102445     -0.118261      0.126110
    12   Atom        0.104615      0.179081     -0.121775
    13   Atom        0.981240      0.813652      1.313633
    14   Atom       -0.332726      0.088855      0.099632
    15   Atom       -0.059472      0.019040      0.014136
    16   Atom       -0.022189      0.111972      0.010313
    17   Atom        0.195561     -0.000747      0.006694
    18   Atom       -0.146479      0.038216      0.088752
    19   Atom       -0.116869      0.050806      0.138941
    20   Atom        0.065828     -0.092914      0.191176
    21   Atom       -0.040743     -0.047922     -0.204261
    22   Atom        0.144763     -0.080003      0.147007
    23   Atom        0.116056      0.161800     -0.153248
 --------------------------------------------------------


 ---------------------------------------------------------------------------------
              Nuclear Quadrupole Coupling Constant in Principal Axis System
 ---------------------------------------------------------------------------------

       Atom             a.u.   MegaHertz   Gauss  10(-4) cm-1        Axes

              Baa    -0.4722     2.268     0.809     0.756  0.7781 -0.5314 -0.3348
     3 N(14)  Bbb    -0.4457     2.141     0.764     0.714  0.4132  0.0315  0.9101
              Bcc     0.9179    -4.408    -1.573    -1.470  0.4731  0.8465 -0.2441
 
              Baa    -0.5133     2.465     0.880     0.822  0.5281  0.3847  0.7570
     5 N(14)  Bbb    -0.4927     2.366     0.844     0.789 -0.5990 -0.4631  0.6532
              Bcc     1.0060    -4.832    -1.724    -1.612 -0.6019  0.7985  0.0141
 
              Baa    -0.6140     2.949     1.052     0.984  0.9428 -0.3040 -0.1372
     7 N(14)  Bbb    -0.4237     2.035     0.726     0.679  0.2624  0.9300 -0.2574
              Bcc     1.0376    -4.983    -1.778    -1.662  0.2058  0.2066  0.9565
 
              Baa    -0.5088     2.444     0.872     0.815 -0.5857  0.7939 -0.1634
     9 N(14)  Bbb    -0.2819     1.354     0.483     0.452  0.3284  0.4168  0.8476
              Bcc     0.7907    -3.797    -1.355    -1.267  0.7410  0.4428 -0.5048
 
              Baa    -0.0846   -14.106    -5.033    -4.705  0.7841  0.5899 -0.1930
    15 I(127) Bbb     0.0407     6.783     2.420     2.263  0.1257  0.1536  0.9801
              Bcc     0.0439     7.322     2.613     2.443 -0.6078  0.7927 -0.0464
 

 ---------------------------------------------------------------------------------

 No NMR shielding tensors so no spin-rotation constants.
 Leave Link  601 at Fri Jan 17 11:56:45 2014, MaxMem=   235929600 cpu:         0.3
 FitSet:  NAtFit=    23 NAtPot=    23 NAtFrz=     0 MDM=    27 TotChg=   0.00000
 Merz-Kollman atomic radii used.
 Read replacement radii for each type of atom:
 Rad(53) =   2.700000000000D+00
 Atom Element Radius
    1     6    1.50
    2     6    1.50
    3     7    1.50
    4     6    1.50
    5     7    1.50
    6     6    1.50
    7     7    1.50
    8     6    1.50
    9     7    1.50
   10     6    1.50
   11     6    1.50
   12     1    1.20
   13    16    1.75
   14     6    1.50
   15    53    2.70
   16     1    1.20
   17     1    1.20
   18     1    1.20
   19     1    1.20
   20     1    1.20
   21     1    1.20
   22     1    1.20
   23     1    1.20
 Generate VDW surfaces: Layer= 5 Dens= 2 Start= 1.400 Inc= 0.179

 **********************************************************************

            Electrostatic Properties Using The SCF Density

 **********************************************************************

       Atomic Center    1 is at   6.119736 -0.272286 -0.573359
       Atomic Center    2 is at   5.504067 -1.479247 -0.239441
       Atomic Center    3 is at   4.211702 -1.564807  0.074611
       Atomic Center    4 is at   3.526341 -0.404900  0.052320
       Atomic Center    5 is at   4.001921  0.807817 -0.239456
       Atomic Center    6 is at   5.300547  0.854507 -0.551124
       Atomic Center    7 is at   2.189325 -0.562010  0.401503
       Atomic Center    8 is at   1.157366  0.353773  0.403462
       Atomic Center    9 is at   1.140672  1.505843 -0.132156
       Atomic Center   10 is at  -0.088034  2.215389  0.169824
       Atomic Center   11 is at  -1.237318  1.218122  0.542061
       Atomic Center   12 is at  -1.887217  1.649290  1.306236
       Atomic Center   13 is at  -0.334323 -0.201666  1.287134
       Atomic Center   14 is at  -2.048057  0.841254 -0.690563
       Atomic Center   15 is at  -3.766424 -0.474486 -0.261616
       Atomic Center   16 is at   7.171252 -0.215205 -0.830759
       Atomic Center   17 is at   6.063449 -2.413415 -0.222294
       Atomic Center   18 is at   5.694700  1.841221 -0.790059
       Atomic Center   19 is at   1.961313 -1.517404  0.643915
       Atomic Center   20 is at  -0.381407  2.833627 -0.687156
       Atomic Center   21 is at   0.086310  2.896742  1.014754
       Atomic Center   22 is at  -2.498529  1.726269 -1.143523
       Atomic Center   23 is at  -1.453443  0.305716 -1.430198
      ESP Fit Center   24 is at   6.119736 -0.272286  1.526641
      ESP Fit Center   25 is at   6.837978 -0.272286  1.399995
      ESP Fit Center   26 is at   6.478857  0.349730  1.399995
      ESP Fit Center   27 is at   7.469590 -0.272286  1.035334
      ESP Fit Center   28 is at   7.255305  0.457500  1.035334
      ESP Fit Center   29 is at   6.680486  0.955584  1.035334
      ESP Fit Center   30 is at   7.255305 -1.002072  1.035334
      ESP Fit Center   31 is at   7.336653  1.079237  0.476641
      ESP Fit Center   32 is at   6.680486  0.955584 -2.182052
      ESP Fit Center   33 is at   4.824560 -0.652584 -2.182052
      ESP Fit Center   34 is at   6.680486 -1.500156 -2.182052
      ESP Fit Center   35 is at   6.837978 -0.272286 -2.546714
      ESP Fit Center   36 is at   6.478857  0.349730 -2.546714
      ESP Fit Center   37 is at   5.760615  0.349730 -2.546714
      ESP Fit Center   38 is at   5.401494 -0.272286 -2.546714
      ESP Fit Center   39 is at   5.760615 -0.894302 -2.546714
      ESP Fit Center   40 is at   6.478857 -0.894302 -2.546714
      ESP Fit Center   41 is at   6.119736 -0.272286 -2.673359
      ESP Fit Center   42 is at   5.504067 -1.479247  1.860559
      ESP Fit Center   43 is at   6.222309 -1.479247  1.733913
      ESP Fit Center   44 is at   5.863188 -0.857231  1.733913
      ESP Fit Center   45 is at   5.863188 -2.101263  1.733913
      ESP Fit Center   46 is at   6.853921 -1.479247  1.369252
      ESP Fit Center   47 is at   5.311963 -0.143133  1.369252
      ESP Fit Center   48 is at   5.311963 -2.815361  1.369252
      ESP Fit Center   49 is at   6.639636 -2.209033  1.369252
      ESP Fit Center   50 is at   7.322720 -1.479247  0.810559
      ESP Fit Center   51 is at   4.620101 -2.499398 -1.848134
      ESP Fit Center   52 is at   5.311963 -2.815361 -1.848134
      ESP Fit Center   53 is at   6.639636 -2.209033 -1.848134
      ESP Fit Center   54 is at   4.785825 -1.479247 -2.212796
      ESP Fit Center   55 is at   5.144946 -2.101263 -2.212796
      ESP Fit Center   56 is at   5.863188 -2.101263 -2.212796
      ESP Fit Center   57 is at   5.504067 -1.479247 -2.339441
      ESP Fit Center   58 is at   4.211702 -1.564807  2.174611
      ESP Fit Center   59 is at   4.929944 -1.564807  2.047965
      ESP Fit Center   60 is at   4.570823 -0.942791  2.047965
      ESP Fit Center   61 is at   3.493460 -1.564807  2.047965
      ESP Fit Center   62 is at   3.852581 -2.186823  2.047965
      ESP Fit Center   63 is at   4.570823 -2.186823  2.047965
      ESP Fit Center   64 is at   3.327736 -2.584959  1.683304
      ESP Fit Center   65 is at   4.019598 -2.900921  1.683304
      ESP Fit Center   66 is at   4.772452 -2.792677  1.683304
      ESP Fit Center   67 is at   3.302375 -3.139807  1.124611
      ESP Fit Center   68 is at   4.021601 -3.373498  1.124611
      ESP Fit Center   69 is at   4.773697 -3.294449  1.124611
      ESP Fit Center   70 is at   2.965395 -3.215183  0.439272
      ESP Fit Center   71 is at   3.645741 -3.553955  0.439272
      ESP Fit Center   72 is at   4.402522 -3.624081  0.439272
      ESP Fit Center   73 is at   2.965395 -3.215183 -0.290050
      ESP Fit Center   74 is at   3.645741 -3.553955 -0.290050
      ESP Fit Center   75 is at   4.402522 -3.624081 -0.290050
      ESP Fit Center   76 is at   2.740380 -2.633785 -0.975389
      ESP Fit Center   77 is at   3.302375 -3.139807 -0.975389
      ESP Fit Center   78 is at   4.021601 -3.373498 -0.975389
      ESP Fit Center   79 is at   2.916527 -1.945105 -1.534082
      ESP Fit Center   80 is at   3.327736 -2.584959 -1.534082
      ESP Fit Center   81 is at   4.019598 -2.900921 -1.534082
      ESP Fit Center   82 is at   3.493460 -1.564807 -1.898744
      ESP Fit Center   83 is at   3.852581 -2.186823 -1.898744
      ESP Fit Center   84 is at   4.211702 -1.564807 -2.025389
      ESP Fit Center   85 is at   3.526341 -0.404900  2.152320
      ESP Fit Center   86 is at   4.244583 -0.404900  2.025674
      ESP Fit Center   87 is at   3.885462  0.217116  2.025674
      ESP Fit Center   88 is at   2.642375 -1.425052 -1.556373
      ESP Fit Center   89 is at   2.808099 -0.404900 -1.921035
      ESP Fit Center   90 is at   3.167220 -1.026916 -1.921035
      ESP Fit Center   91 is at   3.526341 -0.404900 -2.047680
      ESP Fit Center   92 is at   4.001921  0.807817  1.860544
      ESP Fit Center   93 is at   4.720163  0.807817  1.733898
      ESP Fit Center   94 is at   4.361042  1.429833  1.733898
      ESP Fit Center   95 is at   3.642800  1.429833  1.733898
      ESP Fit Center   96 is at   4.562670  2.035687  1.369237
      ESP Fit Center   97 is at   3.809817  2.143931  1.369237
      ESP Fit Center   98 is at   3.117955  1.827969  1.369237
      ESP Fit Center   99 is at   4.563916  2.537459  0.810544
      ESP Fit Center  100 is at   3.811820  2.616508  0.810544
      ESP Fit Center  101 is at   3.092594  2.382817  0.810544
      ESP Fit Center  102 is at   4.192741  2.867091  0.125205
      ESP Fit Center  103 is at   3.435959  2.796965  0.125205
      ESP Fit Center  104 is at   4.192741  2.867091 -0.604117
      ESP Fit Center  105 is at   3.435959  2.796965 -0.604117
      ESP Fit Center  106 is at   3.811820  2.616508 -1.289456
      ESP Fit Center  107 is at   3.092594  2.382817 -1.289456
      ESP Fit Center  108 is at   3.809817  2.143931 -1.848149
      ESP Fit Center  109 is at   3.117955  1.827969 -1.848149
      ESP Fit Center  110 is at   2.706745  1.188115 -1.848149
      ESP Fit Center  111 is at   2.706745  0.427519 -1.848149
      ESP Fit Center  112 is at   3.642800  1.429833 -2.212811
      ESP Fit Center  113 is at   3.283679  0.807817 -2.212811
      ESP Fit Center  114 is at   3.642800  0.185801 -2.212811
      ESP Fit Center  115 is at   4.001921  0.807817 -2.339456
      ESP Fit Center  116 is at   5.300547  0.854507  1.548876
      ESP Fit Center  117 is at   6.018789  0.854507  1.422230
      ESP Fit Center  118 is at   5.659668  1.476523  1.422230
      ESP Fit Center  119 is at   5.659668  0.232491  1.422230
      ESP Fit Center  120 is at   6.436116  1.584293  1.057569
      ESP Fit Center  121 is at   5.861296  2.082377  1.057569
      ESP Fit Center  122 is at   5.108443  2.190621  1.057569
      ESP Fit Center  123 is at   6.961969  1.594220  0.498876
      ESP Fit Center  124 is at   4.416581  1.874659 -2.159817
      ESP Fit Center  125 is at   4.416581 -0.165644 -2.159817
      ESP Fit Center  126 is at   6.018789  0.854507 -2.524479
      ESP Fit Center  127 is at   5.659668  1.476523 -2.524479
      ESP Fit Center  128 is at   4.941426  1.476523 -2.524479
      ESP Fit Center  129 is at   4.582305  0.854507 -2.524479
      ESP Fit Center  130 is at   4.941426  0.232491 -2.524479
      ESP Fit Center  131 is at   5.300547  0.854507 -2.651124
      ESP Fit Center  132 is at   2.189325 -0.562010  2.501503
      ESP Fit Center  133 is at   2.907567 -0.562010  2.374857
      ESP Fit Center  134 is at   2.548446  0.060006  2.374857
      ESP Fit Center  135 is at   1.830204 -1.184026  2.374857
      ESP Fit Center  136 is at   2.548446 -1.184026  2.374857
      ESP Fit Center  137 is at   2.750075  0.665860  2.010196
      ESP Fit Center  138 is at   3.324894 -1.291796  2.010196
      ESP Fit Center  139 is at   0.718003 -1.630988 -0.648497
      ESP Fit Center  140 is at   1.305359 -1.582162 -1.207190
      ESP Fit Center  141 is at   1.997221 -1.898124 -1.207190
      ESP Fit Center  142 is at   1.830204  0.060006 -1.571852
      ESP Fit Center  143 is at   1.471083 -0.562010 -1.571852
      ESP Fit Center  144 is at   1.830204 -1.184026 -1.571852
      ESP Fit Center  145 is at   2.189325 -0.562010 -1.698497
      ESP Fit Center  146 is at   1.875608  0.353773  2.376816
      ESP Fit Center  147 is at   2.292935  1.083559  2.012155
      ESP Fit Center  148 is at   1.718115  1.581643  2.012155
      ESP Fit Center  149 is at   0.273400 -0.666379 -1.205231
      ESP Fit Center  150 is at   0.798245 -0.268243 -1.569893
      ESP Fit Center  151 is at   1.516487 -0.268243 -1.569893
      ESP Fit Center  152 is at   1.499793  2.127859  1.841198
      ESP Fit Center  153 is at   2.276241  2.235629  1.476537
      ESP Fit Center  154 is at   1.701421  2.733713  1.476537
      ESP Fit Center  155 is at   2.802094  2.245556  0.917844
      ESP Fit Center  156 is at   2.357588  2.857366  0.917844
      ESP Fit Center  157 is at   2.669013  2.899110  0.232505
      ESP Fit Center  158 is at   2.062502  3.357127  0.232505
      ESP Fit Center  159 is at   2.669013  2.899110 -0.496817
      ESP Fit Center  160 is at   2.062502  3.357127 -0.496817
      ESP Fit Center  161 is at   2.357588  2.857366 -1.182156
      ESP Fit Center  162 is at   1.702667  3.235485 -1.182156
      ESP Fit Center  163 is at   2.490526  1.505843 -1.740849
      ESP Fit Center  164 is at   2.276241  2.235629 -1.740849
      ESP Fit Center  165 is at   1.701421  2.733713 -1.740849
      ESP Fit Center  166 is at   0.948568  2.841957 -1.740849
      ESP Fit Center  167 is at   0.256706  0.485691 -1.740849
      ESP Fit Center  168 is at   0.948568  0.169729 -1.740849
      ESP Fit Center  169 is at   1.701421  0.277973 -1.740849
      ESP Fit Center  170 is at   2.276241  0.776057 -1.740849
      ESP Fit Center  171 is at   1.858914  1.505843 -2.105511
      ESP Fit Center  172 is at   1.499793  2.127859 -2.105511
      ESP Fit Center  173 is at   0.781551  2.127859 -2.105511
      ESP Fit Center  174 is at   0.422430  1.505843 -2.105511
      ESP Fit Center  175 is at   0.781551  0.883827 -2.105511
      ESP Fit Center  176 is at   1.499793  0.883827 -2.105511
      ESP Fit Center  177 is at   1.140672  1.505843 -2.232156
      ESP Fit Center  178 is at  -1.334341  3.865765  0.534485
      ESP Fit Center  179 is at  -1.846365  3.304101  0.534485
      ESP Fit Center  180 is at   1.440307  3.608656 -0.194837
      ESP Fit Center  181 is at   0.833796  4.066673 -0.194837
      ESP Fit Center  182 is at   1.128882  3.566912 -0.880176
      ESP Fit Center  183 is at  -1.887217  1.649290  2.986236
      ESP Fit Center  184 is at  -1.158292  1.649290  2.819864
      ESP Fit Center  185 is at  -1.522755  2.280557  2.819864
      ESP Fit Center  186 is at  -2.251679  2.280557  2.819864
      ESP Fit Center  187 is at  -2.616142  1.649290  2.819864
      ESP Fit Center  188 is at  -0.824592  2.421332  2.353699
      ESP Fit Center  189 is at  -1.481330  2.898481  2.353699
      ESP Fit Center  190 is at  -2.293104  2.898481  2.353699
      ESP Fit Center  191 is at  -2.949842  2.421332  2.353699
      ESP Fit Center  192 is at  -1.689793  3.275227  1.680071
      ESP Fit Center  193 is at  -2.468017  3.180733  1.680071
      ESP Fit Center  194 is at  -3.113187  2.735405  1.680071
      ESP Fit Center  195 is at  -2.468017  3.180733  0.932401
      ESP Fit Center  196 is at  -0.334323 -0.201666  3.737134
      ESP Fit Center  197 is at   0.422769 -0.201666  3.617222
      ESP Fit Center  198 is at   0.044223  0.453995  3.617222
      ESP Fit Center  199 is at  -0.712869  0.453995  3.617222
      ESP Fit Center  200 is at  -1.091415 -0.201666  3.617222
      ESP Fit Center  201 is at  -0.712869 -0.857327  3.617222
      ESP Fit Center  202 is at   0.044223 -0.857327  3.617222
      ESP Fit Center  203 is at   1.105751 -0.201666  3.269226
      ESP Fit Center  204 is at   0.912817  0.518371  3.269226
      ESP Fit Center  205 is at   0.385714  1.045475  3.269226
      ESP Fit Center  206 is at  -0.334323  1.238408  3.269226
      ESP Fit Center  207 is at  -1.054360  1.045475  3.269226
      ESP Fit Center  208 is at  -1.581464  0.518371  3.269226
      ESP Fit Center  209 is at  -1.774397 -0.201666  3.269226
      ESP Fit Center  210 is at  -1.581464 -0.921703  3.269226
      ESP Fit Center  211 is at  -1.054360 -1.448807  3.269226
      ESP Fit Center  212 is at  -0.334323 -1.641740  3.269226
      ESP Fit Center  213 is at   0.385714 -1.448807  3.269226
      ESP Fit Center  214 is at   0.912817 -0.921703  3.269226
      ESP Fit Center  215 is at   1.647769 -0.201666  2.727208
      ESP Fit Center  216 is at   1.496891  0.556848  2.727208
      ESP Fit Center  217 is at   1.067227  1.199884  2.727208
      ESP Fit Center  218 is at   0.424191  1.629548  2.727208
      ESP Fit Center  219 is at  -0.334323  1.780426  2.727208
      ESP Fit Center  220 is at  -1.735874 -1.603216  2.727208
      ESP Fit Center  221 is at  -1.092837 -2.032880  2.727208
      ESP Fit Center  222 is at  -0.334323 -2.183758  2.727208
      ESP Fit Center  223 is at   0.424191 -2.032880  2.727208
      ESP Fit Center  224 is at   1.067227 -1.603216  2.727208
      ESP Fit Center  225 is at   1.496891 -0.960180  2.727208
      ESP Fit Center  226 is at   0.940114  1.749006  2.044226
      ESP Fit Center  227 is at  -1.270309 -2.335499  2.044226
      ESP Fit Center  228 is at  -0.526740 -2.523796  2.044226
      ESP Fit Center  229 is at   0.237680 -2.460454  2.044226
      ESP Fit Center  230 is at   0.940114 -2.152338  2.044226
      ESP Fit Center  231 is at  -0.879499 -2.590239  1.287134
      ESP Fit Center  232 is at  -0.151234 -2.644815  1.287134
      ESP Fit Center  233 is at   0.560762 -2.482307  1.287134
      ESP Fit Center  234 is at  -0.526740 -2.523796  0.530042
      ESP Fit Center  235 is at   0.237680 -2.460454  0.530042
      ESP Fit Center  236 is at  -0.334323 -2.183758 -0.152940
      ESP Fit Center  237 is at   0.424191 -2.032880 -0.152940
      ESP Fit Center  238 is at   0.385714 -1.448807 -0.694958
      ESP Fit Center  239 is at   0.044223 -0.857327 -1.042955
      ESP Fit Center  240 is at  -3.766424 -0.474486  3.518384
      ESP Fit Center  241 is at  -3.028983 -0.474486  3.445752
      ESP Fit Center  242 is at  -3.397703  0.164157  3.445752
      ESP Fit Center  243 is at  -4.135145  0.164157  3.445752
      ESP Fit Center  244 is at  -4.503866 -0.474486  3.445752
      ESP Fit Center  245 is at  -4.135145 -1.113129  3.445752
      ESP Fit Center  246 is at  -3.397703 -1.113129  3.445752
      ESP Fit Center  247 is at  -2.319881 -0.474486  3.230649
      ESP Fit Center  248 is at  -2.513681  0.248786  3.230649
      ESP Fit Center  249 is at  -3.043152  0.778257  3.230649
      ESP Fit Center  250 is at  -3.766424  0.972057  3.230649
      ESP Fit Center  251 is at  -4.489696  0.778257  3.230649
      ESP Fit Center  252 is at  -5.019167  0.248786  3.230649
      ESP Fit Center  253 is at  -5.212967 -0.474486  3.230649
      ESP Fit Center  254 is at  -5.019167 -1.197758  3.230649
      ESP Fit Center  255 is at  -4.489696 -1.727229  3.230649
      ESP Fit Center  256 is at  -3.766424 -1.921029  3.230649
      ESP Fit Center  257 is at  -3.043152 -1.727229  3.230649
      ESP Fit Center  258 is at  -2.513681 -1.197758  3.230649
      ESP Fit Center  259 is at  -2.157688  0.875404  2.881339
      ESP Fit Center  260 is at  -2.716396  1.344215  2.881339
      ESP Fit Center  261 is at  -3.401753  1.593665  2.881339
      ESP Fit Center  262 is at  -4.131095  1.593665  2.881339
      ESP Fit Center  263 is at  -4.816452  1.344215  2.881339
      ESP Fit Center  264 is at  -5.375160  0.875404  2.881339
      ESP Fit Center  265 is at  -5.739831  0.243775  2.881339
      ESP Fit Center  266 is at  -5.866480 -0.474486  2.881339
      ESP Fit Center  267 is at  -5.739831 -1.192747  2.881339
      ESP Fit Center  268 is at  -5.375160 -1.824376  2.881339
      ESP Fit Center  269 is at  -4.816452 -2.293187  2.881339
      ESP Fit Center  270 is at  -4.131095 -2.542637  2.881339
      ESP Fit Center  271 is at  -3.401753 -2.542637  2.881339
      ESP Fit Center  272 is at  -2.716396 -2.293187  2.881339
      ESP Fit Center  273 is at  -2.157688 -1.824376  2.881339
      ESP Fit Center  274 is at  -3.222614  2.142472  2.411248
      ESP Fit Center  275 is at  -3.948827  2.192147  2.411248
      ESP Fit Center  276 is at  -4.661512  2.044049  2.411248
      ESP Fit Center  277 is at  -5.307812  1.709163  2.411248
      ESP Fit Center  278 is at  -5.839795  1.212326  2.411248
      ESP Fit Center  279 is at  -6.218005  0.590386  2.411248
      ESP Fit Center  280 is at  -6.414393 -0.110531  2.411248
      ESP Fit Center  281 is at  -6.414393 -0.838441  2.411248
      ESP Fit Center  282 is at  -6.218005 -1.539358  2.411248
      ESP Fit Center  283 is at  -5.839795 -2.161298  2.411248
      ESP Fit Center  284 is at  -5.307812 -2.658135  2.411248
      ESP Fit Center  285 is at  -4.661512 -2.993021  2.411248
      ESP Fit Center  286 is at  -3.948827 -3.141119  2.411248
      ESP Fit Center  287 is at  -3.222614 -3.091444  2.411248
      ESP Fit Center  288 is at  -2.536733 -2.847682  2.411248
      ESP Fit Center  289 is at  -1.942053 -2.427911  2.411248
      ESP Fit Center  290 is at  -3.220656  2.620721  1.838439
      ESP Fit Center  291 is at  -3.949171  2.663152  1.838439
      ESP Fit Center  292 is at  -4.667834  2.536432  1.838439
      ESP Fit Center  293 is at  -5.337902  2.247393  1.838439
      ESP Fit Center  294 is at  -5.923251  1.811617  1.838439
      ESP Fit Center  295 is at  -6.392325  1.252596  1.838439
      ESP Fit Center  296 is at  -6.719836  0.600468  1.838439
      ESP Fit Center  297 is at  -6.888128 -0.109611  1.838439
      ESP Fit Center  298 is at  -6.888128 -0.839361  1.838439
      ESP Fit Center  299 is at  -6.719836 -1.549440  1.838439
      ESP Fit Center  300 is at  -6.392325 -2.201568  1.838439
      ESP Fit Center  301 is at  -5.923251 -2.760589  1.838439
      ESP Fit Center  302 is at  -5.337902 -3.196365  1.838439
      ESP Fit Center  303 is at  -4.667834 -3.485404  1.838439
      ESP Fit Center  304 is at  -3.949171 -3.612124  1.838439
      ESP Fit Center  305 is at  -3.220656 -3.569693  1.838439
      ESP Fit Center  306 is at  -2.521563 -3.360398  1.838439
      ESP Fit Center  307 is at  -1.889581 -2.995523  1.838439
      ESP Fit Center  308 is at  -1.358781 -2.494739  1.838439
      ESP Fit Center  309 is at  -3.401383  2.998648  1.184927
      ESP Fit Center  310 is at  -4.131465  2.998648  1.184927
      ESP Fit Center  311 is at  -4.845593  2.846855  1.184927
      ESP Fit Center  312 is at  -5.512556  2.549904  1.184927
      ESP Fit Center  313 is at  -6.103205  2.120772  1.184927
      ESP Fit Center  314 is at  -6.591726  1.578216  1.184927
      ESP Fit Center  315 is at  -6.956767  0.945946  1.184927
      ESP Fit Center  316 is at  -7.182374  0.251597  1.184927
      ESP Fit Center  317 is at  -7.258689 -0.474486  1.184927
      ESP Fit Center  318 is at  -7.182374 -1.200569  1.184927
      ESP Fit Center  319 is at  -6.956767 -1.894918  1.184927
      ESP Fit Center  320 is at  -6.591726 -2.527188  1.184927
      ESP Fit Center  321 is at  -6.103205 -3.069744  1.184927
      ESP Fit Center  322 is at  -5.512556 -3.498876  1.184927
      ESP Fit Center  323 is at  -4.845593 -3.795827  1.184927
      ESP Fit Center  324 is at  -4.131465 -3.947620  1.184927
      ESP Fit Center  325 is at  -3.401383 -3.947620  1.184927
      ESP Fit Center  326 is at  -2.687255 -3.795827  1.184927
      ESP Fit Center  327 is at  -2.020292 -3.498876  1.184927
      ESP Fit Center  328 is at  -1.429643 -3.069744  1.184927
      ESP Fit Center  329 is at  -3.043152  3.161646  0.475825
      ESP Fit Center  330 is at  -3.766424  3.232882  0.475825
      ESP Fit Center  331 is at  -4.489696  3.161646  0.475825
      ESP Fit Center  332 is at  -5.185173  2.950676  0.475825
      ESP Fit Center  333 is at  -5.826128  2.608078  0.475825
      ESP Fit Center  334 is at  -6.387929  2.147019  0.475825
      ESP Fit Center  335 is at  -6.848988  1.585217  0.475825
      ESP Fit Center  336 is at  -7.191586  0.944262  0.475825
      ESP Fit Center  337 is at  -7.402556  0.248786  0.475825
      ESP Fit Center  338 is at  -7.473792 -0.474486  0.475825
      ESP Fit Center  339 is at  -7.402556 -1.197758  0.475825
      ESP Fit Center  340 is at  -7.191586 -1.893235  0.475825
      ESP Fit Center  341 is at  -6.848988 -2.534190  0.475825
      ESP Fit Center  342 is at  -6.387929 -3.095991  0.475825
      ESP Fit Center  343 is at  -5.826128 -3.557050  0.475825
      ESP Fit Center  344 is at  -5.185173 -3.899648  0.475825
      ESP Fit Center  345 is at  -4.489696 -4.110618  0.475825
      ESP Fit Center  346 is at  -3.766424 -4.181854  0.475825
      ESP Fit Center  347 is at  -3.043152 -4.110618  0.475825
      ESP Fit Center  348 is at  -2.347676 -3.899648  0.475825
      ESP Fit Center  349 is at  -1.706721 -3.557050  0.475825
      ESP Fit Center  350 is at  -1.144919 -3.095991  0.475825
      ESP Fit Center  351 is at  -0.683860 -2.534190  0.475825
      ESP Fit Center  352 is at  -2.875255  3.198962 -0.261616
      ESP Fit Center  353 is at  -3.586564  3.301232 -0.261616
      ESP Fit Center  354 is at  -4.304374  3.267039 -0.261616
      ESP Fit Center  355 is at  -5.002741  3.097617 -0.261616
      ESP Fit Center  356 is at  -5.656424  2.799090 -0.261616
      ESP Fit Center  357 is at  -6.241798  2.382247 -0.261616
      ESP Fit Center  358 is at  -6.737705  1.862155 -0.261616
      ESP Fit Center  359 is at  -7.126222  1.257610 -0.261616
      ESP Fit Center  360 is at  -7.393308  0.590463 -0.261616
      ESP Fit Center  361 is at  -7.529308 -0.115174 -0.261616
      ESP Fit Center  362 is at  -7.529308 -0.833798 -0.261616
      ESP Fit Center  363 is at  -7.393308 -1.539435 -0.261616
      ESP Fit Center  364 is at  -7.126222 -2.206582 -0.261616
      ESP Fit Center  365 is at  -6.737705 -2.811127 -0.261616
      ESP Fit Center  366 is at  -6.241798 -3.331219 -0.261616
      ESP Fit Center  367 is at  -5.656424 -3.748062 -0.261616
      ESP Fit Center  368 is at  -5.002741 -4.046589 -0.261616
      ESP Fit Center  369 is at  -4.304374 -4.216011 -0.261616
      ESP Fit Center  370 is at  -3.586564 -4.250205 -0.261616
      ESP Fit Center  371 is at  -2.875255 -4.147934 -0.261616
      ESP Fit Center  372 is at  -2.196155 -3.912895 -0.261616
      ESP Fit Center  373 is at  -1.573809 -3.553583 -0.261616
      ESP Fit Center  374 is at  -1.030709 -3.082985 -0.261616
      ESP Fit Center  375 is at  -0.586486 -2.518108 -0.261616
      ESP Fit Center  376 is at  -3.766424  3.232882 -0.999057
      ESP Fit Center  377 is at  -4.489696  3.161646 -0.999057
      ESP Fit Center  378 is at  -5.185173  2.950676 -0.999057
      ESP Fit Center  379 is at  -5.826128  2.608078 -0.999057
      ESP Fit Center  380 is at  -6.387929  2.147019 -0.999057
      ESP Fit Center  381 is at  -6.848988  1.585217 -0.999057
      ESP Fit Center  382 is at  -7.191586  0.944262 -0.999057
      ESP Fit Center  383 is at  -7.402556  0.248786 -0.999057
      ESP Fit Center  384 is at  -7.473792 -0.474486 -0.999057
      ESP Fit Center  385 is at  -7.402556 -1.197758 -0.999057
      ESP Fit Center  386 is at  -7.191586 -1.893235 -0.999057
      ESP Fit Center  387 is at  -6.848988 -2.534190 -0.999057
      ESP Fit Center  388 is at  -6.387929 -3.095991 -0.999057
      ESP Fit Center  389 is at  -5.826128 -3.557050 -0.999057
      ESP Fit Center  390 is at  -5.185173 -3.899648 -0.999057
      ESP Fit Center  391 is at  -4.489696 -4.110618 -0.999057
      ESP Fit Center  392 is at  -3.766424 -4.181854 -0.999057
      ESP Fit Center  393 is at  -3.043152 -4.110618 -0.999057
      ESP Fit Center  394 is at  -2.347676 -3.899648 -0.999057
      ESP Fit Center  395 is at  -1.706721 -3.557050 -0.999057
      ESP Fit Center  396 is at  -1.144919 -3.095991 -0.999057
      ESP Fit Center  397 is at  -0.683860 -2.534190 -0.999057
      ESP Fit Center  398 is at  -0.341262 -1.893235 -0.999057
      ESP Fit Center  399 is at  -0.130292 -1.197758 -0.999057
      ESP Fit Center  400 is at  -4.131465  2.998648 -1.708159
      ESP Fit Center  401 is at  -4.845593  2.846855 -1.708159
      ESP Fit Center  402 is at  -5.512556  2.549904 -1.708159
      ESP Fit Center  403 is at  -6.103205  2.120772 -1.708159
      ESP Fit Center  404 is at  -6.591726  1.578216 -1.708159
      ESP Fit Center  405 is at  -6.956767  0.945946 -1.708159
      ESP Fit Center  406 is at  -7.182374  0.251597 -1.708159
      ESP Fit Center  407 is at  -7.258689 -0.474486 -1.708159
      ESP Fit Center  408 is at  -7.182374 -1.200569 -1.708159
      ESP Fit Center  409 is at  -6.956767 -1.894918 -1.708159
      ESP Fit Center  410 is at  -6.591726 -2.527188 -1.708159
      ESP Fit Center  411 is at  -6.103205 -3.069744 -1.708159
      ESP Fit Center  412 is at  -5.512556 -3.498876 -1.708159
      ESP Fit Center  413 is at  -4.845593 -3.795827 -1.708159
      ESP Fit Center  414 is at  -4.131465 -3.947620 -1.708159
      ESP Fit Center  415 is at  -3.401383 -3.947620 -1.708159
      ESP Fit Center  416 is at  -2.687255 -3.795827 -1.708159
      ESP Fit Center  417 is at  -2.020292 -3.498876 -1.708159
      ESP Fit Center  418 is at  -1.429643 -3.069744 -1.708159
      ESP Fit Center  419 is at  -0.941123 -2.527188 -1.708159
      ESP Fit Center  420 is at  -0.576082 -1.894918 -1.708159
      ESP Fit Center  421 is at  -0.350474 -1.200569 -1.708159
      ESP Fit Center  422 is at  -3.949171  2.663152 -2.361672
      ESP Fit Center  423 is at  -4.667834  2.536432 -2.361672
      ESP Fit Center  424 is at  -5.337902  2.247393 -2.361672
      ESP Fit Center  425 is at  -5.923251  1.811617 -2.361672
      ESP Fit Center  426 is at  -6.392325  1.252596 -2.361672
      ESP Fit Center  427 is at  -6.719836  0.600468 -2.361672
      ESP Fit Center  428 is at  -6.888128 -0.109611 -2.361672
      ESP Fit Center  429 is at  -6.888128 -0.839361 -2.361672
      ESP Fit Center  430 is at  -6.719836 -1.549440 -2.361672
      ESP Fit Center  431 is at  -6.392325 -2.201568 -2.361672
      ESP Fit Center  432 is at  -5.923251 -2.760589 -2.361672
      ESP Fit Center  433 is at  -5.337902 -3.196365 -2.361672
      ESP Fit Center  434 is at  -4.667834 -3.485404 -2.361672
      ESP Fit Center  435 is at  -3.949171 -3.612124 -2.361672
      ESP Fit Center  436 is at  -3.220656 -3.569693 -2.361672
      ESP Fit Center  437 is at  -2.521563 -3.360398 -2.361672
      ESP Fit Center  438 is at  -1.889581 -2.995523 -2.361672
      ESP Fit Center  439 is at  -1.358781 -2.494739 -2.361672
      ESP Fit Center  440 is at  -0.957777 -1.885042 -2.361672
      ESP Fit Center  441 is at  -0.708188 -1.199301 -2.361672
      ESP Fit Center  442 is at  -1.093560 -0.474486 -2.934480
      ESP Fit Center  443 is at  -1.942053  1.478939 -2.934480
      ESP Fit Center  444 is at  -2.536733  1.898710 -2.934480
      ESP Fit Center  445 is at  -3.222614  2.142472 -2.934480
      ESP Fit Center  446 is at  -3.948827  2.192147 -2.934480
      ESP Fit Center  447 is at  -4.661512  2.044049 -2.934480
      ESP Fit Center  448 is at  -5.307812  1.709163 -2.934480
      ESP Fit Center  449 is at  -5.839795  1.212326 -2.934480
      ESP Fit Center  450 is at  -6.218005  0.590386 -2.934480
      ESP Fit Center  451 is at  -6.414393 -0.110531 -2.934480
      ESP Fit Center  452 is at  -6.414393 -0.838441 -2.934480
      ESP Fit Center  453 is at  -6.218005 -1.539358 -2.934480
      ESP Fit Center  454 is at  -5.839795 -2.161298 -2.934480
      ESP Fit Center  455 is at  -5.307812 -2.658135 -2.934480
      ESP Fit Center  456 is at  -4.661512 -2.993021 -2.934480
      ESP Fit Center  457 is at  -3.948827 -3.141119 -2.934480
      ESP Fit Center  458 is at  -3.222614 -3.091444 -2.934480
      ESP Fit Center  459 is at  -2.536733 -2.847682 -2.934480
      ESP Fit Center  460 is at  -1.942053 -2.427911 -2.934480
      ESP Fit Center  461 is at  -1.482678 -1.863263 -2.934480
      ESP Fit Center  462 is at  -1.192677 -1.195616 -2.934480
      ESP Fit Center  463 is at  -1.666369 -0.474486 -3.404571
      ESP Fit Center  464 is at  -1.793017  0.243775 -3.404571
      ESP Fit Center  465 is at  -2.157688  0.875404 -3.404571
      ESP Fit Center  466 is at  -2.716396  1.344215 -3.404571
      ESP Fit Center  467 is at  -3.401753  1.593665 -3.404571
      ESP Fit Center  468 is at  -4.131095  1.593665 -3.404571
      ESP Fit Center  469 is at  -4.816452  1.344215 -3.404571
      ESP Fit Center  470 is at  -5.375160  0.875404 -3.404571
      ESP Fit Center  471 is at  -5.739831  0.243775 -3.404571
      ESP Fit Center  472 is at  -5.866480 -0.474486 -3.404571
      ESP Fit Center  473 is at  -5.739831 -1.192747 -3.404571
      ESP Fit Center  474 is at  -5.375160 -1.824376 -3.404571
      ESP Fit Center  475 is at  -4.816452 -2.293187 -3.404571
      ESP Fit Center  476 is at  -4.131095 -2.542637 -3.404571
      ESP Fit Center  477 is at  -3.401753 -2.542637 -3.404571
      ESP Fit Center  478 is at  -2.716396 -2.293187 -3.404571
      ESP Fit Center  479 is at  -2.157688 -1.824376 -3.404571
      ESP Fit Center  480 is at  -1.793017 -1.192747 -3.404571
      ESP Fit Center  481 is at  -2.319881 -0.474486 -3.753881
      ESP Fit Center  482 is at  -2.513681  0.248786 -3.753881
      ESP Fit Center  483 is at  -3.043152  0.778257 -3.753881
      ESP Fit Center  484 is at  -3.766424  0.972057 -3.753881
      ESP Fit Center  485 is at  -4.489696  0.778257 -3.753881
      ESP Fit Center  486 is at  -5.019167  0.248786 -3.753881
      ESP Fit Center  487 is at  -5.212967 -0.474486 -3.753881
      ESP Fit Center  488 is at  -5.019167 -1.197758 -3.753881
      ESP Fit Center  489 is at  -4.489696 -1.727229 -3.753881
      ESP Fit Center  490 is at  -3.766424 -1.921029 -3.753881
      ESP Fit Center  491 is at  -3.043152 -1.727229 -3.753881
      ESP Fit Center  492 is at  -2.513681 -1.197758 -3.753881
      ESP Fit Center  493 is at  -3.028983 -0.474486 -3.968984
      ESP Fit Center  494 is at  -3.397703  0.164157 -3.968984
      ESP Fit Center  495 is at  -4.135145  0.164157 -3.968984
      ESP Fit Center  496 is at  -4.503866 -0.474486 -3.968984
      ESP Fit Center  497 is at  -4.135145 -1.113129 -3.968984
      ESP Fit Center  498 is at  -3.397703 -1.113129 -3.968984
      ESP Fit Center  499 is at  -3.766424 -0.474486 -4.041616
      ESP Fit Center  500 is at   7.900177 -0.215205  0.682869
      ESP Fit Center  501 is at   8.484729 -0.215205  0.216704
      ESP Fit Center  502 is at   8.233877  0.556837  0.216704
      ESP Fit Center  503 is at   7.577139  1.033986  0.216704
      ESP Fit Center  504 is at   8.233877 -0.987247  0.216704
      ESP Fit Center  505 is at   8.809131 -0.215205 -0.456924
      ESP Fit Center  506 is at   8.621522  0.545955 -0.456924
      ESP Fit Center  507 is at   8.101673  1.132743 -0.456924
      ESP Fit Center  508 is at   8.101673 -1.563153 -0.456924
      ESP Fit Center  509 is at   8.621522 -0.976365 -0.456924
      ESP Fit Center  510 is at   8.809131 -0.215205 -1.204594
      ESP Fit Center  511 is at   8.621522  0.545955 -1.204594
      ESP Fit Center  512 is at   8.101673  1.132743 -1.204594
      ESP Fit Center  513 is at   7.368676  1.410732 -1.204594
      ESP Fit Center  514 is at   7.368676 -1.841142 -1.204594
      ESP Fit Center  515 is at   8.101673 -1.563153 -1.204594
      ESP Fit Center  516 is at   8.621522 -0.976365 -1.204594
      ESP Fit Center  517 is at   8.484729 -0.215205 -1.878222
      ESP Fit Center  518 is at   8.233877  0.556837 -1.878222
      ESP Fit Center  519 is at   7.577139  1.033986 -1.878222
      ESP Fit Center  520 is at   7.577139 -1.464396 -1.878222
      ESP Fit Center  521 is at   8.233877 -0.987247 -1.878222
      ESP Fit Center  522 is at   7.900177 -0.215205 -2.344387
      ESP Fit Center  523 is at   7.535714  0.416062 -2.344387
      ESP Fit Center  524 is at   7.535714 -0.846472 -2.344387
      ESP Fit Center  525 is at   7.171252 -0.215205 -2.510759
      ESP Fit Center  526 is at   6.792374 -2.413415  1.291334
      ESP Fit Center  527 is at   5.698987 -3.044682  1.291334
      ESP Fit Center  528 is at   6.427911 -3.044682  1.291334
      ESP Fit Center  529 is at   7.376926 -2.413415  0.825169
      ESP Fit Center  530 is at   5.657562 -3.662606  0.825169
      ESP Fit Center  531 is at   6.469336 -3.662606  0.825169
      ESP Fit Center  532 is at   7.126074 -3.185457  0.825169
      ESP Fit Center  533 is at   7.701328 -2.413415  0.151541
      ESP Fit Center  534 is at   5.482649 -3.944858  0.151541
      ESP Fit Center  535 is at   6.260873 -4.039352  0.151541
      ESP Fit Center  536 is at   6.993870 -3.761363  0.151541
      ESP Fit Center  537 is at   7.513719 -3.174575  0.151541
      ESP Fit Center  538 is at   7.701328 -2.413415 -0.596129
      ESP Fit Center  539 is at   4.837479 -3.499530 -0.596129
      ESP Fit Center  540 is at   5.482649 -3.944858 -0.596129
      ESP Fit Center  541 is at   6.260873 -4.039352 -0.596129
      ESP Fit Center  542 is at   6.993870 -3.761363 -0.596129
      ESP Fit Center  543 is at   7.513719 -3.174575 -0.596129
      ESP Fit Center  544 is at   7.376926 -2.413415 -1.269757
      ESP Fit Center  545 is at   5.657562 -3.662606 -1.269757
      ESP Fit Center  546 is at   6.469336 -3.662606 -1.269757
      ESP Fit Center  547 is at   7.126074 -3.185457 -1.269757
[...]
 3703 Fit       0.008527
 3704 Fit       0.008328
 3705 Fit       0.007025
 3706 Fit       0.005311
 3707 Fit       0.003551
 3708 Fit       0.001916
 3709 Fit       0.000480
 3710 Fit      -0.000725
 3711 Fit      -0.001694
 3712 Fit      -0.002435
 3713 Fit      -0.002970
 3714 Fit      -0.003332
 3715 Fit      -0.003558
 3716 Fit      -0.003691
 3717 Fit      -0.003776
 3718 Fit      -0.003852
 3719 Fit      -0.003951
 3720 Fit      -0.004095
 3721 Fit      -0.004293
 3722 Fit      -0.004542
 3723 Fit      -0.004829
 3724 Fit      -0.005129
 3725 Fit      -0.005413
 3726 Fit      -0.005646
 3727 Fit      -0.005793
 3728 Fit      -0.005817
 3729 Fit      -0.005675
 3730 Fit      -0.005329
 3731 Fit       0.010354
 3732 Fit       0.008402
 3733 Fit       0.006380
 3734 Fit       0.004451
 3735 Fit       0.002699
 3736 Fit       0.001163
 3737 Fit      -0.000140
 3738 Fit      -0.001208
 3739 Fit      -0.002048
 3740 Fit      -0.002678
 3741 Fit      -0.003121
 3742 Fit      -0.003408
 3743 Fit      -0.003576
 3744 Fit      -0.003663
 3745 Fit      -0.003708
 3746 Fit      -0.003745
 3747 Fit      -0.003805
 3748 Fit      -0.003908
 3749 Fit      -0.004067
 3750 Fit      -0.004282
 3751 Fit      -0.004546
 3752 Fit      -0.004840
 3753 Fit      -0.005141
 3754 Fit      -0.005419
 3755 Fit      -0.005639
 3756 Fit      -0.005763
 3757 Fit      -0.005742
 3758 Fit      -0.005501
 3759 Fit      -0.004909
 3760 Fit      -0.003737
 3761 Fit       0.011026
 3762 Fit       0.008774
 3763 Fit       0.006643
 3764 Fit       0.004671
 3765 Fit       0.002898
 3766 Fit       0.001346
 3767 Fit       0.000025
 3768 Fit      -0.001064
 3769 Fit      -0.001929
 3770 Fit      -0.002585
 3771 Fit      -0.003053
 3772 Fit      -0.003361
 3773 Fit      -0.003541
 3774 Fit      -0.003629
 3775 Fit      -0.003659
 3776 Fit      -0.003668
 3777 Fit      -0.003685
 3778 Fit      -0.003735
 3779 Fit      -0.003834
 3780 Fit      -0.003992
 3781 Fit      -0.004208
 3782 Fit      -0.004472
 3783 Fit      -0.004767
 3784 Fit      -0.005070
 3785 Fit      -0.005351
 3786 Fit      -0.005579
 3787 Fit      -0.005714
 3788 Fit      -0.005708
 3789 Fit      -0.005482
 3790 Fit      -0.004894
 3791 Fit      -0.003641
 3792 Fit      -0.001078
 3793 Fit       0.012814
 3794 Fit       0.010459
 3795 Fit       0.008245
 3796 Fit       0.006160
 3797 Fit       0.004243
 3798 Fit       0.002527
 3799 Fit       0.001031
 3800 Fit      -0.000236
 3801 Fit      -0.001275
 3802 Fit      -0.002094
 3803 Fit      -0.002710
 3804 Fit      -0.003143
 3805 Fit      -0.003422
 3806 Fit      -0.003578
 3807 Fit      -0.003644
 3808 Fit      -0.003656
 3809 Fit      -0.003646
 3810 Fit      -0.003644
 3811 Fit      -0.003673
 3812 Fit      -0.003752
 3813 Fit      -0.003890
 3814 Fit      -0.004086
 3815 Fit      -0.004335
 3816 Fit      -0.004621
 3817 Fit      -0.004923
 3818 Fit      -0.005214
 3819 Fit      -0.005464
 3820 Fit      -0.005637
 3821 Fit      -0.005690
 3822 Fit      -0.005562
 3823 Fit      -0.005147
 3824 Fit      -0.004227
 3825 Fit      -0.002295
 3826 Fit       0.001902
 3827 Fit       0.011784
 3828 Fit       0.009652
 3829 Fit       0.007558
 3830 Fit       0.005572
 3831 Fit       0.003747
 3832 Fit       0.002117
 3833 Fit       0.000699
 3834 Fit      -0.000498
 3835 Fit      -0.001477
 3836 Fit      -0.002246
 3837 Fit      -0.002822
 3838 Fit      -0.003226
 3839 Fit      -0.003483
 3840 Fit      -0.003624
 3841 Fit      -0.003679
 3842 Fit      -0.003682
 3843 Fit      -0.003663
 3844 Fit      -0.003650
 3845 Fit      -0.003666
 3846 Fit      -0.003728
 3847 Fit      -0.003844
 3848 Fit      -0.004019
 3849 Fit      -0.004246
 3850 Fit      -0.004513
 3851 Fit      -0.004802
 3852 Fit      -0.005089
 3853 Fit      -0.005346
 3854 Fit      -0.005543
 3855 Fit      -0.005645
 3856 Fit      -0.005605
 3857 Fit      -0.005356
 3858 Fit      -0.004775
 3859 Fit      -0.003598
 3860 Fit      -0.001185
 3861 Fit       0.004187
 3862 Fit       0.011990
 3863 Fit       0.009915
 3864 Fit       0.007821
 3865 Fit       0.005808
 3866 Fit       0.003943
 3867 Fit       0.002269
 3868 Fit       0.000809
 3869 Fit      -0.000427
 3870 Fit      -0.001438
 3871 Fit      -0.002235
 3872 Fit      -0.002833
 3873 Fit      -0.003254
 3874 Fit      -0.003523
 3875 Fit      -0.003672
 3876 Fit      -0.003732
 3877 Fit      -0.003738
 3878 Fit      -0.003719
 3879 Fit      -0.003704
 3880 Fit      -0.003718
 3881 Fit      -0.003776
 3882 Fit      -0.003890
 3883 Fit      -0.004060
 3884 Fit      -0.004283
 3885 Fit      -0.004544
 3886 Fit      -0.004824
 3887 Fit      -0.005100
 3888 Fit      -0.005343
 3889 Fit      -0.005523
 3890 Fit      -0.005603
 3891 Fit      -0.005542
 3892 Fit      -0.005280
 3893 Fit      -0.004716
 3894 Fit      -0.003642
 3895 Fit      -0.001571
 3896 Fit       0.002768
 3897 Fit       0.012063
 3898 Fit       0.010006
 3899 Fit       0.007936
 3900 Fit       0.005930
 3901 Fit       0.004058
 3902 Fit       0.002368
 3903 Fit       0.000890
 3904 Fit      -0.000366
 3905 Fit      -0.001398
 3906 Fit      -0.002215
 3907 Fit      -0.002833
 3908 Fit      -0.003273
 3909 Fit      -0.003560
 3910 Fit      -0.003725
 3911 Fit      -0.003800
 3912 Fit      -0.003818
 3913 Fit      -0.003808
 3914 Fit      -0.003800
 3915 Fit      -0.003817
 3916 Fit      -0.003876
 3917 Fit      -0.003986
 3918 Fit      -0.004149
 3919 Fit      -0.004361
 3920 Fit      -0.004607
 3921 Fit      -0.004869
 3922 Fit      -0.005123
 3923 Fit      -0.005342
 3924 Fit      -0.005494
 3925 Fit      -0.005548
 3926 Fit      -0.005467
 3927 Fit      -0.005206
 3928 Fit      -0.004697
 3929 Fit      -0.003819
 3930 Fit      -0.002331
 3931 Fit       0.000286
 3932 Fit       0.011773
 3933 Fit       0.009824
 3934 Fit       0.007846
 3935 Fit       0.005900
 3936 Fit       0.004065
 3937 Fit       0.002398
 3938 Fit       0.000931
 3939 Fit      -0.000322
 3940 Fit      -0.001359
 3941 Fit      -0.002187
 3942 Fit      -0.002821
 3943 Fit      -0.003280
 3944 Fit      -0.003589
 3945 Fit      -0.003778
 3946 Fit      -0.003875
 3947 Fit      -0.003914
 3948 Fit      -0.003923
 3949 Fit      -0.003929
 3950 Fit      -0.003954
 3951 Fit      -0.004015
 3952 Fit      -0.004122
 3953 Fit      -0.004275
 3954 Fit      -0.004469
 3955 Fit      -0.004693
 3956 Fit      -0.004928
 3957 Fit      -0.005150
 3958 Fit      -0.005334
 3959 Fit      -0.005452
 3960 Fit      -0.005474
 3961 Fit      -0.005372
 3962 Fit      -0.005114
 3963 Fit      -0.004665
 3964 Fit      -0.003977
 3965 Fit      -0.002992
 3966 Fit      -0.001649
 3967 Fit      -0.000026
 3968 Fit       0.011828
 3969 Fit       0.010233
 3970 Fit       0.008440
 3971 Fit       0.006554
 3972 Fit       0.004697
 3973 Fit       0.002963
 3974 Fit       0.001409
 3975 Fit       0.000064
 3976 Fit      -0.001064
 3977 Fit      -0.001976
 3978 Fit      -0.002685
 3979 Fit      -0.003210
 3980 Fit      -0.003575
 3981 Fit      -0.003810
 3982 Fit      -0.003945
 3983 Fit      -0.004015
 3984 Fit      -0.004049
 3985 Fit      -0.004077
 3986 Fit      -0.004120
 3987 Fit      -0.004195
 3988 Fit      -0.004310
 3989 Fit      -0.004465
 3990 Fit      -0.004654
 3991 Fit      -0.004860
 3992 Fit      -0.005064
 3993 Fit      -0.005239
 3994 Fit      -0.005358
 3995 Fit      -0.005393
 3996 Fit      -0.005316
 3997 Fit      -0.005104
 3998 Fit      -0.004737
 3999 Fit      -0.004205
 4000 Fit      -0.003520
 4001 Fit      -0.002744
 4002 Fit      -0.002060
 4003 Fit      -0.001888
 4004 Fit      -0.007269
 4005 Fit       0.010409
 4006 Fit       0.009748
 4007 Fit       0.008466
 4008 Fit       0.006850
 4009 Fit       0.005113
 4010 Fit       0.003408
 4011 Fit       0.001830
 4012 Fit       0.000433
 4013 Fit      -0.000760
 4014 Fit      -0.001741
 4015 Fit      -0.002518
 4016 Fit      -0.003107
 4017 Fit      -0.003531
 4018 Fit      -0.003817
 4019 Fit      -0.003998
 4020 Fit      -0.004106
 4021 Fit      -0.004173
 4022 Fit      -0.004226
 4023 Fit      -0.004289
 4024 Fit      -0.004377
 4025 Fit      -0.004497
 4026 Fit      -0.004648
 4027 Fit      -0.004819
 4028 Fit      -0.004993
 4029 Fit      -0.005148
 4030 Fit      -0.005258
 4031 Fit      -0.005293
 4032 Fit      -0.005229
 4033 Fit      -0.005042
 4034 Fit      -0.004719
 4035 Fit      -0.004260
 4036 Fit      -0.003687
 4037 Fit      -0.003067
 4038 Fit      -0.002532
 4039 Fit      -0.002295
 4040 Fit      -0.002644
 4041 Fit      -0.004009
 4042 Fit      -0.004046
 4043 Fit      -0.006265
 4044 Fit      -0.007649
 4045 Fit      -0.006231
 4046 Fit      -0.002092
 4047 Fit       0.002702
 4048 Fit       0.006245
 4049 Fit       0.007961
 4050 Fit       0.008227
 4051 Fit       0.007546
 4052 Fit       0.006302
 4053 Fit       0.004782
 4054 Fit       0.003196
 4055 Fit       0.001680
 4056 Fit       0.000314
 4057 Fit      -0.000863
 4058 Fit      -0.001837
 4059 Fit      -0.002609
 4060 Fit      -0.003196
 4061 Fit      -0.003619
 4062 Fit      -0.003910
 4063 Fit      -0.004102
 4064 Fit      -0.004228
 4065 Fit      -0.004319
 4066 Fit      -0.004402
 4067 Fit      -0.004495
 4068 Fit      -0.004609
 4069 Fit      -0.004742
 4070 Fit      -0.004886
 4071 Fit      -0.005023
 4072 Fit      -0.005130
 4073 Fit      -0.005177
 4074 Fit      -0.005139
 4075 Fit      -0.004989
 4076 Fit      -0.004710
 4077 Fit      -0.004298
 4078 Fit      -0.003768
 4079 Fit      -0.003165
 4080 Fit      -0.002575
 4081 Fit      -0.002135
 4082 Fit      -0.002036
 4083 Fit      -0.002566
 4084 Fit      -0.001760
 4085 Fit      -0.002263
 4086 Fit      -0.002156
 4087 Fit      -0.000755
 4088 Fit       0.001677
 4089 Fit       0.004148
 4090 Fit       0.005821
 4091 Fit       0.006430
 4092 Fit       0.006116
 4093 Fit       0.005159
 4094 Fit       0.003843
 4095 Fit       0.002403
 4096 Fit       0.000998
 4097 Fit      -0.000276
 4098 Fit      -0.001369
 4099 Fit      -0.002262
 4100 Fit      -0.002959
 4101 Fit      -0.003478
 4102 Fit      -0.003847
 4103 Fit      -0.004100
 4104 Fit      -0.004275
 4105 Fit      -0.004404
 4106 Fit      -0.004516
 4107 Fit      -0.004626
 4108 Fit      -0.004744
 4109 Fit      -0.004863
 4110 Fit      -0.004968
 4111 Fit      -0.005035
 4112 Fit      -0.005035
 4113 Fit      -0.004939
 4114 Fit      -0.004721
 4115 Fit      -0.004365
 4116 Fit      -0.003873
 4117 Fit      -0.003269
 4118 Fit      -0.002610
 4119 Fit      -0.001989
 4120 Fit      -0.001541
 4121 Fit      -0.001432
 4122 Fit      -0.000509
 4123 Fit      -0.000239
 4124 Fit       0.000352
 4125 Fit       0.001484
 4126 Fit       0.002926
 4127 Fit       0.004160
 4128 Fit       0.004777
 4129 Fit       0.004665
 4130 Fit       0.003944
 4131 Fit       0.002835
 4132 Fit       0.001561
 4133 Fit       0.000290
 4134 Fit      -0.000868
 4135 Fit      -0.001858
 4136 Fit      -0.002657
 4137 Fit      -0.003270
 4138 Fit      -0.003720
 4139 Fit      -0.004039
 4140 Fit      -0.004265
 4141 Fit      -0.004431
 4142 Fit      -0.004565
 4143 Fit      -0.004682
 4144 Fit      -0.004784
 4145 Fit      -0.004860
 4146 Fit      -0.004889
 4147 Fit      -0.004839
 4148 Fit      -0.004682
 4149 Fit      -0.004392
 4150 Fit      -0.003956
 4151 Fit      -0.003381
 4152 Fit      -0.002702
 4153 Fit      -0.001984
 4154 Fit      -0.001320
 4155 Fit      -0.000816
 4156 Fit      -0.000044
 4157 Fit       0.000555
 4158 Fit       0.001277
 4159 Fit       0.002151
 4160 Fit       0.002955
 4161 Fit       0.003374
 4162 Fit       0.003228
 4163 Fit       0.002555
 4164 Fit       0.001533
 4165 Fit       0.000369
 4166 Fit      -0.000771
 4167 Fit      -0.001781
 4168 Fit      -0.002612
 4169 Fit      -0.003253
 4170 Fit      -0.003724
 4171 Fit      -0.004059
 4172 Fit      -0.004295
 4173 Fit      -0.004465
 4174 Fit      -0.004588
 4175 Fit      -0.004667
 4176 Fit      -0.004686
 4177 Fit      -0.004618
 4178 Fit      -0.004429
 4179 Fit      -0.004092
 4180 Fit      -0.003592
 4181 Fit      -0.002943
 4182 Fit      -0.002188
 4183 Fit      -0.001402
 4184 Fit      -0.000673
 4185 Fit      -0.000087
 4186 Fit       0.000618
 4187 Fit       0.001288
 4188 Fit       0.001854
 4189 Fit       0.002123
 4190 Fit       0.001932
 4191 Fit       0.001284
 4192 Fit       0.000333
 4193 Fit      -0.000721
 4194 Fit      -0.001717
 4195 Fit      -0.002560
 4196 Fit      -0.003215
 4197 Fit      -0.003692
 4198 Fit      -0.004023
 4199 Fit      -0.004241
 4200 Fit      -0.004370
 4201 Fit      -0.004410
 4202 Fit      -0.004343
 4203 Fit      -0.004137
 4204 Fit      -0.003761
 4205 Fit      -0.003204
 4206 Fit      -0.002490
 4207 Fit      -0.001677
 4208 Fit      -0.000853
 4209 Fit      -0.000426
 4210 Fit       0.000290
 4211 Fit       0.000804
 4212 Fit       0.000970
 4213 Fit       0.000658
 4214 Fit      -0.000087
 4215 Fit      -0.001055
 4216 Fit      -0.002013
 4217 Fit      -0.002810
 4218 Fit      -0.003393
 4219 Fit      -0.003772
 4220 Fit      -0.003976
 4221 Fit      -0.004013
 4222 Fit      -0.003868
 4223 Fit      -0.003506
 4224 Fit      -0.002915
 4225 Fit      -0.002135
 4226 Fit      -0.001264
 4227 Fit      -0.000919
 4228 Fit      -0.000286
 4229 Fit      -0.000117
 4230 Fit      -0.000539
 4231 Fit      -0.001390
 4232 Fit      -0.002305
 4233 Fit      -0.003010
 4234 Fit      -0.003407
 4235 Fit      -0.003484
 4236 Fit      -0.003224
 4237 Fit      -0.002625
 4238 Fit      -0.001783
 4239 Fit      -0.001473
 4240 Fit      -0.001123
 4241 Fit      -0.001716
 4242 Fit      -0.002550
 4243 Fit      -0.002821
 4244 Fit      -0.002331
 4245 Fit      -0.002030
 4246 Fit       0.011399
 4247 Fit       0.010783
 4248 Fit       0.012212
 4249 Fit       0.013204
 4250 Fit       0.012821
 4251 Fit       0.012641
 4252 Fit       0.012920
 4253 Fit       0.014898
 4254 Fit       0.013800
 4255 Fit       0.014327
 4256 Fit       0.014079
 4257 Fit       0.014069
 4258 Fit       0.014627
 4259 Fit       0.017624
 4260 Fit       0.015660
 4261 Fit       0.014777
 4262 Fit       0.014793
 4263 Fit       0.014657
 4264 Fit       0.014747
 4265 Fit       0.015416
 4266 Fit       0.017048
 4267 Fit       0.015688
 4268 Fit       0.015084
 4269 Fit       0.014611
 4270 Fit       0.014567
 4271 Fit       0.014695
 4272 Fit       0.015317
 4273 Fit       0.015667
 4274 Fit       0.015014
 4275 Fit       0.014735
 4276 Fit       0.013778
 4277 Fit       0.013801
 4278 Fit       0.013923
 4279 Fit       0.014443
 4280 Fit       0.013570
 4281 Fit       0.013705
 4282 Fit       0.012278
 4283 Fit       0.012274
 4284 Fit       0.011826
 4285 Fit       0.010073
 4286 Fit       0.006758
 4287 Fit       0.008751
 4288 Fit       0.005157
 4289 Fit       0.008423
 4290 Fit       0.010392
 4291 Fit       0.011461
 4292 Fit       0.014334
 4293 Fit       0.001713
 4294 Fit       0.006269
 4295 Fit       0.009244
 4296 Fit       0.011245
 4297 Fit       0.012609
 4298 Fit       0.013584
 4299 Fit       0.016613
 4300 Fit       0.004057
 4301 Fit       0.007957
 4302 Fit       0.010600
 4303 Fit       0.012461
 4304 Fit       0.013857
 4305 Fit       0.015106
 4306 Fit       0.018122
 4307 Fit       0.004805
 4308 Fit       0.008476
 4309 Fit       0.011037
 4310 Fit       0.012905
 4311 Fit       0.014406
 4312 Fit       0.015925
 4313 Fit       0.018227
 4314 Fit       0.004245
 4315 Fit       0.007952
 4316 Fit       0.010600
 4317 Fit       0.012569
 4318 Fit       0.014179
 4319 Fit       0.015829
 4320 Fit       0.007972
 4321 Fit       0.010690
 4322 Fit       0.012724
 4323 Fit       0.014495
 4324 Fit       0.010001
 4325 Fit       0.012151
 4326 Fit       0.007642
 4327 Fit       0.004975
 4328 Fit       0.000638
 4329 Fit       0.012178
 4330 Fit       0.010541
 4331 Fit       0.008614
 4332 Fit       0.005968
 4333 Fit       0.002042
 4334 Fit      -0.004112
 4335 Fit       0.014178
 4336 Fit       0.012161
 4337 Fit       0.010213
 4338 Fit       0.007783
 4339 Fit       0.004340
 4340 Fit      -0.000882
 4341 Fit      -0.009368
 4342 Fit       0.015022
 4343 Fit       0.012850
 4344 Fit       0.010865
 4345 Fit       0.008477
 4346 Fit       0.005174
 4347 Fit       0.000276
 4348 Fit      -0.007434
 4349 Fit       0.014578
 4350 Fit       0.012556
 4351 Fit       0.010565
 4352 Fit       0.008099
 4353 Fit       0.004683
 4354 Fit      -0.000297
 4355 Fit      -0.007807
 4356 Fit       0.012816
 4357 Fit       0.010846
 4358 Fit       0.008385
 4359 Fit       0.004911
 4360 Fit      -0.000153
 4361 Fit       0.010180
 4362 Fit       0.007677
 4363 Fit       0.003741
 4364 Fit       0.006509
 4365 Fit       0.005196
 4366 Fit       0.001998
 4367 Fit       0.004831
 4368 Fit       0.000137
 4369 Fit       0.006295
 4370 Fit       0.004102
 4371 Fit       0.005210
 4372 Fit       0.001358
 4373 Fit       0.003921
 4374 Fit      -0.000645
 4375 Fit       0.002927
 4376 Fit      -0.000845
 4377 Fit       0.001568
 4378 Fit       0.009053
 4379 Fit       0.012075
 4380 Fit       0.001169
 4381 Fit       0.005302
 4382 Fit       0.008567
 4383 Fit       0.011596
 4384 Fit      -0.003322
 4385 Fit       0.002017
 4386 Fit       0.005893
 4387 Fit       0.009081
 4388 Fit       0.012187
 4389 Fit      -0.004951
 4390 Fit       0.001193
 4391 Fit       0.005613
 4392 Fit       0.009196
 4393 Fit      -0.004960
 4394 Fit       0.001445
 4395 Fit       0.006326
 4396 Fit      -0.002436
 4397 Fit       0.002047
 4398 Fit       0.007059
 4399 Fit       0.002271
 4400 Fit      -0.000393
 4401 Fit       0.002750
 4402 Fit       0.005392
 4403 Fit       0.005689
 4404 Fit      -0.003314
 4405 Fit      -0.000191
 4406 Fit       0.003095
 4407 Fit       0.005860
 4408 Fit       0.008152
 4409 Fit      -0.007877
 4410 Fit      -0.004265
 4411 Fit      -0.000378
 4412 Fit       0.002927
 4413 Fit       0.005615
 4414 Fit       0.007938
 4415 Fit       0.010285
 4416 Fit      -0.010222
 4417 Fit      -0.004730
 4418 Fit      -0.000401
 4419 Fit       0.002932
 4420 Fit       0.005603
 4421 Fit       0.007939
 4422 Fit       0.010288
 4423 Fit      -0.009053
 4424 Fit      -0.002945
 4425 Fit       0.001356
 4426 Fit       0.004620
 4427 Fit       0.007372
 4428 Fit       0.010048
 4429 Fit      -0.005170
 4430 Fit       0.000210
 4431 Fit       0.004149
 4432 Fit       0.007454
 -----------------------------------------------------------------
 Leave Link  602 at Fri Jan 17 11:56:47 2014, MaxMem=   235929600 cpu:         1.5

 Test job not archived.
 1\1\GINC-G42\SP\RHF\Gen\C8H9I1N4S1\KOLAR\17-Jan-2014\0\\# hf/gen pseud
 o=read pop=(mk, readradii) iop(6/33=2,6/41=5,6/42=2)\\na resp\\0,1\C,0
 ,6.119736,-0.272286,-0.573359\C,0,5.504067,-1.479247,-0.239441\N,0,4.2
 11702,-1.564807,0.074611\C,0,3.526341,-0.4049,0.05232\N,0,4.001921,0.8
 07817,-0.239456\C,0,5.300547,0.854507,-0.551124\N,0,2.189325,-0.56201,
 0.401503\C,0,1.157366,0.353773,0.403462\N,0,1.140672,1.505843,-0.13215
 6\C,0,-0.088034,2.215389,0.169824\C,0,-1.237318,1.218122,0.542061\H,0,
 -1.887217,1.64929,1.306236\S,0,-0.334323,-0.201666,1.287134\C,0,-2.048
 057,0.841254,-0.690563\I,0,-3.766424,-0.474486,-0.261616\H,0,7.171252,
 -0.215205,-0.830759\H,0,6.063449,-2.413415,-0.222294\H,0,5.6947,1.8412
 21,-0.790059\H,0,1.961313,-1.517404,0.643915\H,0,-0.381407,2.833627,-0
 .687156\H,0,0.08631,2.896742,1.014754\H,0,-2.498529,1.726269,-1.143523
 \H,0,-1.453443,0.305716,-1.430198\\Version=AM64L-G09RevD.01\State=1-A\
 HF=-934.639336\RMSD=4.031e-09\Dipole=1.1345332,0.3887234,-0.1920618\Qu
 adrupole=8.8624431,-2.5841001,-6.278343,-6.3384417,-2.5838719,0.074237
 1\PG=C01 [X(C8H9I1N4S1)]\\@


 EDUCATION DOESN'T COST 
           ... IT PAYS!

 -- POSTMARK, UNIV. OF MISSISSIPPI, DEC 78
 Job cpu time:       0 days  0 hours  2 minutes 14.8 seconds.
 File lengths (MBytes):  RWF=     26 Int=      0 D2E=      0 Chk=      3 Scr=      1
 Normal termination of Gaussian 09 at Fri Jan 17 11:56:47 2014.
134.46user 0.37system 2:15.68elapsed 99%CPU (0avgtext+0avgdata 603376maxresident)k
8inputs+95992outputs (0major+170688minor)pagefaults 0swaps
