Linux g29 2.6.38.6-client #1 SMP Tue Jun 12 11:27:21 CEST 2012 x86_64 GNU/Linux
Fri Jan 17 11:54:32 CET 2014

 Entering Gaussian System, Link 0=/usr/local/programs/common/gaussian/gaussian09_d01/arch/amd64-pgi_10.4.0-acml/g09/g09
 Initial command:
 /usr/local/programs/common/gaussian/gaussian09_d01/arch/amd64-pgi_10.4.0-acml/g09/l1.exe "/scratch/kolar/g09_19989/Gau-21004.inp" -scrdir="/scratch/kolar/g09_19989/"
 Entering Link 1 = /usr/local/programs/common/gaussian/gaussian09_d01/arch/amd64-pgi_10.4.0-acml/g09/l1.exe PID=     21008.
  
 Copyright (c) 1988,1990,1992,1993,1995,1998,2003,2009,2013,
            Gaussian, Inc.  All Rights Reserved.
  
 This is part of the Gaussian(R) 09 program.  It is based on
 the Gaussian(R) 03 system (copyright 2003, Gaussian, Inc.),
 the Gaussian(R) 98 system (copyright 1998, Gaussian, Inc.),
 the Gaussian(R) 94 system (copyright 1995, Gaussian, Inc.),
 the Gaussian 92(TM) system (copyright 1992, Gaussian, Inc.),
 the Gaussian 90(TM) system (copyright 1990, Gaussian, Inc.),
 the Gaussian 88(TM) system (copyright 1988, Gaussian, Inc.),
 the Gaussian 86(TM) system (copyright 1986, Carnegie Mellon
 University), and the Gaussian 82(TM) system (copyright 1983,
 Carnegie Mellon University). Gaussian is a federally registered
 trademark of Gaussian, Inc.
  
 This software contains proprietary and confidential information,
 including trade secrets, belonging to Gaussian, Inc.
  
 This software is provided under written license and may be
 used, copied, transmitted, or stored only in accord with that
 written license.
  
 The following legend is applicable only to US Government
 contracts under FAR:
  
                    RESTRICTED RIGHTS LEGEND
  
 Use, reproduction and disclosure by the US Government is
 subject to restrictions as set forth in subparagraphs (a)
 and (c) of the Commercial Computer Software - Restricted
 Rights clause in FAR 52.227-19.
  
 Gaussian, Inc.
 340 Quinnipiac St., Bldg. 40, Wallingford CT 06492
  
  
 ---------------------------------------------------------------
 Warning -- This program may not be used in any manner that
 competes with the business of Gaussian, Inc. or will provide
 assistance to any competitor of Gaussian, Inc.  The licensee
 of this program is prohibited from giving any competitor of
 Gaussian, Inc. access to this program.  By using this program,
 the user acknowledges that Gaussian, Inc. is engaged in the
 business of creating and licensing software in the field of
 computational chemistry and represents and warrants to the
 licensee that it is not a competitor of Gaussian, Inc. and that
 it will not use this program in any manner prohibited above.
 ---------------------------------------------------------------
  

 Cite this work as:
 Gaussian 09, Revision D.01,
 M. J. Frisch, G. W. Trucks, H. B. Schlegel, G. E. Scuseria, 
 M. A. Robb, J. R. Cheeseman, G. Scalmani, V. Barone, B. Mennucci, 
 G. A. Petersson, H. Nakatsuji, M. Caricato, X. Li, H. P. Hratchian, 
 A. F. Izmaylov, J. Bloino, G. Zheng, J. L. Sonnenberg, M. Hada, 
 M. Ehara, K. Toyota, R. Fukuda, J. Hasegawa, M. Ishida, T. Nakajima, 
 Y. Honda, O. Kitao, H. Nakai, T. Vreven, J. A. Montgomery, Jr., 
 J. E. Peralta, F. Ogliaro, M. Bearpark, J. J. Heyd, E. Brothers, 
 K. N. Kudin, V. N. Staroverov, T. Keith, R. Kobayashi, J. Normand, 
 K. Raghavachari, A. Rendell, J. C. Burant, S. S. Iyengar, J. Tomasi, 
 M. Cossi, N. Rega, J. M. Millam, M. Klene, J. E. Knox, J. B. Cross, 
 V. Bakken, C. Adamo, J. Jaramillo, R. Gomperts, R. E. Stratmann, 
 O. Yazyev, A. J. Austin, R. Cammi, C. Pomelli, J. W. Ochterski, 
 R. L. Martin, K. Morokuma, V. G. Zakrzewski, G. A. Voth, 
 P. Salvador, J. J. Dannenberg, S. Dapprich, A. D. Daniels, 
 O. Farkas, J. B. Foresman, J. V. Ortiz, J. Cioslowski, 
 and D. J. Fox, Gaussian, Inc., Wallingford CT, 2013.
 
 ******************************************
 Gaussian 09:  AM64L-G09RevD.01 24-Apr-2013
                17-Jan-2014 
 ******************************************
 %mem=1800mb
 ------------------------------------------------------------------
 # hf/gen pseudo=read pop=(mk, readradii) iop(6/33=2,6/41=5,6/42=2)
 ------------------------------------------------------------------
 1/38=1/1;
 2/12=2,17=6,18=5,40=1/2;
 3/5=7,11=9,16=1,17=8,25=1,30=1/1,2,3;
 4//1;
 5/5=2,38=5/2;
 6/7=2,8=2,9=2,10=2,15=8,20=101,28=1,33=2,41=5,42=2/1,2;
 99/5=1,9=1/99;
 -------
 na resp
 -------
 Symbolic Z-matrix:
 Charge =  0 Multiplicity = 1
 6                    -0.64704   3.39785   0.04056 
 6                    -1.96208   2.99672  -0.17978 
 6                    -2.26644   1.63268  -0.20378 
 6                    -1.26308   0.6898   -0.00729 
 6                     0.07044   1.07974   0.22074 
 6                     0.36185   2.4537    0.23686 
 8                     0.98314   0.09819   0.41884 
 6                     2.36172   0.42769   0.68063 
 6                     3.10456   0.8386   -0.62041 
 6                     3.91535  -0.41088  -1.06955 
 6                     3.386    -1.57215  -0.20351 
 6                     3.02678  -0.88193   1.12107 
 53                   -1.76571  -1.38989  -0.04809 
 1                    -0.39243   4.45402   0.05849 
 1                    -2.74868   3.72901  -0.33472 
 1                    -3.28604   1.30371  -0.37478 
 1                     1.3797    2.78883   0.39744 
 1                     2.39478   1.19604   1.46166 
 1                     2.3776    1.14646  -1.37743 
 1                     3.76026   1.69781  -0.4393 
 1                     4.98241  -0.25545  -0.86821 
 1                     3.81777  -0.60576  -2.14213 
 1                     4.11402  -2.3813   -0.08366 
 1                     2.47997  -2.00018  -0.64775 
 1                     3.93961  -0.64068   1.68202 
 1                     2.37024  -1.46483   1.77323 
 
                          Input orientation:                          
 ---------------------------------------------------------------------
 Center     Atomic      Atomic             Coordinates (Angstroms)
 Number     Number       Type             X           Y           Z
 ---------------------------------------------------------------------
      1          6           0       -0.647041    3.397847    0.040556
      2          6           0       -1.962082    2.996722   -0.179779
      3          6           0       -2.266441    1.632679   -0.203777
      4          6           0       -1.263080    0.689799   -0.007294
      5          6           0        0.070438    1.079740    0.220740
      6          6           0        0.361852    2.453701    0.236855
      7          8           0        0.983137    0.098190    0.418838
      8          6           0        2.361723    0.427691    0.680632
      9          6           0        3.104560    0.838602   -0.620407
     10          6           0        3.915351   -0.410877   -1.069554
     11          6           0        3.386004   -1.572148   -0.203509
     12          6           0        3.026779   -0.881934    1.121069
     13         53           0       -1.765711   -1.389890   -0.048090
     14          1           0       -0.392431    4.454024    0.058487
     15          1           0       -2.748684    3.729007   -0.334722
     16          1           0       -3.286043    1.303709   -0.374783
     17          1           0        1.379703    2.788828    0.397436
     18          1           0        2.394777    1.196043    1.461656
     19          1           0        2.377603    1.146457   -1.377425
     20          1           0        3.760259    1.697807   -0.439304
     21          1           0        4.982413   -0.255447   -0.868205
     22          1           0        3.817772   -0.605756   -2.142125
     23          1           0        4.114018   -2.381299   -0.083660
     24          1           0        2.479967   -2.000175   -0.647746
     25          1           0        3.939608   -0.640681    1.682019
     26          1           0        2.370244   -1.464825    1.773232
 ---------------------------------------------------------------------
                    Distance matrix (angstroms):
                    1          2          3          4          5
     1  C    0.000000
     2  C    1.392401   0.000000
     3  C    2.407898   1.397792   0.000000
     4  C    2.777646   2.416661   1.390813   0.000000
     5  C    2.433282   2.822476   2.438639   1.407950   0.000000
     6  C    1.395640   2.422628   2.788576   2.410677   1.404618
     7  O    3.699772   4.175422   3.647199   2.361584   1.354881
     8  C    4.276001   5.102501   4.863546   3.698802   2.426243
     9  C    4.589239   5.524717   5.445346   4.412973   3.157780
    10  C    6.046002   6.851835   6.568123   5.399633   4.320897
    11  C    6.405144   7.034000   6.497773   5.173866   4.266787
    12  C    5.742908   6.451737   6.008051   4.706000   3.660425
    13  I    4.917490   4.392979   3.067718   2.139955   3.089140
    14  H    1.086581   2.155065   3.397158   3.864162   3.409746
    15  H    2.160418   1.085814   2.155063   3.398678   3.908274
    16  H    3.394444   2.158053   1.084921   2.145766   3.416252
    17  H    2.146150   3.397635   3.872015   3.399122   2.160180
    18  H    4.014987   4.991891   4.969031   3.974168   2.637414
    19  H    4.028387   4.867310   4.814666   3.916678   2.807417
    20  H    4.748125   5.873646   6.031652   5.141658   3.799006
    21  H    6.772234   7.699126   7.520131   6.375017   5.205384
    22  H    6.381809   7.087691   6.766493   5.661362   4.739888
    23  H    7.488768   8.114884   7.539012   6.192791   5.331228
    24  H    6.276192   6.702221   5.993590   4.653659   4.005743
    25  H    6.327832   7.178227   6.873095   5.629558   4.479471
    26  H    5.979277   6.518336   5.916244   4.584073   3.764857
                    6          7          8          9         10
     6  C    0.000000
     7  O    2.442856   0.000000
     8  C    2.881170   1.441390   0.000000
     9  C    3.296345   2.475616   1.553498   0.000000
    10  C    4.747617   3.327512   2.485982   1.555735   0.000000
    11  C    5.054392   2.991841   2.414583   2.462667   1.542333
    12  C    4.360061   2.372814   1.533428   2.449292   2.410453
    13  I    4.402375   3.160470   4.568408   5.386396   5.854598
    14  H    2.145239   4.582066   4.917701   5.075541   6.595205
    15  H    3.410064   5.260910   6.168135   6.534258   7.879593
    16  H    3.873464   4.506552   5.811933   6.412212   7.435226
    17  H    1.083567   2.719790   2.572845   2.795446   4.338166
    18  H    2.686005   2.070140   1.096109   2.228574   3.361750
    19  H    2.894484   2.503989   2.180017   1.093763   2.210145
    20  H    3.546511   3.317769   2.196214   1.095889   2.206313
    21  H    5.469024   4.216129   3.119870   2.187391   1.096960
    22  H    5.192611   3.884485   3.340067   2.215957   1.094490
    23  H    6.128516   4.025268   3.397809   3.416850   2.212243
    24  H    5.010583   2.789487   2.770037   2.906806   2.182686
    25  H    4.946113   3.298830   2.152653   2.861250   2.761259
    26  H    4.663576   2.490274   2.185284   3.402132   3.402880
                   11         12         13         14         15
    11  C    0.000000
    12  C    1.536211   0.000000
    13  I    5.157280   4.959124   0.000000
    14  H    7.117581   6.425926   6.004048   0.000000
    15  H    8.108875   7.532335   5.220297   2.496436   0.000000
    16  H    7.267469   6.845899   3.110243   4.299442   2.484438
    17  H    4.837819   4.087909   5.249172   2.455244   4.296926
    18  H    3.379081   2.198503   5.126016   4.511303   6.008167
    19  H    3.128221   3.283028   5.036590   4.546969   5.834005
    20  H    3.299738   3.102873   6.342181   5.008928   6.819314
    21  H    2.173487   2.859056   6.891787   7.206027   8.713802
    22  H    2.208748   3.369032   6.014577   6.940452   8.073117
    23  H    1.095031   2.209424   5.962832   8.188402   9.192146
    24  H    1.096110   2.162908   4.331030   7.099727   7.762751
    25  H    2.174701   1.098237   6.008765   6.881747   8.239822
    26  H    2.225037   1.093671   4.519840   6.753184   7.590967
                   16         17         18         19         20
    16  H    0.000000
    17  H    4.956923   0.000000
    18  H    5.971249   2.167926   0.000000
    19  H    5.753860   2.615974   2.839566   0.000000
    20  H    7.057609   2.749092   2.393733   1.759487   0.000000
    21  H    8.428630   4.883541   3.772391   3.001612   2.343676
    22  H    7.565299   4.890476   4.273012   2.393555   2.865189
    23  H    8.271937   5.868402   4.259245   4.139327   4.109834
    24  H    6.651092   5.023697   3.830489   3.231749   3.918886
    25  H    7.760227   4.468199   2.410107   3.872198   3.162389
    26  H    6.653746   4.579034   2.679160   4.092125   4.102402
                   21         22         23         24         25
    21  H    0.000000
    22  H    1.761243   0.000000
    23  H    2.426699   2.734519   0.000000
    24  H    3.058580   2.442805   1.770190   0.000000
    25  H    2.781994   3.826244   2.485516   3.067015   0.000000
    26  H    3.906816   4.261849   2.707161   2.481889   1.774947
                   26
    26  H    0.000000
 Stoichiometry    C11H13IO
 Framework group  C1[X(C11H13IO)]
 Deg. of freedom    72
 Full point group                 C1      NOp   1
 Largest Abelian subgroup         C1      NOp   1
 Largest concise Abelian subgroup C1      NOp   1
                         Standard orientation:                         
 ---------------------------------------------------------------------
 Center     Atomic      Atomic             Coordinates (Angstroms)
 Number     Number       Type             X           Y           Z
 ---------------------------------------------------------------------
      1          6           0       -0.647041    3.397847    0.040556
      2          6           0       -1.962082    2.996722   -0.179779
      3          6           0       -2.266441    1.632679   -0.203777
      4          6           0       -1.263080    0.689799   -0.007294
      5          6           0        0.070438    1.079740    0.220740
      6          6           0        0.361852    2.453701    0.236855
      7          8           0        0.983137    0.098190    0.418838
      8          6           0        2.361723    0.427691    0.680632
      9          6           0        3.104560    0.838602   -0.620407
     10          6           0        3.915351   -0.410877   -1.069554
     11          6           0        3.386004   -1.572148   -0.203509
     12          6           0        3.026779   -0.881934    1.121069
     13         53           0       -1.765711   -1.389890   -0.048090
     14          1           0       -0.392431    4.454024    0.058487
     15          1           0       -2.748684    3.729007   -0.334722
     16          1           0       -3.286043    1.303709   -0.374783
     17          1           0        1.379703    2.788828    0.397436
     18          1           0        2.394777    1.196043    1.461656
     19          1           0        2.377603    1.146457   -1.377425
     20          1           0        3.760259    1.697807   -0.439304
     21          1           0        4.982413   -0.255447   -0.868205
     22          1           0        3.817772   -0.605756   -2.142125
     23          1           0        4.114018   -2.381299   -0.083660
     24          1           0        2.479967   -2.000175   -0.647746
     25          1           0        3.939608   -0.640681    1.682019
     26          1           0        2.370244   -1.464825    1.773232
 ---------------------------------------------------------------------
 Rotational constants (GHZ):      0.6502257      0.3756034      0.2526540
 General basis read from cards:  (5D, 7F)
 ======================================================================================================
                                       Pseudopotential Parameters
 ======================================================================================================
  Center     Atomic      Valence      Angular      Power
  Number     Number     Electrons     Momentum     of R      Exponent        Coefficient   SO-Coeffient
 ======================================================================================================
    1          6
                                   No pseudopotential on this center.
    2          6
                                   No pseudopotential on this center.
    3          6
                                   No pseudopotential on this center.
    4          6
                                   No pseudopotential on this center.
    5          6
                                   No pseudopotential on this center.
    6          6
                                   No pseudopotential on this center.
    7          8
                                   No pseudopotential on this center.
    8          6
                                   No pseudopotential on this center.
    9          6
                                   No pseudopotential on this center.
   10          6
                                   No pseudopotential on this center.
   11          6
                                   No pseudopotential on this center.
   12          6
                                   No pseudopotential on this center.
   13         53            7
                                      F and up 
                                                     0        1.0715702       -0.07476210    0.00000000
                                                     1       44.1936028      -30.08112240    0.00000000
                                                     2       12.9367609      -75.37227210    0.00000000
                                                     2        3.1956412      -22.05637580    0.00000000
                                                     2        0.8589806       -1.69795850    0.00000000
                                      S - F
                                                     0      127.9202670        2.93800360    0.00000000
                                                     1       78.6211465       41.24712670    0.00000000
                                                     2       36.5146237      287.86800950    0.00000000
                                                     2        9.9065681      114.37585060    0.00000000
                                                     2        1.9420086       37.65477140    0.00000000
                                      P - F
                                                     0       13.0035304        2.22226300    0.00000000
                                                     1       76.0331404       39.40908310    0.00000000
                                                     2       24.1961684      177.40750020    0.00000000
                                                     2        6.4053433       77.98894620    0.00000000
                                                     2        1.5851786       25.75476410    0.00000000
                                      D - F
                                                     0       40.4278108        7.05243600    0.00000000
                                                     1       28.9084375       33.30416350    0.00000000
                                                     2       15.6268936      186.94538750    0.00000000
                                                     2        4.1442856       71.96883610    0.00000000
                                                     2        0.9377235        9.36306570    0.00000000
   14          1
                                   No pseudopotential on this center.
   15          1
                                   No pseudopotential on this center.
   16          1
                                   No pseudopotential on this center.
   17          1
                                   No pseudopotential on this center.
   18          1
                                   No pseudopotential on this center.
   19          1
                                   No pseudopotential on this center.
   20          1
                                   No pseudopotential on this center.
   21          1
                                   No pseudopotential on this center.
   22          1
                                   No pseudopotential on this center.
   23          1
                                   No pseudopotential on this center.
   24          1
                                   No pseudopotential on this center.
   25          1
                                   No pseudopotential on this center.
   26          1
                                   No pseudopotential on this center.
 ======================================================================================================
 There are   214 symmetry adapted cartesian basis functions of A   symmetry.
 There are   202 symmetry adapted basis functions of A   symmetry.
   202 basis functions,   400 primitive gaussians,   214 cartesian basis functions
    47 alpha electrons       47 beta electrons
       nuclear repulsion energy       746.1248229393 Hartrees.
 NAtoms=   26 NActive=   26 NUniq=   26 SFac= 1.00D+00 NAtFMM=   60 NAOKFM=F Big=F
 Integral buffers will be    131072 words long.
 Raffenetti 1 integral format.
 Two-electron integral symmetry is turned on.
 One-electron integrals computed using PRISM.
   1 Symmetry operations used in ECPInt.
 ECPInt:  NShTT=    3081 NPrTT=   18402 LenC2=    2917 LenP2D=   11430.
 LDataN:  DoStor=T MaxTD1= 5 Len=  102
 NBasis=   202 RedAO= T EigKep=  5.13D-04  NBF=   202
 NBsUse=   202 1.00D-06 EigRej= -1.00D+00 NBFU=   202
 ExpMin= 1.05D-01 ExpMax= 5.48D+03 ExpMxC= 8.25D+02 IAcc=1 IRadAn=         1 AccDes= 0.00D+00
 Harris functional with IExCor=  205 and IRadAn=       1 diagonalized for initial guess.
 HarFok:  IExCor=  205 AccDes= 0.00D+00 IRadAn=         1 IDoV= 1 UseB2=F ITyADJ=14
 ICtDFT=  3500011 ScaDFX=  1.000000  1.000000  1.000000  1.000000
 Defaulting to unpruned grid for atomic number  53.
 FoFCou: FMM=F IPFlag=           0 FMFlag=      100000 FMFlg1=           0
         NFxFlg=           0 DoJE=T BraDBF=F KetDBF=T FulRan=T
         wScrn=  0.000000 ICntrl=     500 IOpCl=  0 I1Cent=   200000004 NGrid=           0
         NMat0=    1 NMatS0=      1 NMatT0=    0 NMatD0=    1 NMtDS0=    0 NMtDT0=    0
 Petite list used in FoFCou.
 Keep R1 ints in memory in canonical form, NReq=215324674.
 Requested convergence on RMS density matrix=1.00D-08 within 128 cycles.
 Requested convergence on MAX density matrix=1.00D-06.
 Requested convergence on             energy=1.00D-06.
 No special actions if energy rises.
 SCF Done:  E(RHF) =  -510.122405834     A.U. after   14 cycles
            NFock= 14  Conv=0.65D-08     -V/T= 2.0169

 **********************************************************************

            Population analysis using the SCF density.

 **********************************************************************

 Orbital symmetries:
 BldTbl:  Degeneracy threshold= 1.00D-02
       Occupied  (A) (A) (A) (A) (A) (A) (A) (A) (A) (A) (A) (A)
                 (A) (A) (A) (A) (A) (A) (A) (A) (A) (A) (A) (A)
                 (A) (A) (A) (A) (A) (A) (A) (A) (A) (A) (A) (A)
                 (A) (A) (A) (A) (A) (A) (A) (A) (A) (A) (A)
       Virtual   (A) (A) (A) (A) (A) (A) (A) (A) (A) (A) (A) (A)
                 (A) (A) (A) (A) (A) (A) (A) (A) (A) (A) (A) (A)
                 (A) (A) (A) (A) (A) (A) (A) (A) (A) (A) (A) (A)
                 (A) (A) (A) (A) (A) (A) (A) (A) (A) (A) (A) (A)
                 (A) (A) (A) (A) (A) (A) (A) (A) (A) (A) (A) (A)
                 (A) (A) (A) (A) (A) (A) (A) (A) (A) (A) (A) (A)
                 (A) (A) (A) (A) (A) (A) (A) (A) (A) (A) (A) (A)
                 (A) (A) (A) (A) (A) (A) (A) (A) (A) (A) (A) (A)
                 (A) (A) (A) (A) (A) (A) (A) (A) (A) (A) (A) (A)
                 (A) (A) (A) (A) (A) (A) (A) (A) (A) (A) (A) (A)
                 (A) (A) (A) (A) (A) (A) (A) (A) (A) (A) (A) (A)
                 (A) (A) (A) (A) (A) (A) (A) (A) (A) (A) (A) (A)
                 (A) (A) (A) (A) (A) (A) (A) (A) (A) (A) (A)
 The electronic state is 1-A.
 Alpha  occ. eigenvalues --  -20.58813 -11.31801 -11.29236 -11.28293 -11.25191
 Alpha  occ. eigenvalues --  -11.24803 -11.23937 -11.23507 -11.22529 -11.22139
 Alpha  occ. eigenvalues --  -11.22126 -11.21668  -1.41174  -1.15784  -1.11937
 Alpha  occ. eigenvalues --   -1.03112  -1.01749  -0.96995  -0.95973  -0.87906
 Alpha  occ. eigenvalues --   -0.84441  -0.80254  -0.78590  -0.77554  -0.71977
 Alpha  occ. eigenvalues --   -0.67230  -0.66049  -0.65757  -0.62638  -0.61466
 Alpha  occ. eigenvalues --   -0.60700  -0.57071  -0.56553  -0.53860  -0.52641
 Alpha  occ. eigenvalues --   -0.50809  -0.49752  -0.48325  -0.47826  -0.46935
 Alpha  occ. eigenvalues --   -0.46649  -0.44998  -0.44466  -0.38922  -0.35409
 Alpha  occ. eigenvalues --   -0.32967  -0.30646
 Alpha virt. eigenvalues --    0.12054   0.12783   0.14888   0.21679   0.23998
 Alpha virt. eigenvalues --    0.24815   0.27660   0.29118   0.29928   0.30812
 Alpha virt. eigenvalues --    0.31921   0.32322   0.32706   0.33239   0.33844
 Alpha virt. eigenvalues --    0.35187   0.35592   0.36230   0.38549   0.39883
 Alpha virt. eigenvalues --    0.41399   0.44069   0.45115   0.46448   0.49365
 Alpha virt. eigenvalues --    0.50320   0.51672   0.53101   0.56436   0.57461
 Alpha virt. eigenvalues --    0.60397   0.67741   0.71690   0.72929   0.74461
 Alpha virt. eigenvalues --    0.75219   0.76189   0.76703   0.77466   0.78797
 Alpha virt. eigenvalues --    0.81579   0.81984   0.82649   0.83481   0.84074
 Alpha virt. eigenvalues --    0.85526   0.86863   0.88074   0.89223   0.90610
 Alpha virt. eigenvalues --    0.91597   0.92953   0.93361   0.94959   0.95664
 Alpha virt. eigenvalues --    0.99454   1.00413   1.05206   1.06824   1.09176
 Alpha virt. eigenvalues --    1.10674   1.11549   1.12062   1.13076   1.14328
 Alpha virt. eigenvalues --    1.14827   1.16512   1.17285   1.19239   1.20218
 Alpha virt. eigenvalues --    1.20532   1.20649   1.22443   1.22820   1.24348
 Alpha virt. eigenvalues --    1.24408   1.25779   1.29307   1.32447   1.34033
 Alpha virt. eigenvalues --    1.37309   1.39152   1.44710   1.45708   1.49882
 Alpha virt. eigenvalues --    1.52513   1.55347   1.57784   1.60077   1.63776
 Alpha virt. eigenvalues --    1.66893   1.69341   1.70406   1.74534   1.76209
 Alpha virt. eigenvalues --    1.77899   1.79004   1.87494   1.92054   1.96396
 Alpha virt. eigenvalues --    2.00136   2.03494   2.05140   2.08599   2.08731
 Alpha virt. eigenvalues --    2.11796   2.12045   2.14605   2.19536   2.20970
 Alpha virt. eigenvalues --    2.23260   2.24565   2.26792   2.27564   2.30497
 Alpha virt. eigenvalues --    2.30721   2.33742   2.36342   2.38173   2.38965
 Alpha virt. eigenvalues --    2.41480   2.42801   2.44778   2.45251   2.49440
 Alpha virt. eigenvalues --    2.50468   2.55765   2.57953   2.59238   2.61021
 Alpha virt. eigenvalues --    2.62337   2.69872   2.72720   2.73424   2.79118
 Alpha virt. eigenvalues --    2.83232   2.86562   2.87695   2.89705   2.89829
 Alpha virt. eigenvalues --    2.96022   2.97225   2.99989   3.00877   3.03307
 Alpha virt. eigenvalues --    3.06304   3.08228   3.09806   3.15123   3.20762
 Alpha virt. eigenvalues --    3.29217   3.39389   3.58788   3.75154  10.35974
          Condensed to atoms (all electrons):
               1          2          3          4          5          6
     1  C    4.917074   0.527927  -0.013845  -0.066418   0.003236   0.479041
     2  C    0.527927   4.950126   0.507047  -0.014985  -0.044016  -0.030001
     3  C   -0.013845   0.507047   4.933155   0.466746  -0.005550  -0.057908
     4  C   -0.066418  -0.014985   0.466746   5.485666   0.447365  -0.016154
     5  C    0.003236  -0.044016  -0.005550   0.447365   4.412764   0.484505
     6  C    0.479041  -0.030001  -0.057908  -0.016154   0.484505   5.137391
     7  O    0.003581  -0.000026   0.002023  -0.051628   0.260454  -0.053279
     8  C    0.000180  -0.000022   0.000027   0.002779  -0.039233  -0.005153
     9  C   -0.000154   0.000003   0.000000  -0.000009  -0.001683  -0.003246
    10  C    0.000001   0.000000   0.000000   0.000010   0.000074   0.000138
    11  C    0.000000   0.000000   0.000000  -0.000025  -0.000127  -0.000022
    12  C    0.000005   0.000000   0.000002  -0.000048   0.001871   0.000261
    13  I    0.001192   0.000284  -0.056578   0.255485  -0.059480  -0.001685
    14  H    0.382665  -0.028988   0.003192  -0.000282   0.001940  -0.030364
    15  H   -0.031205   0.385698  -0.034056   0.004154  -0.000135   0.003097
    16  H    0.002724  -0.026890   0.383455  -0.027349   0.001676   0.000042
    17  H   -0.029988   0.002827  -0.000324   0.004316  -0.037839   0.386365
    18  H   -0.000146  -0.000004  -0.000007  -0.000171  -0.002215   0.001119
    19  H    0.000006  -0.000010  -0.000006  -0.000055   0.003445   0.000688
    20  H    0.000001   0.000000   0.000000   0.000000  -0.000039  -0.000426
    21  H    0.000000   0.000000   0.000000   0.000000   0.000001   0.000000
    22  H    0.000000   0.000000   0.000000   0.000000  -0.000007   0.000000
    23  H    0.000000   0.000000   0.000000   0.000000  -0.000001   0.000000
    24  H    0.000000   0.000000   0.000000  -0.000029   0.000112   0.000006
    25  H    0.000000   0.000000   0.000000   0.000001   0.000001  -0.000004
    26  H    0.000000   0.000000   0.000000  -0.000045   0.000036   0.000005
               7          8          9         10         11         12
     1  C    0.003581   0.000180  -0.000154   0.000001   0.000000   0.000005
     2  C   -0.000026  -0.000022   0.000003   0.000000   0.000000   0.000000
     3  C    0.002023   0.000027   0.000000   0.000000   0.000000   0.000002
     4  C   -0.051628   0.002779  -0.000009   0.000010  -0.000025  -0.000048
     5  C    0.260454  -0.039233  -0.001683   0.000074  -0.000127   0.001871
     6  C   -0.053279  -0.005153  -0.003246   0.000138  -0.000022   0.000261
     7  O    8.535016   0.159791  -0.042613   0.000813   0.004810  -0.055331
     8  C    0.159791   4.890426   0.337032  -0.050705  -0.078110   0.374837
     9  C   -0.042613   0.337032   5.218290   0.323734  -0.071551  -0.076506
    10  C    0.000813  -0.050705   0.323734   5.141097   0.338436  -0.081779
    11  C    0.004810  -0.078110  -0.071551   0.338436   5.145244   0.330141
    12  C   -0.055331   0.374837  -0.076506  -0.081779   0.330141   5.150433
    13  I   -0.001567   0.000595  -0.000022   0.000005  -0.000191  -0.000127
    14  H   -0.000030  -0.000004  -0.000003   0.000000   0.000000   0.000000
    15  H    0.000000   0.000000   0.000000   0.000000   0.000000   0.000000
    16  H   -0.000038   0.000001   0.000000   0.000000   0.000000   0.000000
    17  H   -0.004734   0.000737  -0.001471   0.000033   0.000006   0.000008
    18  H   -0.037121   0.406384  -0.046548   0.002942   0.005300  -0.035707
    19  H   -0.004552  -0.035980   0.396237  -0.030889   0.001954   0.003501
    20  H    0.002604  -0.035686   0.386334  -0.035323   0.004343   0.002256
    21  H   -0.000026   0.001519  -0.040602   0.398085  -0.041142   0.000558
    22  H   -0.000124   0.003000  -0.033889   0.401268  -0.033214   0.004862
    23  H    0.000005   0.004837   0.003834  -0.033218   0.398560  -0.034594
    24  H    0.002739  -0.005576   0.002242  -0.039982   0.400904  -0.038292
    25  H    0.002835  -0.046586   0.003133  -0.001593  -0.041359   0.395417
    26  H    0.000654  -0.031915   0.004332   0.004232  -0.029116   0.392340
              13         14         15         16         17         18
     1  C    0.001192   0.382665  -0.031205   0.002724  -0.029988  -0.000146
     2  C    0.000284  -0.028988   0.385698  -0.026890   0.002827  -0.000004
     3  C   -0.056578   0.003192  -0.034056   0.383455  -0.000324  -0.000007
     4  C    0.255485  -0.000282   0.004154  -0.027349   0.004316  -0.000171
     5  C   -0.059480   0.001940  -0.000135   0.001676  -0.037839  -0.002215
     6  C   -0.001685  -0.030364   0.003097   0.000042   0.386365   0.001119
     7  O   -0.001567  -0.000030   0.000000  -0.000038  -0.004734  -0.037121
     8  C    0.000595  -0.000004   0.000000   0.000001   0.000737   0.406384
     9  C   -0.000022  -0.000003   0.000000   0.000000  -0.001471  -0.046548
    10  C    0.000005   0.000000   0.000000   0.000000   0.000033   0.002942
    11  C   -0.000191   0.000000   0.000000   0.000000   0.000006   0.005300
    12  C   -0.000127   0.000000   0.000000   0.000000   0.000008  -0.035707
    13  I    6.660737   0.000018  -0.000162  -0.000028  -0.000198  -0.000013
    14  H    0.000018   0.462683  -0.001554  -0.000096  -0.001651   0.000001
    15  H   -0.000162  -0.001554   0.467154  -0.001659  -0.000091   0.000000
    16  H   -0.000028  -0.000096  -0.001659   0.442653   0.000006   0.000000
    17  H   -0.000198  -0.001651  -0.000091   0.000006   0.464319   0.000209
    18  H   -0.000013   0.000001   0.000000   0.000000   0.000209   0.529060
    19  H    0.000019   0.000001   0.000000   0.000000  -0.001088   0.001409
    20  H    0.000001  -0.000001   0.000000   0.000000   0.000748  -0.001040
    21  H    0.000000   0.000000   0.000000   0.000000  -0.000003  -0.000219
    22  H   -0.000001   0.000000   0.000000   0.000000   0.000001  -0.000063
    23  H    0.000000   0.000000   0.000000   0.000000   0.000000  -0.000043
    24  H    0.000455   0.000000   0.000000   0.000000  -0.000001  -0.000051
    25  H    0.000003   0.000000   0.000000   0.000000   0.000005  -0.002997
    26  H    0.000168   0.000000   0.000000   0.000000   0.000001  -0.000279
              19         20         21         22         23         24
     1  C    0.000006   0.000001   0.000000   0.000000   0.000000   0.000000
     2  C   -0.000010   0.000000   0.000000   0.000000   0.000000   0.000000
     3  C   -0.000006   0.000000   0.000000   0.000000   0.000000   0.000000
     4  C   -0.000055   0.000000   0.000000   0.000000   0.000000  -0.000029
     5  C    0.003445  -0.000039   0.000001  -0.000007  -0.000001   0.000112
     6  C    0.000688  -0.000426   0.000000   0.000000   0.000000   0.000006
     7  O   -0.004552   0.002604  -0.000026  -0.000124   0.000005   0.002739
     8  C   -0.035980  -0.035686   0.001519   0.003000   0.004837  -0.005576
     9  C    0.396237   0.386334  -0.040602  -0.033889   0.003834   0.002242
    10  C   -0.030889  -0.035323   0.398085   0.401268  -0.033218  -0.039982
    11  C    0.001954   0.004343  -0.041142  -0.033214   0.398560   0.400904
    12  C    0.003501   0.002256   0.000558   0.004862  -0.034594  -0.038292
    13  I    0.000019   0.000001   0.000000  -0.000001   0.000000   0.000455
    14  H    0.000001  -0.000001   0.000000   0.000000   0.000000   0.000000
    15  H    0.000000   0.000000   0.000000   0.000000   0.000000   0.000000
    16  H    0.000000   0.000000   0.000000   0.000000   0.000000   0.000000
    17  H   -0.001088   0.000748  -0.000003   0.000001   0.000000  -0.000001
    18  H    0.001409  -0.001040  -0.000219  -0.000063  -0.000043  -0.000051
    19  H    0.494046  -0.024941   0.002770  -0.004429  -0.000062   0.000166
    20  H   -0.024941   0.536256  -0.005948   0.001690  -0.000108  -0.000068
    21  H    0.002770  -0.005948   0.546143  -0.027413  -0.004190   0.003718
    22  H   -0.004429   0.001690  -0.027413   0.513665   0.000494  -0.004064
    23  H   -0.000062  -0.000108  -0.004190   0.000494   0.522929  -0.025723
    24  H    0.000166  -0.000068   0.003718  -0.004064  -0.025723   0.509971
    25  H   -0.000027  -0.000170   0.001579  -0.000076  -0.003739   0.003994
    26  H   -0.000125  -0.000099  -0.000104  -0.000073  -0.000066  -0.002787
              25         26
     1  C    0.000000   0.000000
     2  C    0.000000   0.000000
     3  C    0.000000   0.000000
     4  C    0.000001  -0.000045
     5  C    0.000001   0.000036
     6  C   -0.000004   0.000005
     7  O    0.002835   0.000654
     8  C   -0.046586  -0.031915
     9  C    0.003133   0.004332
    10  C   -0.001593   0.004232
    11  C   -0.041359  -0.029116
    12  C    0.395417   0.392340
    13  I    0.000003   0.000168
    14  H    0.000000   0.000000
    15  H    0.000000   0.000000
    16  H    0.000000   0.000000
    17  H    0.000005   0.000001
    18  H   -0.002997  -0.000279
    19  H   -0.000027  -0.000125
    20  H   -0.000170  -0.000099
    21  H    0.001579  -0.000104
    22  H   -0.000076  -0.000073
    23  H   -0.003739  -0.000066
    24  H    0.003994  -0.002787
    25  H    0.547427  -0.022252
    26  H   -0.022252   0.486109
 Mulliken charges:
               1
     1  C   -0.175879
     2  C   -0.228972
     3  C   -0.127372
     4  C   -0.489326
     5  C    0.572842
     6  C   -0.294418
     7  O   -0.724258
     8  C    0.146826
     9  C   -0.356872
    10  C   -0.337379
    11  C   -0.334842
    12  C   -0.334109
    13  I    0.201091
    14  H    0.212472
    15  H    0.208758
    16  H    0.225503
    17  H    0.217807
    18  H    0.180200
    19  H    0.197921
    20  H    0.169617
    21  H    0.165274
    22  H    0.178372
    23  H    0.171087
    24  H    0.192266
    25  H    0.164409
    26  H    0.198984
 Sum of Mulliken charges =   0.00000
 Mulliken charges with hydrogens summed into heavy atoms:
               1
     1  C    0.036593
     2  C   -0.020213
     3  C    0.098131
     4  C   -0.489326
     5  C    0.572842
     6  C   -0.076611
     7  O   -0.724258
     8  C    0.327026
     9  C    0.010665
    10  C    0.006267
    11  C    0.028510
    12  C    0.029284
    13  I    0.201091
 DipInt: DoE/N= T F RetVal/Mat= T F Init=T NMatP=  1 IDeriv=0 Min/MaxMlt=  0  4
 Entering OneElI...
 OneElI was handed   235809656 working-precision words.
 Multipole integrals L=0 to 4 MinM= 0 MaxM= 0.
 Requested accuracy = 0.1000D-12
 ShPair: Thresh= 1.00D-13 NBox=     0 BxSize= 0.00D+00 RnKept= 1.74D+01
         NSMCal=                 3081 NSMKep=                2765
 PrsmSu:  NPrtUS=   1 ThrOK=F IAlg=1 NPAlg=1 LenDen=           0.
 Prism:   IPart=     0 DynPar=F LinDyn=F Incr=          27.
 PRISM was handed   235573053 working-precision words and  2765 shell-pairs
 IPart=  0 NShTot=        2765 NBatch=          94 AvBLen=        29.4
 PrSmSu:  NxtVal=             28.
 Electronic moments (au):
        -94.00000000       -152.72867404       -119.93340943         -4.13823749
      -1965.14438066      -1084.61305930       -209.03999660        402.34482887
         15.89238982         11.13160252      -8414.31691569      -4332.93979939
        -16.70121957        599.67789128        137.33607577        712.67408994
       -825.20255620          1.02917006         18.78251094        -50.34022107
     -79817.56110257     -33848.67708651      -1658.79483719      13138.03480362
       5121.76896700      10139.42680261        108.20946764        154.27372771
        124.03774445     -14569.79408481      -6552.27230797      -1398.74178335
        630.59887993       -449.44333255        755.92791033
 Electronic spatial extent (au):  <R**2>=           3258.7974
 DipInt: DoE/N= F T RetVal/Mat= T F Init=T NMatP=  1 IDeriv=0 Min/MaxMlt=  0  4
 Nuclear    moments (au):
         94.00000000        153.48867299        120.81950476          4.18033007
       1903.24191628       1021.52631787        137.93930784       -403.13968384
        -13.94850738        -10.97962195       8258.64733579       4221.57955153
         14.45939410       -664.23620892       -168.04823023       -711.30941686
        779.82179392        -57.96185720        -19.26488322         56.09050250
      72090.87449868      29821.64252114        864.13554945     -12753.66888628
      -5005.09956597      -9681.90350208       -100.56029812       -136.49164253
       -109.69124451      12610.73469993       5058.13723257        449.67133855
       -637.44360757        493.68412885       -582.36000805
 Total      moments (au):
          0.00000000          0.75999895          0.88609532          0.04209259
        -61.90246437        -63.08674143        -71.10068877         -0.79485496
          1.94388244          0.15198057       -155.66957990       -111.36024786
         -2.24182547        -64.55831764        -30.71215446          1.36467308
        -45.38076228        -56.93268714         -0.48237228          5.75028143
      -7726.68660389      -4027.03456537       -794.65928774        384.36591734
        116.66940103        457.52330053          7.64916952         17.78208518
         14.34649993      -1959.05938487      -1494.13507540       -949.07044480
         -6.84472764         44.24079630        173.56790228
 Traceless Quadrup. (au):
          3.46083382          2.27655676         -5.73739058         -0.79485496
          1.94388244          0.15198057
 Charge=              0.0000 electrons
 Dipole moment (field-independent basis, Debye):
    X=              1.9317    Y=              2.2522    Z=              0.1070  Tot=              2.9691
 Quadrupole moment (field-independent basis, Debye-Ang):
   XX=            -83.2609   YY=            -84.8538   ZZ=            -95.6329
   XY=             -1.0691   XZ=              2.6146   YZ=              0.2044
 Traceless Quadrupole moment (field-independent basis, Debye-Ang):
   XX=              4.6549   YY=              3.0620   ZZ=             -7.7170
   XY=             -1.0691   XZ=              2.6146   YZ=              0.2044
 Octapole moment (field-independent basis, Debye-Ang**2):
  XXX=           -110.7996  YYY=            -79.2619  ZZZ=             -1.5956  XYY=            -45.9501
  XXY=            -21.8597  XXZ=              0.9713  XZZ=            -32.3003  YZZ=            -40.5225
  YYZ=             -0.3433  XYZ=              4.0928
 Hexadecapole moment (field-independent basis, Debye-Ang**3):
 XXXX=          -2910.2405 YYYY=          -1516.7742 ZZZZ=           -299.3068 XXXY=            144.7706
 XXXZ=             43.9433 YYYX=            172.3252 YYYZ=              2.8810 ZZZX=              6.6976
 ZZZY=              5.4036 XXYY=           -737.8757 XXZZ=           -562.7629 YYZZ=           -357.4654
 XXYZ=             -2.5781 YYXZ=             16.6632 ZZXY=             65.3740
 N-N= 7.461248229393D+02 E-N=-2.678087763833D+03  KE= 5.016564577897D+02
 Entering OneElI...
 OneElI was handed   235836801 working-precision words.
 Calculate electrostatic properties
    NBasis =   202  MinDer = 0  MaxDer = 0
    NGrid  =    26  NMatD  =   1
 Requested accuracy = 0.1000D-12
 ShPair: Thresh= 1.00D-13 NBox=     0 BxSize= 0.00D+00 RnKept= 1.74D+01
         NSMCal=                 3081 NSMKep=                2573
 PrsmSu:  NPrtUS=   1 ThrOK=F IAlg=1 NPAlg=1 LenDen=           0.
 Prism:   IPart=     0 DynPar=F LinDyn=F Incr=         512.
 PRISM was handed   235620061 working-precision words and  2573 shell-pairs
 IPart=  0 NShTot=       66898 NBatch=        2633 AvBLen=        25.4
 PrSmSu:  NxtVal=            513.
 --------------------------------------------------------
       Center         ----      EFG at Nuclei      ----
                      3XX-RR        3YY-RR        3ZZ-RR
 --------------------------------------------------------
     1   Atom        0.200334      0.152482     -0.352816
     2   Atom        0.125930      0.117924     -0.243853
     3   Atom        0.139378      0.199955     -0.339334
     4   Atom        0.242280     -0.251586      0.009306
     5   Atom        0.090496      0.161281     -0.251777
     6   Atom        0.108251      0.088162     -0.196413
     7   Atom       -1.499534      0.042638      1.456896
     8   Atom       -0.388062      0.213011      0.175051
     9   Atom        0.022304      0.009907     -0.032210
    10   Atom        0.015505     -0.048519      0.033014
    11   Atom        0.034062      0.005877     -0.039939
    12   Atom        0.020043     -0.043730      0.023687
    13   Atom        0.036477     -0.080385      0.043908
    14   Atom        0.119481     -0.283384      0.163903
    15   Atom       -0.095094     -0.064345      0.159439
    16   Atom       -0.254856      0.101434      0.153422
    17   Atom       -0.260035      0.096789      0.163246
    18   Atom        0.131257     -0.064993     -0.066263
    19   Atom       -0.049247      0.116652     -0.067405
    20   Atom       -0.011683     -0.122699      0.134382
    21   Atom       -0.268515      0.135314      0.133201
    22   Atom        0.146989      0.133112     -0.280101
    23   Atom       -0.049666     -0.092818      0.142483
    24   Atom       -0.149361      0.078390      0.070971
    25   Atom       -0.156375      0.121681      0.034694
    26   Atom       -0.009051      0.019074     -0.010023
 --------------------------------------------------------
                        XY            XZ            YZ
 --------------------------------------------------------
     1   Atom        0.000279      0.099163     -0.012374
     2   Atom        0.022869      0.066738     -0.004391
     3   Atom        0.028739      0.085552     -0.006942
     4   Atom       -0.167692      0.047172     -0.023130
     5   Atom        0.220059      0.059617      0.024384
     6   Atom       -0.035930      0.049934     -0.015948
     7   Atom        0.681339     -0.603876      0.154984
     8   Atom       -0.138398     -0.133687     -0.019410
     9   Atom        0.002426      0.046508     -0.006207
    10   Atom        0.026766      0.009219     -0.002008
    11   Atom        0.003712      0.033434      0.012195
    12   Atom        0.028728     -0.020193     -0.001395
    13   Atom       -0.034128     -0.000424     -0.003230
    14   Atom       -0.103180     -0.005228     -0.006789
    15   Atom        0.221441     -0.051521      0.044242
    16   Atom       -0.126807     -0.070699     -0.020780
    17   Atom       -0.130254     -0.069209     -0.019488
    18   Atom       -0.008660     -0.013377     -0.215564
    19   Atom        0.084578     -0.201010      0.085210
    20   Atom       -0.208066     -0.041773     -0.060745
    21   Atom       -0.060565     -0.080391     -0.012023
    22   Atom       -0.005808     -0.040662     -0.077556
    23   Atom        0.220345     -0.031819      0.037038
    24   Atom       -0.141996     -0.146902     -0.069391
    25   Atom       -0.078708     -0.185858     -0.048929
    26   Atom       -0.140862      0.160829      0.141978
 --------------------------------------------------------


 ---------------------------------------------------------------------------------
              Nuclear Quadrupole Coupling Constant in Principal Axis System
 ---------------------------------------------------------------------------------

       Atom             a.u.   MegaHertz   Gauss  10(-4) cm-1        Axes

              Baa    -0.0897   -14.964    -5.340    -4.991  0.2611  0.9650  0.0242
    13 I(127) Bbb     0.0439     7.321     2.612     2.442 -0.2291  0.0376  0.9727
              Bcc     0.0458     7.643     2.727     2.550  0.9377 -0.2595  0.2309
 

 ---------------------------------------------------------------------------------

 No NMR shielding tensors so no spin-rotation constants.
 Leave Link  601 at Fri Jan 17 11:55:05 2014, MaxMem=   235929600 cpu:         0.3
 FitSet:  NAtFit=    26 NAtPot=    26 NAtFrz=     0 MDM=    30 TotChg=   0.00000
 Merz-Kollman atomic radii used.
 Read replacement radii for each type of atom:
 Rad(53) =   2.700000000000D+00
 Atom Element Radius
    1     6    1.50
    2     6    1.50
    3     6    1.50
    4     6    1.50
    5     6    1.50
    6     6    1.50
    7     8    1.40
    8     6    1.50
    9     6    1.50
   10     6    1.50
   11     6    1.50
   12     6    1.50
   13    53    2.70
   14     1    1.20
   15     1    1.20
   16     1    1.20
   17     1    1.20
   18     1    1.20
   19     1    1.20
   20     1    1.20
   21     1    1.20
   22     1    1.20
   23     1    1.20
   24     1    1.20
   25     1    1.20
   26     1    1.20
 Generate VDW surfaces: Layer= 5 Dens= 2 Start= 1.400 Inc= 0.179

 **********************************************************************

            Electrostatic Properties Using The SCF Density

 **********************************************************************

       Atomic Center    1 is at  -0.647041  3.397847  0.040556
       Atomic Center    2 is at  -1.962082  2.996722 -0.179779
       Atomic Center    3 is at  -2.266441  1.632679 -0.203777
       Atomic Center    4 is at  -1.263080  0.689799 -0.007294
       Atomic Center    5 is at   0.070438  1.079740  0.220740
       Atomic Center    6 is at   0.361852  2.453701  0.236855
       Atomic Center    7 is at   0.983137  0.098190  0.418838
       Atomic Center    8 is at   2.361723  0.427691  0.680632
       Atomic Center    9 is at   3.104560  0.838602 -0.620407
       Atomic Center   10 is at   3.915351 -0.410877 -1.069554
       Atomic Center   11 is at   3.386004 -1.572148 -0.203509
       Atomic Center   12 is at   3.026779 -0.881934  1.121069
       Atomic Center   13 is at  -1.765711 -1.389890 -0.048090
       Atomic Center   14 is at  -0.392431  4.454024  0.058487
       Atomic Center   15 is at  -2.748684  3.729007 -0.334722
       Atomic Center   16 is at  -3.286043  1.303709 -0.374783
       Atomic Center   17 is at   1.379703  2.788828  0.397436
       Atomic Center   18 is at   2.394777  1.196043  1.461656
       Atomic Center   19 is at   2.377603  1.146457 -1.377425
       Atomic Center   20 is at   3.760259  1.697807 -0.439304
       Atomic Center   21 is at   4.982413 -0.255447 -0.868205
       Atomic Center   22 is at   3.817772 -0.605756 -2.142125
       Atomic Center   23 is at   4.114018 -2.381299 -0.083660
       Atomic Center   24 is at   2.479967 -2.000175 -0.647746
       Atomic Center   25 is at   3.939608 -0.640681  1.682019
       Atomic Center   26 is at   2.370244 -1.464825  1.773232
      ESP Fit Center   27 is at  -0.647041  3.397847  2.140556
      ESP Fit Center   28 is at  -0.287920  4.019863  2.013911
      ESP Fit Center   29 is at  -1.006162  4.019863  2.013911
      ESP Fit Center   30 is at  -1.365283  3.397847  2.013911
      ESP Fit Center   31 is at  -1.006162  2.775831  2.013911
      ESP Fit Center   32 is at   0.488529  4.127633  1.649249
      ESP Fit Center   33 is at  -1.531007  4.417999  1.649249
      ESP Fit Center   34 is at   1.014382  4.137560 -1.009444
      ESP Fit Center   35 is at   0.488529  4.127633 -1.568137
      ESP Fit Center   36 is at  -0.839145  4.733962 -1.568137
      ESP Fit Center   37 is at   0.071201  3.397847 -1.932798
      ESP Fit Center   38 is at  -0.287920  4.019863 -1.932798
      ESP Fit Center   39 is at  -1.006162  4.019863 -1.932798
      ESP Fit Center   40 is at  -0.287920  2.775831 -1.932798
      ESP Fit Center   41 is at  -0.647041  3.397847 -2.059444
      ESP Fit Center   42 is at  -1.962082  2.996722  1.920221
      ESP Fit Center   43 is at  -2.321203  3.618738  1.793576
      ESP Fit Center   44 is at  -2.680324  2.996722  1.793576
      ESP Fit Center   45 is at  -2.321203  2.374706  1.793576
      ESP Fit Center   46 is at  -1.602961  2.374706  1.793576
      ESP Fit Center   47 is at  -2.154186  4.332837  1.428914
      ESP Fit Center   48 is at  -2.846048  4.016874  1.428914
      ESP Fit Center   49 is at  -3.257257  3.377020  1.428914
      ESP Fit Center   50 is at  -3.257257  2.616424  1.428914
      ESP Fit Center   51 is at  -2.152183  4.805413  0.870221
      ESP Fit Center   52 is at  -1.401332  4.224593 -1.788472
      ESP Fit Center   53 is at  -2.154186  4.332837 -1.788472
      ESP Fit Center   54 is at  -3.257257  2.616424 -1.788472
      ESP Fit Center   55 is at  -0.826512  2.266936 -1.788472
      ESP Fit Center   56 is at  -1.243840  2.996722 -2.153133
      ESP Fit Center   57 is at  -1.602961  3.618738 -2.153133
      ESP Fit Center   58 is at  -2.321203  3.618738 -2.153133
      ESP Fit Center   59 is at  -2.680324  2.996722 -2.153133
      ESP Fit Center   60 is at  -1.602961  2.374706 -2.153133
      ESP Fit Center   61 is at  -1.962082  2.996722 -2.279779
      ESP Fit Center   62 is at  -2.625562  2.254695  1.769578
      ESP Fit Center   63 is at  -3.561616  2.012977  1.404916
      ESP Fit Center   64 is at  -4.024772  2.721392  0.160884
      ESP Fit Center   65 is at  -1.907320  2.254695 -2.177131
      ESP Fit Center   66 is at  -2.625562  2.254695 -2.177131
      ESP Fit Center   67 is at  -2.984683  1.632679 -2.177131
      ESP Fit Center   68 is at  -2.266441  1.632679 -2.303777
      ESP Fit Center   69 is at  -0.702330  1.917670 -1.615987
      ESP Fit Center   70 is at   0.070438  1.079740  2.320740
      ESP Fit Center   71 is at   0.788680  1.079740  2.194095
      ESP Fit Center   72 is at  -0.288683  1.701756  2.194095
      ESP Fit Center   73 is at   0.429559  1.701756 -1.752614
      ESP Fit Center   74 is at  -0.288683  1.701756 -1.752614
      ESP Fit Center   75 is at   0.361852  2.453701  2.336855
      ESP Fit Center   76 is at   1.080094  2.453701  2.210210
      ESP Fit Center   77 is at   0.720973  3.075717  2.210210
      ESP Fit Center   78 is at   0.002731  3.075717  2.210210
      ESP Fit Center   79 is at  -0.356390  2.453701  2.210210
      ESP Fit Center   80 is at   0.002731  1.831685  2.210210
      ESP Fit Center   81 is at   0.720973  1.831685  2.210210
      ESP Fit Center   82 is at   0.922602  3.681572  1.845548
      ESP Fit Center   83 is at  -0.933323  2.073403  1.845548
      ESP Fit Center   84 is at   0.923847  4.183343  1.286855
      ESP Fit Center   85 is at   1.497422  3.183487 -1.371838
      ESP Fit Center   86 is at   0.922602  3.681572 -1.371838
      ESP Fit Center   87 is at   1.080094  2.453701 -1.736499
      ESP Fit Center   88 is at   0.720973  3.075717 -1.736499
      ESP Fit Center   89 is at   0.720973  1.831685 -1.736499
      ESP Fit Center   90 is at   0.361852  2.453701 -1.863145
      ESP Fit Center   91 is at   0.983137  0.098190  2.378838
      ESP Fit Center   92 is at   0.608107  0.747761  2.229642
      ESP Fit Center   93 is at   4.454414  0.838602  0.988286
      ESP Fit Center   94 is at   4.923213  0.838602  0.429593
      ESP Fit Center   95 is at   2.538599  2.827750 -0.985068
      ESP Fit Center   96 is at   4.240129  1.568388 -2.229100
      ESP Fit Center   97 is at   3.665310  2.066472 -2.229100
      ESP Fit Center   98 is at   5.443693 -1.804144 -1.434215
      ESP Fit Center   99 is at   5.132268  0.940646 -2.119554
      ESP Fit Center  100 is at   2.136440 -0.788996 -2.119554
      ESP Fit Center  101 is at   5.132268 -1.762400 -2.119554
      ESP Fit Center  102 is at   2.476677 -3.147148  0.846491
      ESP Fit Center  103 is at   2.820043 -3.561296  0.161152
      ESP Fit Center  104 is at   3.946754 -2.800018 -1.812202
      ESP Fit Center  105 is at   4.521573 -2.301934 -1.812202
      ESP Fit Center  106 is at   3.026779 -0.881934  3.221069
      ESP Fit Center  107 is at   2.667658 -0.259918  3.094424
      ESP Fit Center  108 is at   3.588774 -2.611576  2.171069
      ESP Fit Center  109 is at   4.243696 -2.233457  2.171069
      ESP Fit Center  110 is at   3.217599 -2.941208  1.485730
      ESP Fit Center  111 is at  -1.765711 -1.389890  3.731910
      ESP Fit Center  112 is at  -1.028270 -1.389890  3.659278
      ESP Fit Center  113 is at  -1.396990 -0.751247  3.659278
      ESP Fit Center  114 is at  -2.134432 -0.751247  3.659278
      ESP Fit Center  115 is at  -2.503152 -1.389890  3.659278
      ESP Fit Center  116 is at  -2.134432 -2.028533  3.659278
      ESP Fit Center  117 is at  -1.396990 -2.028533  3.659278
      ESP Fit Center  118 is at  -0.319168 -1.389890  3.444175
      ESP Fit Center  119 is at  -0.512968 -0.666618  3.444175
      ESP Fit Center  120 is at  -1.042439 -0.137146  3.444175
      ESP Fit Center  121 is at  -1.765711  0.056654  3.444175
      ESP Fit Center  122 is at  -2.488983 -0.137146  3.444175
      ESP Fit Center  123 is at  -3.018454 -0.666618  3.444175
      ESP Fit Center  124 is at  -3.212254 -1.389890  3.444175
      ESP Fit Center  125 is at  -3.018454 -2.113161  3.444175
      ESP Fit Center  126 is at  -2.488983 -2.642633  3.444175
      ESP Fit Center  127 is at  -1.765711 -2.836433  3.444175
      ESP Fit Center  128 is at  -1.042439 -2.642633  3.444175
      ESP Fit Center  129 is at  -0.512968 -2.113161  3.444175
      ESP Fit Center  130 is at   0.334344 -1.389890  3.094865
      ESP Fit Center  131 is at   0.207696 -0.671628  3.094865
      ESP Fit Center  132 is at  -0.156975 -0.040000  3.094865
      ESP Fit Center  133 is at  -0.715683  0.428812  3.094865
      ESP Fit Center  134 is at  -1.401040  0.678261  3.094865
      ESP Fit Center  135 is at  -2.130382  0.678261  3.094865
      ESP Fit Center  136 is at  -2.815739  0.428812  3.094865
      ESP Fit Center  137 is at  -3.374447 -0.040000  3.094865
      ESP Fit Center  138 is at  -3.739118 -0.671628  3.094865
      ESP Fit Center  139 is at  -3.865767 -1.389890  3.094865
      ESP Fit Center  140 is at  -3.739118 -2.108151  3.094865
      ESP Fit Center  141 is at  -3.374447 -2.739779  3.094865
      ESP Fit Center  142 is at  -2.815739 -3.208591  3.094865
      ESP Fit Center  143 is at  -2.130382 -3.458041  3.094865
      ESP Fit Center  144 is at  -1.401040 -3.458041  3.094865
      ESP Fit Center  145 is at  -0.715683 -3.208591  3.094865
      ESP Fit Center  146 is at  -0.156975 -2.739779  3.094865
      ESP Fit Center  147 is at   0.207696 -2.108151  3.094865
      ESP Fit Center  148 is at   0.907153 -1.389890  2.624774
      ESP Fit Center  149 is at   0.808036 -0.668760  2.624774
      ESP Fit Center  150 is at   0.518036 -0.001113  2.624774
      ESP Fit Center  151 is at   0.058660  0.563535  2.624774
      ESP Fit Center  152 is at  -0.536020  0.983306  2.624774
      ESP Fit Center  153 is at  -1.221901  1.227069  2.624774
      ESP Fit Center  154 is at  -1.948114  1.276743  2.624774
      ESP Fit Center  155 is at  -2.660799  1.128645  2.624774
      ESP Fit Center  156 is at  -3.307099  0.793759  2.624774
      ESP Fit Center  157 is at  -3.839082  0.296922  2.624774
      ESP Fit Center  158 is at  -4.217292 -0.325018  2.624774
      ESP Fit Center  159 is at  -4.413679 -1.025935  2.624774
      ESP Fit Center  160 is at  -4.413679 -1.753845  2.624774
      ESP Fit Center  161 is at  -4.217292 -2.454762  2.624774
      ESP Fit Center  162 is at  -3.839082 -3.076702  2.624774
      ESP Fit Center  163 is at  -3.307099 -3.573539  2.624774
      ESP Fit Center  164 is at  -2.660799 -3.908425  2.624774
      ESP Fit Center  165 is at  -1.948114 -4.056522  2.624774
      ESP Fit Center  166 is at  -1.221901 -4.006848  2.624774
      ESP Fit Center  167 is at  -0.536020 -3.763086  2.624774
      ESP Fit Center  168 is at   0.058660 -3.343315  2.624774
      ESP Fit Center  169 is at   0.518036 -2.778667  2.624774
      ESP Fit Center  170 is at   0.808036 -2.111020  2.624774
      ESP Fit Center  171 is at  -1.219943  1.705317  2.051966
      ESP Fit Center  172 is at  -1.948458  1.747748  2.051966
      ESP Fit Center  173 is at  -2.667121  1.621028  2.051966
      ESP Fit Center  174 is at  -3.337189  1.331989  2.051966
      ESP Fit Center  175 is at  -3.922538  0.896213  2.051966
      ESP Fit Center  176 is at  -4.391612  0.337192  2.051966
      ESP Fit Center  177 is at  -4.719123 -0.314936  2.051966
      ESP Fit Center  178 is at  -4.887415 -1.025015  2.051966
      ESP Fit Center  179 is at  -4.887415 -1.754765  2.051966
      ESP Fit Center  180 is at  -4.719123 -2.464844  2.051966
      ESP Fit Center  181 is at  -4.391612 -3.116972  2.051966
      ESP Fit Center  182 is at  -3.922538 -3.675992  2.051966
      ESP Fit Center  183 is at  -3.337189 -4.111769  2.051966
      ESP Fit Center  184 is at  -2.667121 -4.400808  2.051966
      ESP Fit Center  185 is at  -1.948458 -4.527527  2.051966
      ESP Fit Center  186 is at  -1.219943 -4.485096  2.051966
      ESP Fit Center  187 is at  -0.520850 -4.275802  2.051966
      ESP Fit Center  188 is at   0.111132 -3.910927  2.051966
      ESP Fit Center  189 is at   0.641932 -3.410142  2.051966
      ESP Fit Center  190 is at   1.042936 -2.800445  2.051966
      ESP Fit Center  191 is at  -4.102492  1.205369  1.398453
      ESP Fit Center  192 is at  -4.591012  0.662812  1.398453
      ESP Fit Center  193 is at  -4.956054  0.030542  1.398453
      ESP Fit Center  194 is at  -5.181661 -0.663807  1.398453
      ESP Fit Center  195 is at  -5.257976 -1.389890  1.398453
      ESP Fit Center  196 is at  -5.181661 -2.115972  1.398453
      ESP Fit Center  197 is at  -4.956054 -2.810322  1.398453
      ESP Fit Center  198 is at  -4.591012 -3.442591  1.398453
      ESP Fit Center  199 is at  -4.102492 -3.985148  1.398453
      ESP Fit Center  200 is at  -3.511843 -4.414280  1.398453
      ESP Fit Center  201 is at  -2.844880 -4.711231  1.398453
      ESP Fit Center  202 is at  -2.130752 -4.863023  1.398453
      ESP Fit Center  203 is at  -1.400670 -4.863023  1.398453
      ESP Fit Center  204 is at  -0.686542 -4.711231  1.398453
      ESP Fit Center  205 is at  -0.019579 -4.414280  1.398453
      ESP Fit Center  206 is at   0.571070 -3.985148  1.398453
      ESP Fit Center  207 is at   1.059590 -3.442591  1.398453
      ESP Fit Center  208 is at   1.424631 -2.810322  1.398453
      ESP Fit Center  209 is at  -4.848275  0.669814  0.689352
      ESP Fit Center  210 is at  -5.190873  0.028859  0.689352
      ESP Fit Center  211 is at  -5.401843 -0.666618  0.689352
      ESP Fit Center  212 is at  -5.473079 -1.389890  0.689352
      ESP Fit Center  213 is at  -5.401843 -2.113161  0.689352
      ESP Fit Center  214 is at  -5.190873 -2.808638  0.689352
      ESP Fit Center  215 is at  -4.848275 -3.449593  0.689352
      ESP Fit Center  216 is at  -4.387216 -4.011395  0.689352
      ESP Fit Center  217 is at  -3.825415 -4.472454  0.689352
      ESP Fit Center  218 is at  -3.184459 -4.815051  0.689352
      ESP Fit Center  219 is at  -2.488983 -5.026022  0.689352
      ESP Fit Center  220 is at  -1.765711 -5.097258  0.689352
      ESP Fit Center  221 is at  -1.042439 -5.026022  0.689352
      ESP Fit Center  222 is at  -0.346963 -4.815051  0.689352
      ESP Fit Center  223 is at   0.293992 -4.472454  0.689352
      ESP Fit Center  224 is at   0.855794 -4.011395  0.689352
      ESP Fit Center  225 is at   1.316853 -3.449593  0.689352
      ESP Fit Center  226 is at   1.659451 -2.808638  0.689352
      ESP Fit Center  227 is at  -5.125509  0.342207 -0.048090
      ESP Fit Center  228 is at  -5.392594 -0.324941 -0.048090
      ESP Fit Center  229 is at  -5.528595 -1.030578 -0.048090
      ESP Fit Center  230 is at  -5.528595 -1.749202 -0.048090
      ESP Fit Center  231 is at  -5.392594 -2.454839 -0.048090
      ESP Fit Center  232 is at  -5.125509 -3.121986 -0.048090
      ESP Fit Center  233 is at  -4.736992 -3.726531 -0.048090
      ESP Fit Center  234 is at  -4.241085 -4.246623 -0.048090
      ESP Fit Center  235 is at  -3.655711 -4.663466 -0.048090
      ESP Fit Center  236 is at  -3.002028 -4.961993 -0.048090
      ESP Fit Center  237 is at  -2.303661 -5.131415 -0.048090
      ESP Fit Center  238 is at  -1.585851 -5.165608 -0.048090
      ESP Fit Center  239 is at  -0.874542 -5.063337 -0.048090
      ESP Fit Center  240 is at  -0.195442 -4.828299 -0.048090
      ESP Fit Center  241 is at   0.426904 -4.468987 -0.048090
      ESP Fit Center  242 is at   0.970004 -3.998388 -0.048090
      ESP Fit Center  243 is at   1.414227 -3.433512 -0.048090
      ESP Fit Center  244 is at  -4.848275  0.669814 -0.785531
      ESP Fit Center  245 is at  -5.190873  0.028859 -0.785531
      ESP Fit Center  246 is at  -5.401843 -0.666618 -0.785531
      ESP Fit Center  247 is at  -5.473079 -1.389890 -0.785531
      ESP Fit Center  248 is at  -5.401843 -2.113161 -0.785531
      ESP Fit Center  249 is at  -5.190873 -2.808638 -0.785531
      ESP Fit Center  250 is at  -4.848275 -3.449593 -0.785531
      ESP Fit Center  251 is at  -4.387216 -4.011395 -0.785531
      ESP Fit Center  252 is at  -3.825415 -4.472454 -0.785531
      ESP Fit Center  253 is at  -3.184459 -4.815051 -0.785531
      ESP Fit Center  254 is at  -2.488983 -5.026022 -0.785531
      ESP Fit Center  255 is at  -1.765711 -5.097258 -0.785531
      ESP Fit Center  256 is at  -1.042439 -5.026022 -0.785531
      ESP Fit Center  257 is at  -0.346963 -4.815051 -0.785531
      ESP Fit Center  258 is at   0.293992 -4.472454 -0.785531
      ESP Fit Center  259 is at   0.855794 -4.011395 -0.785531
      ESP Fit Center  260 is at   1.316853 -3.449593 -0.785531
      ESP Fit Center  261 is at   1.650239 -0.663807 -1.494633
      ESP Fit Center  262 is at  -4.591012  0.662812 -1.494633
      ESP Fit Center  263 is at  -4.956054  0.030542 -1.494633
      ESP Fit Center  264 is at  -5.181661 -0.663807 -1.494633
      ESP Fit Center  265 is at  -5.257976 -1.389890 -1.494633
      ESP Fit Center  266 is at  -5.181661 -2.115972 -1.494633
      ESP Fit Center  267 is at  -4.956054 -2.810322 -1.494633
      ESP Fit Center  268 is at  -4.591012 -3.442591 -1.494633
      ESP Fit Center  269 is at  -4.102492 -3.985148 -1.494633
      ESP Fit Center  270 is at  -3.511843 -4.414280 -1.494633
      ESP Fit Center  271 is at  -2.844880 -4.711231 -1.494633
      ESP Fit Center  272 is at  -2.130752 -4.863023 -1.494633
      ESP Fit Center  273 is at  -1.400670 -4.863023 -1.494633
      ESP Fit Center  274 is at  -0.686542 -4.711231 -1.494633
      ESP Fit Center  275 is at  -0.019579 -4.414280 -1.494633
      ESP Fit Center  276 is at   0.571070 -3.985148 -1.494633
      ESP Fit Center  277 is at   1.059590 -3.442591 -1.494633
      ESP Fit Center  278 is at   1.377244 -1.389890 -2.148145
      ESP Fit Center  279 is at   1.292525 -0.665074 -2.148145
      ESP Fit Center  280 is at   1.042936  0.020666 -2.148145
      ESP Fit Center  281 is at   0.641932  0.630363 -2.148145
      ESP Fit Center  282 is at   0.111132  1.131147 -2.148145
      ESP Fit Center  283 is at  -0.520850  1.496022 -2.148145
      ESP Fit Center  284 is at  -1.219943  1.705317 -2.148145
      ESP Fit Center  285 is at  -3.337189  1.331989 -2.148145
      ESP Fit Center  286 is at  -3.922538  0.896213 -2.148145
      ESP Fit Center  287 is at  -4.391612  0.337192 -2.148145
      ESP Fit Center  288 is at  -4.719123 -0.314936 -2.148145
      ESP Fit Center  289 is at  -4.887415 -1.025015 -2.148145
      ESP Fit Center  290 is at  -4.887415 -1.754765 -2.148145
      ESP Fit Center  291 is at  -4.719123 -2.464844 -2.148145
      ESP Fit Center  292 is at  -4.391612 -3.116972 -2.148145
      ESP Fit Center  293 is at  -3.922538 -3.675992 -2.148145
      ESP Fit Center  294 is at  -3.337189 -4.111769 -2.148145
      ESP Fit Center  295 is at  -2.667121 -4.400808 -2.148145
      ESP Fit Center  296 is at  -1.948458 -4.527527 -2.148145
      ESP Fit Center  297 is at  -1.219943 -4.485096 -2.148145
      ESP Fit Center  298 is at  -0.520850 -4.275802 -2.148145
      ESP Fit Center  299 is at   0.111132 -3.910927 -2.148145
      ESP Fit Center  300 is at   0.641932 -3.410142 -2.148145
      ESP Fit Center  301 is at   1.042936 -2.800445 -2.148145
      ESP Fit Center  302 is at   1.292525 -2.114705 -2.148145
      ESP Fit Center  303 is at   0.907153 -1.389890 -2.720954
      ESP Fit Center  304 is at   0.808036 -0.668760 -2.720954
      ESP Fit Center  305 is at   0.518036 -0.001113 -2.720954
      ESP Fit Center  306 is at   0.058660  0.563535 -2.720954
      ESP Fit Center  307 is at  -0.536020  0.983306 -2.720954
      ESP Fit Center  308 is at  -1.221901  1.227069 -2.720954
      ESP Fit Center  309 is at  -1.948114  1.276743 -2.720954
      ESP Fit Center  310 is at  -2.660799  1.128645 -2.720954
      ESP Fit Center  311 is at  -3.307099  0.793759 -2.720954
      ESP Fit Center  312 is at  -3.839082  0.296922 -2.720954
      ESP Fit Center  313 is at  -4.217292 -0.325018 -2.720954
      ESP Fit Center  314 is at  -4.413679 -1.025935 -2.720954
      ESP Fit Center  315 is at  -4.413679 -1.753845 -2.720954
      ESP Fit Center  316 is at  -4.217292 -2.454762 -2.720954
      ESP Fit Center  317 is at  -3.839082 -3.076702 -2.720954
      ESP Fit Center  318 is at  -3.307099 -3.573539 -2.720954
      ESP Fit Center  319 is at  -2.660799 -3.908425 -2.720954
      ESP Fit Center  320 is at  -1.948114 -4.056522 -2.720954
      ESP Fit Center  321 is at  -1.221901 -4.006848 -2.720954
      ESP Fit Center  322 is at  -0.536020 -3.763086 -2.720954
      ESP Fit Center  323 is at   0.058660 -3.343315 -2.720954
      ESP Fit Center  324 is at   0.518036 -2.778667 -2.720954
      ESP Fit Center  325 is at   0.808036 -2.111020 -2.720954
      ESP Fit Center  326 is at   0.334344 -1.389890 -3.191045
      ESP Fit Center  327 is at   0.207696 -0.671628 -3.191045
      ESP Fit Center  328 is at  -0.156975 -0.040000 -3.191045
      ESP Fit Center  329 is at  -0.715683  0.428812 -3.191045
      ESP Fit Center  330 is at  -1.401040  0.678261 -3.191045
      ESP Fit Center  331 is at  -2.130382  0.678261 -3.191045
      ESP Fit Center  332 is at  -2.815739  0.428812 -3.191045
      ESP Fit Center  333 is at  -3.374447 -0.040000 -3.191045
      ESP Fit Center  334 is at  -3.739118 -0.671628 -3.191045
      ESP Fit Center  335 is at  -3.865767 -1.389890 -3.191045
      ESP Fit Center  336 is at  -3.739118 -2.108151 -3.191045
      ESP Fit Center  337 is at  -3.374447 -2.739779 -3.191045
      ESP Fit Center  338 is at  -2.815739 -3.208591 -3.191045
      ESP Fit Center  339 is at  -2.130382 -3.458041 -3.191045
      ESP Fit Center  340 is at  -1.401040 -3.458041 -3.191045
      ESP Fit Center  341 is at  -0.715683 -3.208591 -3.191045
      ESP Fit Center  342 is at  -0.156975 -2.739779 -3.191045
      ESP Fit Center  343 is at   0.207696 -2.108151 -3.191045
      ESP Fit Center  344 is at  -0.319168 -1.389890 -3.540355
      ESP Fit Center  345 is at  -0.512968 -0.666618 -3.540355
      ESP Fit Center  346 is at  -1.042439 -0.137146 -3.540355
      ESP Fit Center  347 is at  -1.765711  0.056654 -3.540355
      ESP Fit Center  348 is at  -2.488983 -0.137146 -3.540355
      ESP Fit Center  349 is at  -3.018454 -0.666618 -3.540355
      ESP Fit Center  350 is at  -3.212254 -1.389890 -3.540355
      ESP Fit Center  351 is at  -3.018454 -2.113161 -3.540355
      ESP Fit Center  352 is at  -2.488983 -2.642633 -3.540355
      ESP Fit Center  353 is at  -1.765711 -2.836433 -3.540355
      ESP Fit Center  354 is at  -1.042439 -2.642633 -3.540355
      ESP Fit Center  355 is at  -0.512968 -2.113161 -3.540355
      ESP Fit Center  356 is at  -1.028270 -1.389890 -3.755458
      ESP Fit Center  357 is at  -1.396990 -0.751247 -3.755458
      ESP Fit Center  358 is at  -2.134432 -0.751247 -3.755458
      ESP Fit Center  359 is at  -2.503152 -1.389890 -3.755458
      ESP Fit Center  360 is at  -2.134432 -2.028533 -3.755458
      ESP Fit Center  361 is at  -1.396990 -2.028533 -3.755458
      ESP Fit Center  362 is at  -1.765711 -1.389890 -3.828090
      ESP Fit Center  363 is at   0.336494  4.454024  1.572115
      ESP Fit Center  364 is at  -0.027968  5.085291  1.572115
      ESP Fit Center  365 is at  -0.756893  5.085291  1.572115
      ESP Fit Center  366 is at   0.921046  4.454024  1.105950
      ESP Fit Center  367 is at   0.670194  5.226067  1.105950
      ESP Fit Center  368 is at   0.013456  5.703215  1.105950
      ESP Fit Center  369 is at  -0.798317  5.703215  1.105950
      ESP Fit Center  370 is at  -1.455056  5.226067  1.105950
      ESP Fit Center  371 is at   1.057839  5.215184  0.432322
      ESP Fit Center  372 is at   0.537990  5.801972  0.432322
      ESP Fit Center  373 is at  -0.195006  6.079961  0.432322
      ESP Fit Center  374 is at  -0.973231  5.985468  0.432322
      ESP Fit Center  375 is at  -1.618401  5.540139  0.432322
      ESP Fit Center  376 is at   1.245448  4.454024 -0.315348
      ESP Fit Center  377 is at   1.057839  5.215184 -0.315348
      ESP Fit Center  378 is at   0.537990  5.801972 -0.315348
      ESP Fit Center  379 is at  -0.195006  6.079961 -0.315348
      ESP Fit Center  380 is at  -0.973231  5.985468 -0.315348
      ESP Fit Center  381 is at  -1.618401  5.540139 -0.315348
      ESP Fit Center  382 is at   0.921046  4.454024 -0.988976
      ESP Fit Center  383 is at   0.670194  5.226067 -0.988976
      ESP Fit Center  384 is at   0.013456  5.703215 -0.988976
      ESP Fit Center  385 is at  -0.798317  5.703215 -0.988976
      ESP Fit Center  386 is at  -1.455056  5.226067 -0.988976
      ESP Fit Center  387 is at  -0.027968  5.085291 -1.455141
      ESP Fit Center  388 is at  -0.756893  5.085291 -1.455141
      ESP Fit Center  389 is at  -3.113146  4.360275  1.178906
      ESP Fit Center  390 is at  -3.477609  3.729007  1.178906
      ESP Fit Center  391 is at  -2.342797  4.978198  0.712741
      ESP Fit Center  392 is at  -3.154571  4.978198  0.712741
      ESP Fit Center  393 is at  -3.811309  4.501050  0.712741
      ESP Fit Center  394 is at  -4.062161  3.729007  0.712741
      ESP Fit Center  395 is at  -2.551259  5.354944  0.039113
      ESP Fit Center  396 is at  -3.329484  5.260451  0.039113
      ESP Fit Center  397 is at  -3.974654  4.815122  0.039113
      ESP Fit Center  398 is at  -4.338969  4.120977  0.039113
      ESP Fit Center  399 is at  -4.338969  3.337037  0.039113
      ESP Fit Center  400 is at  -1.818263  5.076955 -0.708557
      ESP Fit Center  401 is at  -2.551259  5.354944 -0.708557
      ESP Fit Center  402 is at  -3.329484  5.260451 -0.708557
      ESP Fit Center  403 is at  -3.974654  4.815122 -0.708557
      ESP Fit Center  404 is at  -4.338969  4.120977 -0.708557
      ESP Fit Center  405 is at  -4.338969  3.337037 -0.708557
      ESP Fit Center  406 is at  -2.342797  4.978198 -1.382185
      ESP Fit Center  407 is at  -3.154571  4.978198 -1.382185
      ESP Fit Center  408 is at  -3.811309  4.501050 -1.382185
      ESP Fit Center  409 is at  -4.062161  3.729007 -1.382185
      ESP Fit Center  410 is at  -3.811309  2.956965 -1.382185
      ESP Fit Center  411 is at  -2.384221  4.360275 -1.848350
      ESP Fit Center  412 is at  -3.113146  4.360275 -1.848350
      ESP Fit Center  413 is at  -3.477609  3.729007 -1.848350
      ESP Fit Center  414 is at  -2.748684  3.729007 -2.014722
      ESP Fit Center  415 is at  -4.348668  2.075752  0.672680
      ESP Fit Center  416 is at  -4.599520  1.303709  0.672680
      ESP Fit Center  417 is at  -4.512013  2.389824 -0.000948
      ESP Fit Center  418 is at  -4.876328  1.695679 -0.000948
      ESP Fit Center  419 is at  -4.876328  0.911739 -0.000948
      ESP Fit Center  420 is at  -4.512013  2.389824 -0.748618
      ESP Fit Center  421 is at  -4.876328  1.695679 -0.748618
      ESP Fit Center  422 is at  -4.876328  0.911739 -0.748618
      ESP Fit Center  423 is at  -4.348668  2.075752 -1.422246
      ESP Fit Center  424 is at  -4.599520  1.303709 -1.422246
      ESP Fit Center  425 is at  -3.650505  1.934977 -1.888411
      ESP Fit Center  426 is at  -4.014968  1.303709 -1.888411
      ESP Fit Center  427 is at   1.379703  2.788828  2.077436
      ESP Fit Center  428 is at   1.744165  3.420095  1.911064
      ESP Fit Center  429 is at   2.442328  3.560870  1.444899
      ESP Fit Center  430 is at   1.785590  4.038019  1.444899
      ESP Fit Center  431 is at   3.017582  2.788828  0.771271
      ESP Fit Center  432 is at   2.829973  3.549988  0.771271
      ESP Fit Center  433 is at   2.310124  4.136776  0.771271
      ESP Fit Center  434 is at   1.577128  4.414765  0.771271
      ESP Fit Center  435 is at   2.829973  3.549988  0.023601
      ESP Fit Center  436 is at   2.310124  4.136776  0.023601
      ESP Fit Center  437 is at   1.577128  4.414765  0.023601
      ESP Fit Center  438 is at   2.442328  3.560870 -0.650027
      ESP Fit Center  439 is at   1.785590  4.038019 -0.650027
      ESP Fit Center  440 is at   2.108628  2.788828 -1.116192
      ESP Fit Center  441 is at   1.744165  3.420095 -1.116192
      ESP Fit Center  442 is at   2.394777  1.196043  3.141656
      ESP Fit Center  443 is at   3.123702  1.196043  2.975284
      ESP Fit Center  444 is at   2.759239  1.827310  2.975284
      ESP Fit Center  445 is at   2.030315  1.827310  2.975284
      ESP Fit Center  446 is at   1.665852  1.196043  2.975284
      ESP Fit Center  447 is at   2.030315  0.564776  2.975284
      ESP Fit Center  448 is at   2.759239  0.564776  2.975284
      ESP Fit Center  449 is at   3.708254  1.196043  2.509119
      ESP Fit Center  450 is at   3.457402  1.968085  2.509119
      ESP Fit Center  451 is at   2.800664  2.445234  2.509119
      ESP Fit Center  452 is at   1.988890  2.445234  2.509119
      ESP Fit Center  453 is at   1.332152  1.968085  2.509119
      ESP Fit Center  454 is at   1.081300  1.196043  2.509119
      ESP Fit Center  455 is at   4.032656  1.196043  1.835491
      ESP Fit Center  456 is at   3.845047  1.957203  1.835491
      ESP Fit Center  457 is at   3.325198  2.543991  1.835491
      ESP Fit Center  458 is at   2.592202  2.821980  1.835491
      ESP Fit Center  459 is at   3.325198  2.543991  1.087821
      ESP Fit Center  460 is at   2.575028  2.772394 -1.751260
      ESP Fit Center  461 is at   1.796803  2.677900 -1.751260
      ESP Fit Center  462 is at   1.151633  2.232572 -1.751260
      ESP Fit Center  463 is at   0.787318  1.538427 -1.751260
      ESP Fit Center  464 is at   1.796803 -0.384986 -1.751260
      ESP Fit Center  465 is at   3.440228  1.918499 -2.424888
      ESP Fit Center  466 is at   2.783490  2.395648 -2.424888
      ESP Fit Center  467 is at   1.971716  2.395648 -2.424888
      ESP Fit Center  468 is at   1.314978  1.918499 -2.424888
      ESP Fit Center  469 is at   1.064126  1.146457 -2.424888
      ESP Fit Center  470 is at   1.314978  0.374415 -2.424888
      ESP Fit Center  471 is at   1.971716 -0.102734 -2.424888
      ESP Fit Center  472 is at   3.106528  1.146457 -2.891053
      ESP Fit Center  473 is at   2.742065  1.777724 -2.891053
      ESP Fit Center  474 is at   2.013141  1.777724 -2.891053
      ESP Fit Center  475 is at   1.648678  1.146457 -2.891053
      ESP Fit Center  476 is at   2.013141  0.515190 -2.891053
      ESP Fit Center  477 is at   2.742065  0.515190 -2.891053
      ESP Fit Center  478 is at   2.377603  1.146457 -3.057425
      ESP Fit Center  479 is at   4.489184  1.697807  1.074324
      ESP Fit Center  480 is at   4.124721  2.329074  1.074324
      ESP Fit Center  481 is at   5.073736  1.697807  0.608159
      ESP Fit Center  482 is at   4.822884  2.469849  0.608159
      ESP Fit Center  483 is at   4.166146  2.946998  0.608159
      ESP Fit Center  484 is at   3.354372  2.946998  0.608159
      ESP Fit Center  485 is at   4.822884  0.925765  0.608159
      ESP Fit Center  486 is at   5.398138  1.697807 -0.065469
      ESP Fit Center  487 is at   5.210529  2.458967 -0.065469
      ESP Fit Center  488 is at   4.690680  3.045755 -0.065469
      ESP Fit Center  489 is at   3.957684  3.323744 -0.065469
      ESP Fit Center  490 is at   3.179459  3.229250 -0.065469
      ESP Fit Center  491 is at   5.398138  1.697807 -0.813139
      ESP Fit Center  492 is at   5.210529  2.458967 -0.813139
      ESP Fit Center  493 is at   4.690680  3.045755 -0.813139
      ESP Fit Center  494 is at   3.957684  3.323744 -0.813139
      ESP Fit Center  495 is at   3.179459  3.229250 -0.813139
      ESP Fit Center  496 is at   5.073736  1.697807 -1.486767
      ESP Fit Center  497 is at   4.822884  2.469849 -1.486767
      ESP Fit Center  498 is at   4.166146  2.946998 -1.486767
      ESP Fit Center  499 is at   3.354372  2.946998 -1.486767
      ESP Fit Center  500 is at   4.489184  1.697807 -1.952932
      ESP Fit Center  501 is at   4.124721  2.329074 -1.952932
      ESP Fit Center  502 is at   5.711338 -0.255447  0.645423
[...]
 3305 Fit      -0.005076
 3306 Fit      -0.004954
 3307 Fit      -0.004823
 3308 Fit      -0.004711
 3309 Fit      -0.004635
 3310 Fit      -0.004606
 3311 Fit      -0.004621
 3312 Fit      -0.004663
 3313 Fit      -0.004705
 3314 Fit      -0.004701
 3315 Fit      -0.004594
 3316 Fit      -0.004306
 3317 Fit      -0.003735
 3318 Fit      -0.002751
 3319 Fit      -0.003081
 3320 Fit      -0.002197
 3321 Fit      -0.002011
 3322 Fit      -0.002277
 3323 Fit      -0.002782
 3324 Fit      -0.003363
 3325 Fit      -0.003908
 3326 Fit      -0.004352
 3327 Fit      -0.004668
 3328 Fit      -0.004851
 3329 Fit      -0.004913
 3330 Fit      -0.004879
 3331 Fit      -0.004777
 3332 Fit      -0.004641
 3333 Fit      -0.004500
 3334 Fit      -0.004380
 3335 Fit      -0.004302
 3336 Fit      -0.004274
 3337 Fit      -0.004297
 3338 Fit      -0.004359
 3339 Fit      -0.004437
 3340 Fit      -0.004495
 3341 Fit      -0.004487
 3342 Fit      -0.004354
 3343 Fit      -0.004018
 3344 Fit      -0.003389
 3345 Fit      -0.002366
 3346 Fit      -0.000110
 3347 Fit       0.000107
 3348 Fit      -0.000284
 3349 Fit      -0.001003
 3350 Fit      -0.001848
 3351 Fit      -0.002672
 3352 Fit      -0.003387
 3353 Fit      -0.003947
 3354 Fit      -0.004341
 3355 Fit      -0.004575
 3356 Fit      -0.004670
 3357 Fit      -0.004654
 3358 Fit      -0.004559
 3359 Fit      -0.004420
 3360 Fit      -0.004269
 3361 Fit      -0.004133
 3362 Fit      -0.004036
 3363 Fit      -0.003990
 3364 Fit      -0.004002
 3365 Fit      -0.004064
 3366 Fit      -0.004161
 3367 Fit      -0.004265
 3368 Fit      -0.004340
 3369 Fit      -0.004339
 3370 Fit      -0.004205
 3371 Fit      -0.003873
 3372 Fit      -0.003274
 3373 Fit      -0.002365
 3374 Fit       0.003394
 3375 Fit       0.002465
 3376 Fit       0.001348
 3377 Fit       0.000141
 3378 Fit      -0.001033
 3379 Fit      -0.002077
 3380 Fit      -0.002936
 3381 Fit      -0.003593
 3382 Fit      -0.004052
 3383 Fit      -0.004333
 3384 Fit      -0.004461
 3385 Fit      -0.004468
 3386 Fit      -0.004387
 3387 Fit      -0.004254
 3388 Fit      -0.004100
 3389 Fit      -0.003955
 3390 Fit      -0.003843
 3391 Fit      -0.003779
 3392 Fit      -0.003773
 3393 Fit      -0.003824
 3394 Fit      -0.003920
 3395 Fit      -0.004043
 3396 Fit      -0.004164
 3397 Fit      -0.004246
 3398 Fit      -0.004244
 3399 Fit      -0.004110
 3400 Fit      -0.003794
 3401 Fit      -0.003254
 3402 Fit       0.004720
 3403 Fit       0.002902
 3404 Fit       0.001230
 3405 Fit      -0.000268
 3406 Fit      -0.001534
 3407 Fit      -0.002545
 3408 Fit      -0.003303
 3409 Fit      -0.003829
 3410 Fit      -0.004151
 3411 Fit      -0.004304
 3412 Fit      -0.004324
 3413 Fit      -0.004249
 3414 Fit      -0.004116
 3415 Fit      -0.003961
 3416 Fit      -0.003815
 3417 Fit      -0.003702
 3418 Fit      -0.003640
 3419 Fit      -0.003639
 3420 Fit      -0.003697
 3421 Fit      -0.003805
 3422 Fit      -0.003943
 3423 Fit      -0.004083
 3424 Fit      -0.004186
 3425 Fit      -0.004211
 3426 Fit      -0.004113
 3427 Fit      -0.003853
 3428 Fit      -0.003416
 3429 Fit       0.006046
 3430 Fit       0.003820
 3431 Fit       0.001878
 3432 Fit       0.000195
 3433 Fit      -0.001199
 3434 Fit      -0.002296
 3435 Fit      -0.003113
 3436 Fit      -0.003679
 3437 Fit      -0.004030
 3438 Fit      -0.004202
 3439 Fit      -0.004237
 3440 Fit      -0.004172
 3441 Fit      -0.004048
 3442 Fit      -0.003899
 3443 Fit      -0.003758
 3444 Fit      -0.003649
 3445 Fit      -0.003592
 3446 Fit      -0.003595
 3447 Fit      -0.003658
 3448 Fit      -0.003772
 3449 Fit      -0.003916
 3450 Fit      -0.004063
 3451 Fit      -0.004176
 3452 Fit      -0.004215
 3453 Fit      -0.004139
 3454 Fit      -0.003920
 3455 Fit      -0.003587
 3456 Fit       0.005909
 3457 Fit       0.003817
 3458 Fit       0.001927
 3459 Fit       0.000265
 3460 Fit      -0.001120
 3461 Fit      -0.002217
 3462 Fit      -0.003038
 3463 Fit      -0.003613
 3464 Fit      -0.003974
 3465 Fit      -0.004160
 3466 Fit      -0.004209
 3467 Fit      -0.004160
 3468 Fit      -0.004050
 3469 Fit      -0.003915
 3470 Fit      -0.003786
 3471 Fit      -0.003687
 3472 Fit      -0.003636
 3473 Fit      -0.003643
 3474 Fit      -0.003708
 3475 Fit      -0.003820
 3476 Fit      -0.003962
 3477 Fit      -0.004107
 3478 Fit      -0.004219
 3479 Fit      -0.004260
 3480 Fit      -0.004191
 3481 Fit      -0.003990
 3482 Fit      -0.003703
 3483 Fit       0.004879
 3484 Fit       0.003301
 3485 Fit       0.001675
 3486 Fit       0.000143
 3487 Fit      -0.001184
 3488 Fit      -0.002258
 3489 Fit      -0.003072
 3490 Fit      -0.003644
 3491 Fit      -0.004005
 3492 Fit      -0.004191
 3493 Fit      -0.004241
 3494 Fit      -0.004195
 3495 Fit      -0.004094
 3496 Fit      -0.003973
 3497 Fit      -0.003863
 3498 Fit      -0.003789
 3499 Fit      -0.003765
 3500 Fit      -0.003800
 3501 Fit      -0.003888
 3502 Fit      -0.004015
 3503 Fit      -0.004156
 3504 Fit      -0.004280
 3505 Fit      -0.004345
 3506 Fit      -0.004310
 3507 Fit      -0.004139
 3508 Fit      -0.003835
 3509 Fit       0.002822
 3510 Fit       0.002747
 3511 Fit       0.001979
 3512 Fit       0.000857
 3513 Fit      -0.000363
 3514 Fit      -0.001505
 3515 Fit      -0.002470
 3516 Fit      -0.003222
 3517 Fit      -0.003759
 3518 Fit      -0.004101
 3519 Fit      -0.004280
 3520 Fit      -0.004331
 3521 Fit      -0.004294
 3522 Fit      -0.004208
 3523 Fit      -0.004108
 3524 Fit      -0.004023
 3525 Fit      -0.003977
 3526 Fit      -0.003982
 3527 Fit      -0.004040
 3528 Fit      -0.004141
 3529 Fit      -0.004268
 3530 Fit      -0.004389
 3531 Fit      -0.004467
 3532 Fit      -0.004459
 3533 Fit      -0.004323
 3534 Fit      -0.004027
 3535 Fit      -0.003576
 3536 Fit      -0.005278
 3537 Fit      -0.007508
 3538 Fit      -0.001510
 3539 Fit      -0.000060
 3540 Fit       0.000376
 3541 Fit       0.000080
 3542 Fit      -0.000643
 3543 Fit      -0.001533
 3544 Fit      -0.002406
 3545 Fit      -0.003155
 3546 Fit      -0.003731
 3547 Fit      -0.004129
 3548 Fit      -0.004363
 3549 Fit      -0.004463
 3550 Fit      -0.004466
 3551 Fit      -0.004411
 3552 Fit      -0.004335
 3553 Fit      -0.004269
 3554 Fit      -0.004237
 3555 Fit      -0.004252
 3556 Fit      -0.004314
 3557 Fit      -0.004413
 3558 Fit      -0.004524
 3559 Fit      -0.004615
 3560 Fit      -0.004643
 3561 Fit      -0.004562
 3562 Fit      -0.004327
 3563 Fit      -0.003898
 3564 Fit      -0.003231
 3565 Fit      -0.002161
 3566 Fit      -0.002144
 3567 Fit      -0.004309
 3568 Fit      -0.006046
 3569 Fit      -0.006995
 3570 Fit      -0.006972
 3571 Fit      -0.005948
 3572 Fit      -0.004307
 3573 Fit      -0.002741
 3574 Fit      -0.001753
 3575 Fit      -0.001450
 3576 Fit      -0.001687
 3577 Fit      -0.002238
 3578 Fit      -0.002895
 3579 Fit      -0.003513
 3580 Fit      -0.004012
 3581 Fit      -0.004361
 3582 Fit      -0.004566
 3583 Fit      -0.004651
 3584 Fit      -0.004654
 3585 Fit      -0.004612
 3586 Fit      -0.004562
 3587 Fit      -0.004534
 3588 Fit      -0.004545
 3589 Fit      -0.004599
 3590 Fit      -0.004684
 3591 Fit      -0.004775
 3592 Fit      -0.004835
 3593 Fit      -0.004819
 3594 Fit      -0.004675
 3595 Fit      -0.004356
 3596 Fit      -0.003807
 3597 Fit      -0.002936
 3598 Fit      -0.002050
 3599 Fit      -0.001515
 3600 Fit      -0.001547
 3601 Fit      -0.001978
 3602 Fit      -0.002871
 3603 Fit      -0.004127
 3604 Fit      -0.005321
 3605 Fit      -0.006060
 3606 Fit      -0.006131
 3607 Fit      -0.005529
 3608 Fit      -0.004522
 3609 Fit      -0.003553
 3610 Fit      -0.002955
 3611 Fit      -0.002818
 3612 Fit      -0.003045
 3613 Fit      -0.003467
 3614 Fit      -0.003931
 3615 Fit      -0.004333
 3616 Fit      -0.004625
 3617 Fit      -0.004797
 3618 Fit      -0.004870
 3619 Fit      -0.004877
 3620 Fit      -0.004855
 3621 Fit      -0.004838
 3622 Fit      -0.004849
 3623 Fit      -0.004893
 3624 Fit      -0.004961
 3625 Fit      -0.005027
 3626 Fit      -0.005051
 3627 Fit      -0.004986
 3628 Fit      -0.004784
 3629 Fit      -0.004400
 3630 Fit      -0.003795
 3631 Fit      -0.002959
 3632 Fit      -0.003502
 3633 Fit      -0.003214
 3634 Fit      -0.003288
 3635 Fit      -0.003723
 3636 Fit      -0.004439
 3637 Fit      -0.005188
 3638 Fit      -0.005656
 3639 Fit      -0.005650
 3640 Fit      -0.005201
 3641 Fit      -0.004558
 3642 Fit      -0.004039
 3643 Fit      -0.003827
 3644 Fit      -0.003919
 3645 Fit      -0.004196
 3646 Fit      -0.004522
 3647 Fit      -0.004800
 3648 Fit      -0.004988
 3649 Fit      -0.005085
 3650 Fit      -0.005117
 3651 Fit      -0.005121
 3652 Fit      -0.005130
 3653 Fit      -0.005161
 3654 Fit      -0.005210
 3655 Fit      -0.005255
 3656 Fit      -0.005254
 3657 Fit      -0.005160
 3658 Fit      -0.004929
 3659 Fit      -0.004540
 3660 Fit      -0.004020
 3661 Fit      -0.004454
 3662 Fit      -0.004313
 3663 Fit      -0.004436
 3664 Fit      -0.004797
 3665 Fit      -0.005234
 3666 Fit      -0.005509
 3667 Fit      -0.005465
 3668 Fit      -0.005153
 3669 Fit      -0.004789
 3670 Fit      -0.004584
 3671 Fit      -0.004604
 3672 Fit      -0.004779
 3673 Fit      -0.004999
 3674 Fit      -0.005179
 3675 Fit      -0.005290
 3676 Fit      -0.005344
 3677 Fit      -0.005370
 3678 Fit      -0.005397
 3679 Fit      -0.005433
 3680 Fit      -0.005458
 3681 Fit      -0.005434
 3682 Fit      -0.005319
 3683 Fit      -0.005087
 3684 Fit      -0.004764
 3685 Fit      -0.005085
 3686 Fit      -0.005029
 3687 Fit      -0.005170
 3688 Fit      -0.005402
 3689 Fit      -0.005517
 3690 Fit      -0.005413
 3691 Fit      -0.005208
 3692 Fit      -0.005098
 3693 Fit      -0.005150
 3694 Fit      -0.005293
 3695 Fit      -0.005430
 3696 Fit      -0.005518
 3697 Fit      -0.005567
 3698 Fit      -0.005601
 3699 Fit      -0.005620
 3700 Fit      -0.005591
 3701 Fit      -0.005477
 3702 Fit      -0.005279
 3703 Fit      -0.005479
 3704 Fit      -0.005467
 3705 Fit      -0.005557
 3706 Fit      -0.005578
 3707 Fit      -0.005491
 3708 Fit      -0.005455
 3709 Fit      -0.005531
 3710 Fit      -0.005632
 3711 Fit      -0.005699
 3712 Fit      -0.005729
 3713 Fit      -0.005704
 3714 Fit      -0.005601
 3715 Fit      -0.005690
 3716 Fit      -0.005680
 3717 Fit      -0.005666
 3718 Fit      -0.005691
 3719 Fit      -0.005761
 3720 Fit      -0.005761
 3721 Fit      -0.005752
 3722 Fit       0.006738
 3723 Fit       0.005465
 3724 Fit       0.010793
 3725 Fit       0.009782
 3726 Fit       0.009004
 3727 Fit       0.008131
 3728 Fit       0.006949
 3729 Fit       0.011856
 3730 Fit       0.010903
 3731 Fit       0.010243
 3732 Fit       0.009604
 3733 Fit       0.008897
 3734 Fit       0.008142
 3735 Fit       0.012490
 3736 Fit       0.011529
 3737 Fit       0.010952
 3738 Fit       0.010465
 3739 Fit       0.009997
 3740 Fit       0.009668
 3741 Fit       0.009856
 3742 Fit       0.013225
 3743 Fit       0.011839
 3744 Fit       0.011186
 3745 Fit       0.010790
 3746 Fit       0.010446
 3747 Fit       0.010142
 3748 Fit       0.010082
 3749 Fit       0.010462
 3750 Fit       0.010185
 3751 Fit       0.010017
 3752 Fit       0.009852
 3753 Fit       0.009637
 3754 Fit       0.009448
 3755 Fit       0.009579
 3756 Fit       0.008026
 3757 Fit       0.008218
 3758 Fit       0.008110
 3759 Fit       0.007836
 3760 Fit       0.005670
 3761 Fit       0.005558
 3762 Fit       0.004965
 3763 Fit       0.004431
 3764 Fit       0.003648
 3765 Fit       0.002544
 3766 Fit       0.008062
 3767 Fit       0.007203
 3768 Fit       0.006684
 3769 Fit       0.006191
 3770 Fit       0.005639
 3771 Fit       0.005127
 3772 Fit       0.009674
 3773 Fit       0.008524
 3774 Fit       0.007965
 3775 Fit       0.007554
 3776 Fit       0.007150
 3777 Fit       0.006834
 3778 Fit       0.006981
 3779 Fit       0.009504
 3780 Fit       0.008659
 3781 Fit       0.008248
 3782 Fit       0.007934
 3783 Fit       0.007621
 3784 Fit       0.007420
 3785 Fit       0.007752
 3786 Fit       0.008073
 3787 Fit       0.007839
 3788 Fit       0.007672
 3789 Fit       0.007451
 3790 Fit       0.007190
 3791 Fit       0.007087
 3792 Fit       0.006092
 3793 Fit       0.006389
 3794 Fit       0.006381
 3795 Fit       0.006111
 3796 Fit       0.005710
 3797 Fit       0.003807
 3798 Fit       0.004348
 3799 Fit       0.003972
 3800 Fit       0.012317
 3801 Fit       0.009217
 3802 Fit       0.013014
 3803 Fit       0.011158
 3804 Fit       0.016858
 3805 Fit       0.014841
 3806 Fit       0.013481
 3807 Fit       0.012715
 3808 Fit       0.015208
 3809 Fit       0.014036
 3810 Fit       0.013778
 3811 Fit       0.014524
 3812 Fit       0.013521
 3813 Fit       0.013588
 3814 Fit       0.011911
 3815 Fit       0.012090
 3816 Fit       0.009467
 3817 Fit       0.004939
 3818 Fit       0.007155
 3819 Fit       0.007194
 3820 Fit       0.004887
 3821 Fit       0.002208
 3822 Fit       0.002379
 3823 Fit       0.009208
 3824 Fit       0.009624
 3825 Fit       0.009076
 3826 Fit       0.007025
 3827 Fit       0.003370
 3828 Fit       0.011454
 3829 Fit       0.011451
 3830 Fit       0.011023
 3831 Fit       0.009472
 3832 Fit       0.005896
 3833 Fit       0.013141
 3834 Fit       0.013161
 3835 Fit       0.013304
 3836 Fit       0.013250
 3837 Fit       0.014837
 3838 Fit       0.015281
 3839 Fit       0.003472
 3840 Fit       0.003452
 3841 Fit       0.002357
 3842 Fit      -0.000070
 3843 Fit       0.002612
 3844 Fit       0.001374
 3845 Fit      -0.000866
 3846 Fit       0.001988
 3847 Fit       0.000604
 3848 Fit       0.001134
 3849 Fit       0.013823
 3850 Fit       0.013626
 3851 Fit       0.014892
 3852 Fit       0.012103
 3853 Fit       0.011953
 3854 Fit       0.012470
 3855 Fit       0.013677
 3856 Fit       0.016135
 3857 Fit       0.010862
 3858 Fit       0.010761
 3859 Fit       0.011084
 3860 Fit       0.011738
 3861 Fit       0.012865
 3862 Fit       0.015005
 3863 Fit       0.009731
 3864 Fit       0.010027
 3865 Fit       0.010546
 3866 Fit       0.011334
 3867 Fit       0.012702
 3868 Fit       0.008645
 3869 Fit       0.008947
 3870 Fit       0.009365
 3871 Fit       0.009888
 3872 Fit       0.010653
 3873 Fit       0.011887
 3874 Fit       0.007419
 3875 Fit       0.007765
 3876 Fit       0.008079
 3877 Fit       0.008335
 3878 Fit       0.008522
 3879 Fit       0.008444
 3880 Fit       0.006187
 3881 Fit       0.006549
 3882 Fit       0.006653
 3883 Fit       0.006427
 3884 Fit       0.007885
 3885 Fit       0.008798
 3886 Fit       0.010117
 3887 Fit       0.007165
 3888 Fit       0.006966
 3889 Fit       0.007661
 3890 Fit       0.008524
 3891 Fit       0.009856
 3892 Fit       0.005807
 3893 Fit       0.006330
 3894 Fit       0.006158
 3895 Fit       0.006773
 3896 Fit       0.007463
 3897 Fit       0.008473
 3898 Fit       0.004955
 3899 Fit       0.005536
 3900 Fit       0.005300
 3901 Fit       0.005848
 3902 Fit       0.006395
 3903 Fit       0.007115
 3904 Fit       0.003520
 3905 Fit       0.004053
 3906 Fit       0.004691
 3907 Fit       0.004350
 3908 Fit       0.004834
 3909 Fit       0.005254
 3910 Fit       0.005708
 3911 Fit       0.003094
 3912 Fit       0.003761
 3913 Fit       0.003358
 3914 Fit       0.003812
 3915 Fit       0.004127
 3916 Fit       0.002742
 3917 Fit      -0.001502
 3918 Fit      -0.000468
 3919 Fit       0.000420
 3920 Fit       0.001067
 3921 Fit       0.002210
 3922 Fit       0.002475
 3923 Fit       0.002737
 3924 Fit       0.002898
 3925 Fit       0.002832
 3926 Fit      -0.000624
 3927 Fit       0.000329
 3928 Fit       0.001080
 3929 Fit       0.001600
 3930 Fit       0.001941
 3931 Fit       0.002375
 3932 Fit       0.002593
 3933 Fit       0.002662
 3934 Fit       0.002389
 3935 Fit       0.001555
 3936 Fit       0.000307
 3937 Fit      -0.000358
 3938 Fit       0.000017
 3939 Fit       0.000835
 3940 Fit       0.001567
 3941 Fit       0.002062
 3942 Fit       0.002357
 3943 Fit       0.002432
 3944 Fit       0.001945
 3945 Fit       0.001193
 3946 Fit       0.001288
 3947 Fit       0.001921
 3948 Fit       0.002000
 3949 Fit       0.001912
 3950 Fit       0.003332
 3951 Fit       0.005245
 3952 Fit       0.000402
 3953 Fit       0.001878
 3954 Fit       0.003069
 3955 Fit       0.004084
 3956 Fit       0.005242
 3957 Fit      -0.001592
 3958 Fit       0.000156
 3959 Fit       0.001602
 3960 Fit       0.002740
 3961 Fit       0.003620
 3962 Fit       0.004373
 3963 Fit       0.005004
 3964 Fit      -0.001436
 3965 Fit       0.000330
 3966 Fit       0.001742
 3967 Fit       0.002814
 3968 Fit       0.003608
 3969 Fit       0.004256
 3970 Fit       0.004470
 3971 Fit      -0.001708
 3972 Fit       0.000051
 3973 Fit       0.001457
 3974 Fit       0.002509
 3975 Fit       0.003259
 3976 Fit       0.003831
 3977 Fit       0.003553
 3978 Fit      -0.000675
 3979 Fit       0.000758
 3980 Fit       0.001838
 3981 Fit       0.002589
 3982 Fit       0.003100
 3983 Fit      -0.000964
 3984 Fit       0.000475
 3985 Fit       0.001493
 3986 Fit       0.002093
 3987 Fit       0.003801
 3988 Fit       0.004956
 3989 Fit       0.005641
 3990 Fit       0.003412
 3991 Fit       0.005951
 3992 Fit       0.006996
 3993 Fit       0.007606
 3994 Fit       0.007399
 3995 Fit       0.002963
 3996 Fit       0.004553
 3997 Fit       0.006749
 3998 Fit       0.007808
 3999 Fit       0.008777
 4000 Fit       0.009741
 4001 Fit       0.004158
 4002 Fit       0.005534
 4003 Fit       0.007360
 4004 Fit       0.008411
 4005 Fit       0.009481
 4006 Fit       0.010723
 4007 Fit       0.012356
 4008 Fit       0.003760
 4009 Fit       0.005053
 4010 Fit       0.006248
 4011 Fit       0.007850
 4012 Fit       0.009006
 4013 Fit       0.010260
 4014 Fit       0.011854
 4015 Fit       0.005558
 4016 Fit       0.006697
 4017 Fit       0.008375
 4018 Fit       0.009683
 4019 Fit       0.011099
 4020 Fit       0.007109
 4021 Fit      -0.000312
 4022 Fit      -0.000793
 4023 Fit      -0.001474
 4024 Fit       0.000013
 4025 Fit      -0.001448
 4026 Fit      -0.000034
 4027 Fit      -0.001519
 4028 Fit      -0.000218
 4029 Fit      -0.000777
 -----------------------------------------------------------------
 Leave Link  602 at Fri Jan 17 11:55:07 2014, MaxMem=   235929600 cpu:         1.4

 Test job not archived.
 1\1\GINC-G29\SP\RHF\Gen\C11H13I1O1\KOLAR\17-Jan-2014\0\\# hf/gen pseud
 o=read pop=(mk, readradii) iop(6/33=2,6/41=5,6/42=2)\\na resp\\0,1\C,0
 ,-0.647041,3.397847,0.040556\C,0,-1.962082,2.996722,-0.179779\C,0,-2.2
 66441,1.632679,-0.203777\C,0,-1.26308,0.689799,-0.007294\C,0,0.070438,
 1.07974,0.22074\C,0,0.361852,2.453701,0.236855\O,0,0.983137,0.09819,0.
 418838\C,0,2.361723,0.427691,0.680632\C,0,3.10456,0.838602,-0.620407\C
 ,0,3.915351,-0.410877,-1.069554\C,0,3.386004,-1.572148,-0.203509\C,0,3
 .026779,-0.881934,1.121069\I,0,-1.765711,-1.38989,-0.04809\H,0,-0.3924
 31,4.454024,0.058487\H,0,-2.748684,3.729007,-0.334722\H,0,-3.286043,1.
 303709,-0.374783\H,0,1.379703,2.788828,0.397436\H,0,2.394777,1.196043,
 1.461656\H,0,2.377603,1.146457,-1.377425\H,0,3.760259,1.697807,-0.4393
 04\H,0,4.982413,-0.255447,-0.868205\H,0,3.817772,-0.605756,-2.142125\H
 ,0,4.114018,-2.381299,-0.08366\H,0,2.479967,-2.000175,-0.647746\H,0,3.
 939608,-0.640681,1.682019\H,0,2.370244,-1.464825,1.773232\\Version=AM6
 4L-G09RevD.01\State=1-A\HF=-510.1224058\RMSD=6.480e-09\Dipole=0.759998
 9,0.8860954,0.0420926\Quadrupole=3.4608339,2.2765567,-5.7373906,-0.794
 8549,1.9438824,0.1519806\PG=C01 [X(C11H13I1O1)]\\@


 THAT'S WHAT MAKES US A GREAT COUNTRY.
 THE LITTLE THINGS ARE SERIOUS AND THE BIG ONES ARE NOT.
           WILL ROGERS
 Job cpu time:       0 days  0 hours  0 minutes 34.9 seconds.
 File lengths (MBytes):  RWF=     17 Int=      0 D2E=      0 Chk=      3 Scr=      1
 Normal termination of Gaussian 09 at Fri Jan 17 11:55:07 2014.
33.99user 0.96system 0:35.05elapsed 99%CPU (0avgtext+0avgdata 6916304maxresident)k
8inputs+49472outputs (0major+587667minor)pagefaults 0swaps
