Linux g30 2.6.38.6-client #1 SMP Tue Jun 12 11:27:21 CEST 2012 x86_64 GNU/Linux
Thu Jan 16 21:46:47 CET 2014

 Entering Gaussian System, Link 0=/usr/local/programs/common/gaussian/gaussian09_d01/arch/amd64-pgi_10.4.0-acml/g09/g09
 Initial command:
 /usr/local/programs/common/gaussian/gaussian09_d01/arch/amd64-pgi_10.4.0-acml/g09/l1.exe "/scratch/kolar/g09_17518/Gau-3059.inp" -scrdir="/scratch/kolar/g09_17518/"
 Entering Link 1 = /usr/local/programs/common/gaussian/gaussian09_d01/arch/amd64-pgi_10.4.0-acml/g09/l1.exe PID=      3064.
  
 Copyright (c) 1988,1990,1992,1993,1995,1998,2003,2009,2013,
            Gaussian, Inc.  All Rights Reserved.
  
 This is part of the Gaussian(R) 09 program.  It is based on
 the Gaussian(R) 03 system (copyright 2003, Gaussian, Inc.),
 the Gaussian(R) 98 system (copyright 1998, Gaussian, Inc.),
 the Gaussian(R) 94 system (copyright 1995, Gaussian, Inc.),
 the Gaussian 92(TM) system (copyright 1992, Gaussian, Inc.),
 the Gaussian 90(TM) system (copyright 1990, Gaussian, Inc.),
 the Gaussian 88(TM) system (copyright 1988, Gaussian, Inc.),
 the Gaussian 86(TM) system (copyright 1986, Carnegie Mellon
 University), and the Gaussian 82(TM) system (copyright 1983,
 Carnegie Mellon University). Gaussian is a federally registered
 trademark of Gaussian, Inc.
  
 This software contains proprietary and confidential information,
 including trade secrets, belonging to Gaussian, Inc.
  
 This software is provided under written license and may be
 used, copied, transmitted, or stored only in accord with that
 written license.
  
 The following legend is applicable only to US Government
 contracts under FAR:
  
                    RESTRICTED RIGHTS LEGEND
  
 Use, reproduction and disclosure by the US Government is
 subject to restrictions as set forth in subparagraphs (a)
 and (c) of the Commercial Computer Software - Restricted
 Rights clause in FAR 52.227-19.
  
 Gaussian, Inc.
 340 Quinnipiac St., Bldg. 40, Wallingford CT 06492
  
  
 ---------------------------------------------------------------
 Warning -- This program may not be used in any manner that
 competes with the business of Gaussian, Inc. or will provide
 assistance to any competitor of Gaussian, Inc.  The licensee
 of this program is prohibited from giving any competitor of
 Gaussian, Inc. access to this program.  By using this program,
 the user acknowledges that Gaussian, Inc. is engaged in the
 business of creating and licensing software in the field of
 computational chemistry and represents and warrants to the
 licensee that it is not a competitor of Gaussian, Inc. and that
 it will not use this program in any manner prohibited above.
 ---------------------------------------------------------------
  

 Cite this work as:
 Gaussian 09, Revision D.01,
 M. J. Frisch, G. W. Trucks, H. B. Schlegel, G. E. Scuseria, 
 M. A. Robb, J. R. Cheeseman, G. Scalmani, V. Barone, B. Mennucci, 
 G. A. Petersson, H. Nakatsuji, M. Caricato, X. Li, H. P. Hratchian, 
 A. F. Izmaylov, J. Bloino, G. Zheng, J. L. Sonnenberg, M. Hada, 
 M. Ehara, K. Toyota, R. Fukuda, J. Hasegawa, M. Ishida, T. Nakajima, 
 Y. Honda, O. Kitao, H. Nakai, T. Vreven, J. A. Montgomery, Jr., 
 J. E. Peralta, F. Ogliaro, M. Bearpark, J. J. Heyd, E. Brothers, 
 K. N. Kudin, V. N. Staroverov, T. Keith, R. Kobayashi, J. Normand, 
 K. Raghavachari, A. Rendell, J. C. Burant, S. S. Iyengar, J. Tomasi, 
 M. Cossi, N. Rega, J. M. Millam, M. Klene, J. E. Knox, J. B. Cross, 
 V. Bakken, C. Adamo, J. Jaramillo, R. Gomperts, R. E. Stratmann, 
 O. Yazyev, A. J. Austin, R. Cammi, C. Pomelli, J. W. Ochterski, 
 R. L. Martin, K. Morokuma, V. G. Zakrzewski, G. A. Voth, 
 P. Salvador, J. J. Dannenberg, S. Dapprich, A. D. Daniels, 
 O. Farkas, J. B. Foresman, J. V. Ortiz, J. Cioslowski, 
 and D. J. Fox, Gaussian, Inc., Wallingford CT, 2013.
 
 ******************************************
 Gaussian 09:  AM64L-G09RevD.01 24-Apr-2013
                16-Jan-2014 
 ******************************************
 %mem=1800mb
 -----------------------------------------
 # hf/gen pop=mk iop(6/33=2,6/41=5,6/42=2)
 -----------------------------------------
 1/38=1/1;
 2/12=2,17=6,18=5,40=1/2;
 3/5=7,11=9,16=1,25=1,30=1/1,2,3;
 4//1;
 5/5=2,38=5/2;
 6/7=2,8=2,9=2,10=2,15=8,20=1,28=1,33=2,41=5,42=2/1,2;
 99/5=1,9=1/99;
 -------
 na resp
 -------
 Symbolic Z-matrix:
 Charge =  0 Multiplicity = 1
 6                    -3.46831  -1.8267    0.35446 
 7                    -2.41714  -0.83053   0.15013 
 6                    -1.11334  -1.22026  -0.03492 
 6                    -0.10028  -0.30347  -0.23511 
 6                    -0.31121   1.11326  -0.2606 
 8                     0.5536    1.97443  -0.41639 
 7                    -1.67711   1.43076  -0.07181 
 6                    -2.74056   0.52745   0.12986 
 8                    -3.88384   0.93083   0.28089 
 6                    -2.06141   2.847    -0.07767 
 7                     1.05174  -1.06655  -0.38903 
 6                     0.65095  -2.36012  -0.26531 
 7                    -0.65214  -2.50064  -0.05183 
 6                     2.41141  -0.5857   -0.62812 
 6                     2.99601   0.07674   0.62005 
 17                    4.72767   0.5085    0.31949 
 1                    -4.40339  -1.28884   0.49743 
 1                    -3.5377   -2.48293  -0.51774 
 1                    -3.23936  -2.43429   1.23415 
 1                    -2.78005   3.03463  -0.87879 
 1                    -2.52909   3.1098    0.87392 
 1                    -1.15475   3.4283   -0.23267 
 1                     1.35235  -3.18009  -0.34901 
 1                     3.01559  -1.44731  -0.92339 
 1                     2.39477   0.13063  -1.45212 
 1                     2.46321   1.00057   0.84453 
 1                     2.97301  -0.59767   1.47819 
 
                          Input orientation:                          
 ---------------------------------------------------------------------
 Center     Atomic      Atomic             Coordinates (Angstroms)
 Number     Number       Type             X           Y           Z
 ---------------------------------------------------------------------
      1          6           0       -3.468311   -1.826704    0.354455
      2          7           0       -2.417139   -0.830525    0.150134
      3          6           0       -1.113343   -1.220264   -0.034922
      4          6           0       -0.100278   -0.303468   -0.235109
      5          6           0       -0.311214    1.113264   -0.260598
      6          8           0        0.553600    1.974426   -0.416385
      7          7           0       -1.677114    1.430764   -0.071812
      8          6           0       -2.740564    0.527454    0.129858
      9          8           0       -3.883841    0.930832    0.280889
     10          6           0       -2.061409    2.847001   -0.077670
     11          7           0        1.051737   -1.066550   -0.389026
     12          6           0        0.650950   -2.360121   -0.265311
     13          7           0       -0.652141   -2.500639   -0.051832
     14          6           0        2.411411   -0.585696   -0.628119
     15          6           0        2.996011    0.076740    0.620054
     16         17           0        4.727672    0.508502    0.319493
     17          1           0       -4.403385   -1.288838    0.497425
     18          1           0       -3.537696   -2.482925   -0.517741
     19          1           0       -3.239360   -2.434290    1.234149
     20          1           0       -2.780054    3.034625   -0.878793
     21          1           0       -2.529087    3.109800    0.873923
     22          1           0       -1.154753    3.428298   -0.232669
     23          1           0        1.352347   -3.180088   -0.349010
     24          1           0        3.015589   -1.447312   -0.923388
     25          1           0        2.394774    0.130633   -1.452117
     26          1           0        2.463206    1.000567    0.844532
     27          1           0        2.973013   -0.597666    1.478191
 ---------------------------------------------------------------------
                    Distance matrix (angstroms):
                    1          2          3          4          5
     1  C    0.000000
     2  N    1.462560   0.000000
     3  C    2.462774   1.373327   0.000000
     4  C    3.743191   2.407082   1.380902   0.000000
     5  C    4.357633   2.895157   2.477840   1.432576   0.000000
     6  O    5.587356   4.124801   3.623570   2.376808   1.230355
     7  N    3.741816   2.389629   2.710562   2.349604   1.414966
     8  C    2.474292   1.396110   2.393641   2.791907   2.529302
     9  O    2.789638   2.295798   3.521734   4.013116   3.618032
    10  C    4.899962   3.701707   4.176518   3.714334   2.470322
    11  N    4.643429   3.518452   2.199225   1.390368   2.574047
    12  C    4.199637   3.453321   2.113074   2.189766   3.604190
    13  N    2.924050   2.438296   1.361012   2.272818   3.635947
    14  C    6.089063   4.896990   3.630213   2.557868   3.230205
    15  C    6.743968   5.508734   4.358670   3.234636   3.575985
    16  Cl   8.522238   7.271176   6.101778   4.927066   5.108093
    17  H    1.088165   2.067809   3.333537   4.474851   4.805263
    18  H    1.093694   2.105263   2.775773   4.079921   4.838273
    19  H    1.093362   2.103140   2.757598   4.068533   4.836677
    20  H    5.062323   4.016190   4.646948   4.328787   3.188881
    21  H    5.051837   4.007813   4.645405   4.333528   3.192531
    22  H    5.771682   4.458445   4.652950   3.877886   2.464086
    23  H    5.056210   4.469744   3.165310   3.224598   4.605228
    24  H    6.619500   5.572020   4.229539   3.389799   4.250113
    25  H    6.439770   5.161932   4.017493   2.809775   3.115711
    26  H    6.589122   5.258598   4.300841   3.072065   2.988548
    27  H    6.653117   5.556230   4.401755   3.530873   4.091065
                    6          7          8          9         10
     6  O    0.000000
     7  N    2.321720   0.000000
     8  C    3.639179   1.409811   0.000000
     9  O    4.611525   2.289973   1.221723   0.000000
    10  C    2.777479   1.467462   2.425823   2.668619   0.000000
    11  N    3.081627   3.712658   4.146280   5.366400   5.010439
    12  C    4.338271   4.452879   4.471757   5.629657   5.874200
    13  N    4.648969   4.062868   3.682916   4.725419   5.530276
    14  C    3.170255   4.592562   5.325080   6.538834   5.665026
    15  C    3.262022   4.914281   5.775095   6.940956   5.808499
    16  Cl   4.484788   6.482667   7.470667   8.621949   7.191518
    17  H    6.004635   3.892662   2.489778   2.289923   4.787562
    18  H    6.051194   4.356326   3.180752   3.522976   5.548080
    19  H    6.045460   4.368614   3.200029   3.556418   5.567807
    20  H    3.528611   2.107146   2.702747   2.643701   1.092452
    21  H    3.529437   2.106997   2.695713   2.633429   1.092390
    22  H    2.250770   2.070961   3.325826   3.734836   1.088097
    23  H    5.216469   5.523987   5.543203   6.686860   6.932038
    24  H    4.245790   5.570455   6.175947   7.396485   6.703154
    25  H    2.803968   4.491754   5.388117   6.562365   5.396789
    26  H    2.486948   4.262277   5.273881   6.372406   4.973119
    27  H    4.007323   5.304783   5.977362   7.126450   6.295382
                   11         12         13         14         15
    11  N    0.000000
    12  C    1.359876   0.000000
    13  N    2.252446   1.327917   0.000000
    14  C    1.461882   2.525755   3.658478   0.000000
    15  C    2.470942   3.495922   4.517004   1.529220   0.000000
    16  Cl   4.061439   5.019029   6.175370   2.731355   1.809808
    17  H    5.531145   5.222616   3.980198   6.942817   7.525351
    18  H    4.804746   4.198042   2.922980   6.245281   7.108853
    19  H    4.787371   4.169939   2.889957   6.230293   6.749980
    20  H    5.634015   6.422728   5.987573   6.334104   6.660222
    21  H    5.644399   6.428882   5.988069   6.349909   6.307980
    22  H    5.009661   6.063615   5.952950   5.383870   5.402677
    23  H    2.135184   1.082270   2.137273   2.816095   3.774605
    24  H    2.070564   2.618741   3.914250   1.092976   2.169177
    25  H    2.089775   3.263937   4.262403   1.091960   2.158306
    26  H    2.790499   3.976210   4.771509   2.165090   1.089829
    27  H    2.719863   3.396767   4.370814   2.179927   1.091674
                   16         17         18         19         20
    16  Cl   0.000000
    17  H    9.307969   0.000000
    18  H    8.829830   1.790481   0.000000
    19  H    8.542261   1.791585   1.777776   0.000000
    20  H    8.011438   4.818870   5.581016   5.880860   0.000000
    21  H    7.728822   4.796119   5.850863   5.600999   1.772188
    22  H    6.590373   5.773908   6.379831   6.392736   1.792779
    23  H    5.044344   6.117330   4.942371   4.913897   7.481983
    24  H    2.881179   7.555462   6.646998   6.689804   7.326611
    25  H    2.953608   7.213222   6.549652   6.748209   5.961603
    26  H    2.376047   7.246512   7.071162   6.668531   5.882093
    27  H    2.375924   7.473344   7.065924   6.482771   7.200465
                   21         22         23         24         25
    21  H    0.000000
    22  H    1.792981   0.000000
    23  H    7.491581   7.068936   0.000000
    24  H    7.398718   6.452939   2.469574   0.000000
    25  H    6.207278   4.996077   3.642029   1.776197   0.000000
    26  H    5.419660   4.488192   4.487363   3.069655   2.456840
    27  H    6.662098   6.014473   3.554451   2.547802   3.074327
                   26         27
    26  H    0.000000
    27  H    1.793258   0.000000
 Stoichiometry    C9H11ClN4O2
 Framework group  C1[X(C9H11ClN4O2)]
 Deg. of freedom    75
 Full point group                 C1      NOp   1
 Largest Abelian subgroup         C1      NOp   1
 Largest concise Abelian subgroup C1      NOp   1
                         Standard orientation:                         
 ---------------------------------------------------------------------
 Center     Atomic      Atomic             Coordinates (Angstroms)
 Number     Number       Type             X           Y           Z
 ---------------------------------------------------------------------
      1          6           0       -3.468311   -1.826704    0.354455
      2          7           0       -2.417139   -0.830525    0.150134
      3          6           0       -1.113343   -1.220264   -0.034922
      4          6           0       -0.100278   -0.303468   -0.235109
      5          6           0       -0.311214    1.113264   -0.260598
      6          8           0        0.553600    1.974426   -0.416385
      7          7           0       -1.677114    1.430764   -0.071812
      8          6           0       -2.740564    0.527454    0.129858
      9          8           0       -3.883841    0.930832    0.280889
     10          6           0       -2.061409    2.847001   -0.077670
     11          7           0        1.051737   -1.066550   -0.389026
     12          6           0        0.650950   -2.360121   -0.265311
     13          7           0       -0.652141   -2.500639   -0.051832
     14          6           0        2.411411   -0.585696   -0.628119
     15          6           0        2.996011    0.076740    0.620054
     16         17           0        4.727672    0.508502    0.319493
     17          1           0       -4.403385   -1.288838    0.497425
     18          1           0       -3.537696   -2.482925   -0.517741
     19          1           0       -3.239360   -2.434290    1.234149
     20          1           0       -2.780054    3.034625   -0.878793
     21          1           0       -2.529087    3.109800    0.873923
     22          1           0       -1.154753    3.428298   -0.232669
     23          1           0        1.352347   -3.180088   -0.349010
     24          1           0        3.015589   -1.447312   -0.923388
     25          1           0        2.394774    0.130633   -1.452117
     26          1           0        2.463206    1.000567    0.844532
     27          1           0        2.973013   -0.597666    1.478191
 ---------------------------------------------------------------------
 Rotational constants (GHZ):      0.8956776      0.2842934      0.2221109
 General basis read from cards:  (5D, 7F)
 There are   266 symmetry adapted cartesian basis functions of A   symmetry.
 There are   250 symmetry adapted basis functions of A   symmetry.
   250 basis functions,   516 primitive gaussians,   266 cartesian basis functions
    63 alpha electrons       63 beta electrons
       nuclear repulsion energy      1229.5914035037 Hartrees.
 NAtoms=   27 NActive=   27 NUniq=   27 SFac= 1.00D+00 NAtFMM=   60 NAOKFM=F Big=F
 Integral buffers will be    131072 words long.
 Raffenetti 1 integral format.
 Two-electron integral symmetry is turned on.
 One-electron integrals computed using PRISM.
 NBasis=   250 RedAO= T EigKep=  8.72D-04  NBF=   250
 NBsUse=   250 1.00D-06 EigRej= -1.00D+00 NBFU=   250
 ExpMin= 1.43D-01 ExpMax= 2.52D+04 ExpMxC= 3.78D+03 IAcc=1 IRadAn=         1 AccDes= 0.00D+00
 Harris functional with IExCor=  205 and IRadAn=       1 diagonalized for initial guess.
 HarFok:  IExCor=  205 AccDes= 0.00D+00 IRadAn=         1 IDoV= 1 UseB2=F ITyADJ=14
 ICtDFT=  3500011 ScaDFX=  1.000000  1.000000  1.000000  1.000000
 FoFCou: FMM=F IPFlag=           0 FMFlag=      100000 FMFlg1=           0
         NFxFlg=           0 DoJE=T BraDBF=F KetDBF=T FulRan=T
         wScrn=  0.000000 ICntrl=     500 IOpCl=  0 I1Cent=   200000004 NGrid=           0
         NMat0=    1 NMatS0=      1 NMatT0=    0 NMatD0=    1 NMtDS0=    0 NMtDT0=    0
 Petite list used in FoFCou.
 Requested convergence on RMS density matrix=1.00D-08 within 128 cycles.
 Requested convergence on MAX density matrix=1.00D-06.
 Requested convergence on             energy=1.00D-06.
 No special actions if energy rises.
 Integral accuracy reduced to 1.0D-05 until final iterations.
 Initial convergence to 1.0D-05 achieved.  Increase integral accuracy.
 SCF Done:  E(RHF) =  -1174.26746633     A.U. after   16 cycles
            NFock= 16  Conv=0.50D-08     -V/T= 2.0009

 **********************************************************************

            Population analysis using the SCF density.

 **********************************************************************

 Orbital symmetries:
 BldTbl:  Degeneracy threshold= 1.00D-02
       Occupied  (A) (A) (A) (A) (A) (A) (A) (A) (A) (A) (A) (A)
                 (A) (A) (A) (A) (A) (A) (A) (A) (A) (A) (A) (A)
                 (A) (A) (A) (A) (A) (A) (A) (A) (A) (A) (A) (A)
                 (A) (A) (A) (A) (A) (A) (A) (A) (A) (A) (A) (A)
                 (A) (A) (A) (A) (A) (A) (A) (A) (A) (A) (A) (A)
                 (A) (A) (A)
       Virtual   (A) (A) (A) (A) (A) (A) (A) (A) (A) (A) (A) (A)
                 (A) (A) (A) (A) (A) (A) (A) (A) (A) (A) (A) (A)
                 (A) (A) (A) (A) (A) (A) (A) (A) (A) (A) (A) (A)
                 (A) (A) (A) (A) (A) (A) (A) (A) (A) (A) (A) (A)
                 (A) (A) (A) (A) (A) (A) (A) (A) (A) (A) (A) (A)
                 (A) (A) (A) (A) (A) (A) (A) (A) (A) (A) (A) (A)
                 (A) (A) (A) (A) (A) (A) (A) (A) (A) (A) (A) (A)
                 (A) (A) (A) (A) (A) (A) (A) (A) (A) (A) (A) (A)
                 (A) (A) (A) (A) (A) (A) (A) (A) (A) (A) (A) (A)
                 (A) (A) (A) (A) (A) (A) (A) (A) (A) (A) (A) (A)
                 (A) (A) (A) (A) (A) (A) (A) (A) (A) (A) (A) (A)
                 (A) (A) (A) (A) (A) (A) (A) (A) (A) (A) (A) (A)
                 (A) (A) (A) (A) (A) (A) (A) (A) (A) (A) (A) (A)
                 (A) (A) (A) (A) (A) (A) (A) (A) (A) (A) (A) (A)
                 (A) (A) (A) (A) (A) (A) (A) (A) (A) (A) (A) (A)
                 (A) (A) (A) (A) (A) (A) (A)
 The electronic state is 1-A.
 Alpha  occ. eigenvalues -- -104.81556 -20.55008 -20.54322 -15.66363 -15.63465
 Alpha  occ. eigenvalues --  -15.63025 -15.58667 -11.41404 -11.39132 -11.34753
 Alpha  occ. eigenvalues --  -11.33925 -11.31096 -11.30750 -11.27928 -11.27015
 Alpha  occ. eigenvalues --  -11.25837 -10.55464  -8.02312  -8.01991  -8.01980
 Alpha  occ. eigenvalues --   -1.42760  -1.39764  -1.38394  -1.29947  -1.25414
 Alpha  occ. eigenvalues --   -1.21952  -1.14468  -1.07625  -1.01828  -0.98677
 Alpha  occ. eigenvalues --   -0.96471  -0.89381  -0.88853  -0.86424  -0.82019
 Alpha  occ. eigenvalues --   -0.79214  -0.72953  -0.70128  -0.69261  -0.67392
 Alpha  occ. eigenvalues --   -0.66799  -0.64923  -0.64494  -0.63270  -0.62835
 Alpha  occ. eigenvalues --   -0.62402  -0.59925  -0.58215  -0.56609  -0.56064
 Alpha  occ. eigenvalues --   -0.55378  -0.55079  -0.54861  -0.54219  -0.48623
 Alpha  occ. eigenvalues --   -0.47087  -0.46887  -0.44735  -0.44606  -0.43958
 Alpha  occ. eigenvalues --   -0.41532  -0.40366  -0.32455
 Alpha virt. eigenvalues --    0.09618   0.17354   0.17971   0.19642   0.22912
 Alpha virt. eigenvalues --    0.25123   0.25662   0.26166   0.27271   0.27851
 Alpha virt. eigenvalues --    0.29412   0.29685   0.30712   0.31714   0.32698
 Alpha virt. eigenvalues --    0.33115   0.34022   0.35250   0.35809   0.37956
 Alpha virt. eigenvalues --    0.38606   0.40694   0.42511   0.44821   0.46528
 Alpha virt. eigenvalues --    0.49193   0.50541   0.52953   0.55900   0.57018
 Alpha virt. eigenvalues --    0.58513   0.61296   0.63514   0.64755   0.67089
 Alpha virt. eigenvalues --    0.67297   0.67653   0.68911   0.70850   0.71854
 Alpha virt. eigenvalues --    0.72753   0.73992   0.74952   0.76613   0.77828
 Alpha virt. eigenvalues --    0.78353   0.79651   0.80689   0.82710   0.84706
 Alpha virt. eigenvalues --    0.85222   0.87357   0.88568   0.90276   0.91157
 Alpha virt. eigenvalues --    0.91929   0.94721   0.95792   0.96884   0.98087
 Alpha virt. eigenvalues --    0.99992   1.00880   1.02810   1.04713   1.06029
 Alpha virt. eigenvalues --    1.07362   1.08510   1.09340   1.10092   1.11131
 Alpha virt. eigenvalues --    1.11927   1.12027   1.13925   1.14235   1.14612
 Alpha virt. eigenvalues --    1.15864   1.16176   1.17128   1.17414   1.18096
 Alpha virt. eigenvalues --    1.19237   1.21067   1.21552   1.22639   1.23509
 Alpha virt. eigenvalues --    1.26306   1.27114   1.28360   1.33656   1.34012
 Alpha virt. eigenvalues --    1.35916   1.38121   1.39531   1.42588   1.43758
 Alpha virt. eigenvalues --    1.46753   1.47159   1.49751   1.51880   1.54208
 Alpha virt. eigenvalues --    1.56024   1.57047   1.57302   1.58786   1.61160
 Alpha virt. eigenvalues --    1.62196   1.63553   1.64752   1.65661   1.68969
 Alpha virt. eigenvalues --    1.72711   1.73208   1.75128   1.80766   1.80811
 Alpha virt. eigenvalues --    1.89431   1.89641   1.94621   1.95896   2.01524
 Alpha virt. eigenvalues --    2.02501   2.04565   2.05203   2.06778   2.07554
 Alpha virt. eigenvalues --    2.11160   2.12847   2.14454   2.15879   2.17974
 Alpha virt. eigenvalues --    2.19101   2.20828   2.21885   2.23499   2.24811
 Alpha virt. eigenvalues --    2.27273   2.30559   2.32623   2.33663   2.35033
 Alpha virt. eigenvalues --    2.36271   2.37926   2.39335   2.39910   2.40908
 Alpha virt. eigenvalues --    2.43693   2.47745   2.48749   2.50442   2.54575
 Alpha virt. eigenvalues --    2.55822   2.57850   2.59353   2.61217   2.61507
 Alpha virt. eigenvalues --    2.62331   2.63734   2.65616   2.65867   2.66915
 Alpha virt. eigenvalues --    2.69810   2.74167   2.75012   2.77396   2.79666
 Alpha virt. eigenvalues --    2.82434   2.88154   2.89612   2.90689   2.95907
 Alpha virt. eigenvalues --    2.97819   3.00590   3.01211   3.05991   3.08906
 Alpha virt. eigenvalues --    3.09813   3.11208   3.18224   3.29042   3.30348
 Alpha virt. eigenvalues --    3.31532   3.37289   3.39710   3.43988   3.56020
 Alpha virt. eigenvalues --    3.73813   3.86700
          Condensed to atoms (all electrons):
               1          2          3          4          5          6
     1  C    4.982640   0.199075  -0.035604   0.001836  -0.000275   0.000001
     2  N    0.199075   7.538486   0.240784  -0.063933  -0.009085   0.000002
     3  C   -0.035604   0.240784   4.384750   0.557093  -0.040389   0.002830
     4  C    0.001836  -0.063933   0.557093   5.165138   0.362681  -0.076986
     5  C   -0.000275  -0.009085  -0.040389   0.362681   4.002038   0.586080
     6  O    0.000001   0.000002   0.002830  -0.076986   0.586080   8.221015
     7  N    0.001933  -0.102462  -0.005041  -0.107162   0.253504  -0.084336
     8  C   -0.029213   0.318818  -0.039853  -0.007195  -0.015994   0.000130
     9  O   -0.007353  -0.085212   0.000514   0.000026   0.000338  -0.000015
    10  C   -0.000047   0.002292  -0.000239   0.003822  -0.029653  -0.008061
    11  N   -0.000016   0.004178  -0.072495   0.277557  -0.031695  -0.004181
    12  C   -0.000151   0.003266  -0.120158  -0.106839   0.002115  -0.000101
    13  N   -0.002401  -0.050559   0.482362  -0.092172   0.005010  -0.000037
    14  C    0.000001  -0.000033   0.003831  -0.033207   0.000815   0.003274
    15  C    0.000000   0.000001   0.000014   0.000928  -0.000672  -0.007340
    16  Cl   0.000000   0.000000   0.000000   0.000029   0.000046   0.000122
    17  H    0.391384  -0.029838   0.003757   0.000025  -0.000018   0.000000
    18  H    0.399164  -0.042690  -0.002484  -0.000038   0.000006   0.000000
    19  H    0.398907  -0.042089  -0.002841  -0.000015  -0.000002   0.000000
    20  H    0.000000  -0.000075   0.000014  -0.000091   0.001412   0.000290
    21  H   -0.000001  -0.000071   0.000016  -0.000112   0.001540   0.000300
    22  H    0.000001   0.000006  -0.000064   0.001013  -0.006154   0.008183
    23  H   -0.000008  -0.000050   0.004100   0.002880   0.000014   0.000000
    24  H    0.000000   0.000001   0.000025   0.002185  -0.000029   0.000123
    25  H    0.000000  -0.000003  -0.000129  -0.001806   0.000635   0.002917
    26  H    0.000000   0.000001   0.000012  -0.000993  -0.000102   0.011085
    27  H    0.000000   0.000000  -0.000119  -0.000230   0.000050   0.000109
               7          8          9         10         11         12
     1  C    0.001933  -0.029213  -0.007353  -0.000047  -0.000016  -0.000151
     2  N   -0.102462   0.318818  -0.085212   0.002292   0.004178   0.003266
     3  C   -0.005041  -0.039853   0.000514  -0.000239  -0.072495  -0.120158
     4  C   -0.107162  -0.007195   0.000026   0.003822   0.277557  -0.106839
     5  C    0.253504  -0.015994   0.000338  -0.029653  -0.031695   0.002115
     6  O   -0.084336   0.000130  -0.000015  -0.008061  -0.004181  -0.000101
     7  N    7.647250   0.282123  -0.091582   0.189598   0.002254  -0.000129
     8  C    0.282123   3.786888   0.633730  -0.035680   0.000137  -0.000105
     9  O   -0.091582   0.633730   8.170934   0.002120   0.000000   0.000001
    10  C    0.189598  -0.035680   0.002120   4.979361  -0.000042   0.000002
    11  N    0.002254   0.000137   0.000000  -0.000042   7.228044   0.414003
    12  C   -0.000129  -0.000105   0.000001   0.000002   0.414003   4.572193
    13  N   -0.000120   0.000969  -0.000023   0.000001  -0.085577   0.540374
    14  C    0.000060  -0.000005   0.000000   0.000001   0.162778  -0.027857
    15  C   -0.000038   0.000000   0.000000  -0.000001  -0.054038  -0.000610
    16  Cl   0.000000   0.000000   0.000000   0.000000   0.004553  -0.000006
    17  H    0.000448  -0.005744   0.009764  -0.000009   0.000001   0.000009
    18  H   -0.000041   0.001153   0.000304   0.000001  -0.000002  -0.000095
    19  H   -0.000032   0.001462   0.000298   0.000001   0.000000  -0.000091
    20  H   -0.039945  -0.004017   0.001469   0.399573   0.000001   0.000000
    21  H   -0.039902  -0.004066   0.001536   0.399300   0.000000   0.000000
    22  H   -0.030837   0.003777   0.000508   0.390632   0.000000   0.000000
    23  H    0.000001   0.000003   0.000000   0.000000  -0.043834   0.398150
    24  H    0.000002   0.000000   0.000000   0.000000  -0.041191  -0.002914
    25  H    0.000016  -0.000001   0.000000   0.000001  -0.036721   0.000973
    26  H    0.000056   0.000000   0.000000   0.000003  -0.000528   0.000056
    27  H    0.000001   0.000000   0.000000   0.000000   0.001690   0.001013
              13         14         15         16         17         18
     1  C   -0.002401   0.000001   0.000000   0.000000   0.391384   0.399164
     2  N   -0.050559  -0.000033   0.000001   0.000000  -0.029838  -0.042690
     3  C    0.482362   0.003831   0.000014   0.000000   0.003757  -0.002484
     4  C   -0.092172  -0.033207   0.000928   0.000029   0.000025  -0.000038
     5  C    0.005010   0.000815  -0.000672   0.000046  -0.000018   0.000006
     6  O   -0.000037   0.003274  -0.007340   0.000122   0.000000   0.000000
     7  N   -0.000120   0.000060  -0.000038   0.000000   0.000448  -0.000041
     8  C    0.000969  -0.000005   0.000000   0.000000  -0.005744   0.001153
     9  O   -0.000023   0.000000   0.000000   0.000000   0.009764   0.000304
    10  C    0.000001   0.000001  -0.000001   0.000000  -0.000009   0.000001
    11  N   -0.085577   0.162778  -0.054038   0.004553   0.000001  -0.000002
    12  C    0.540374  -0.027857  -0.000610  -0.000006   0.000009  -0.000095
    13  N    6.820792   0.002662  -0.000071   0.000001   0.000146   0.000961
    14  C    0.002662   5.026976   0.292760  -0.062372   0.000000   0.000000
    15  C   -0.000071   0.292760   5.308779   0.211167   0.000000   0.000000
    16  Cl   0.000001  -0.062372   0.211167  17.019201   0.000000   0.000000
    17  H    0.000146   0.000000   0.000000   0.000000   0.429629  -0.022077
    18  H    0.000961   0.000000   0.000000   0.000000  -0.022077   0.502060
    19  H    0.000985   0.000000   0.000000   0.000000  -0.021744  -0.033645
    20  H    0.000000   0.000000   0.000000   0.000000   0.000000   0.000000
    21  H    0.000000   0.000000   0.000000   0.000000   0.000000   0.000000
    22  H    0.000000  -0.000001   0.000000   0.000000   0.000000   0.000000
    23  H   -0.026646   0.000526  -0.000043   0.000004   0.000000   0.000000
    24  H    0.000086   0.408644  -0.043949   0.001327   0.000000   0.000000
    25  H   -0.000082   0.403899  -0.045126   0.002634   0.000000   0.000000
    26  H    0.000004  -0.029752   0.372808  -0.038614   0.000000   0.000000
    27  H   -0.000041  -0.037571   0.375550  -0.043130   0.000000   0.000000
              19         20         21         22         23         24
     1  C    0.398907   0.000000  -0.000001   0.000001  -0.000008   0.000000
     2  N   -0.042089  -0.000075  -0.000071   0.000006  -0.000050   0.000001
     3  C   -0.002841   0.000014   0.000016  -0.000064   0.004100   0.000025
     4  C   -0.000015  -0.000091  -0.000112   0.001013   0.002880   0.002185
     5  C   -0.000002   0.001412   0.001540  -0.006154   0.000014  -0.000029
     6  O    0.000000   0.000290   0.000300   0.008183   0.000000   0.000123
     7  N   -0.000032  -0.039945  -0.039902  -0.030837   0.000001   0.000002
     8  C    0.001462  -0.004017  -0.004066   0.003777   0.000003   0.000000
     9  O    0.000298   0.001469   0.001536   0.000508   0.000000   0.000000
    10  C    0.000001   0.399573   0.399300   0.390632   0.000000   0.000000
    11  N    0.000000   0.000001   0.000000   0.000000  -0.043834  -0.041191
    12  C   -0.000091   0.000000   0.000000   0.000000   0.398150  -0.002914
    13  N    0.000985   0.000000   0.000000   0.000000  -0.026646   0.000086
    14  C    0.000000   0.000000   0.000000  -0.000001   0.000526   0.408644
    15  C    0.000000   0.000000   0.000000   0.000000  -0.000043  -0.043949
    16  Cl   0.000000   0.000000   0.000000   0.000000   0.000004   0.001327
    17  H   -0.021744   0.000000   0.000000   0.000000   0.000000   0.000000
    18  H   -0.033645   0.000000   0.000000   0.000000   0.000000   0.000000
    19  H    0.500854   0.000000   0.000000   0.000000  -0.000001   0.000000
    20  H    0.000000   0.497138  -0.031654  -0.023282   0.000000   0.000000
    21  H    0.000000  -0.031654   0.497524  -0.023274   0.000000   0.000000
    22  H    0.000000  -0.023282  -0.023274   0.443262   0.000000   0.000000
    23  H   -0.000001   0.000000   0.000000   0.000000   0.415628   0.001379
    24  H    0.000000   0.000000   0.000000   0.000000   0.001379   0.484722
    25  H    0.000000   0.000000   0.000000   0.000000  -0.000056  -0.020991
    26  H    0.000000   0.000000   0.000000   0.000000  -0.000001   0.003041
    27  H    0.000000   0.000000   0.000000   0.000000   0.000029  -0.001891
              25         26         27
     1  C    0.000000   0.000000   0.000000
     2  N   -0.000003   0.000001   0.000000
     3  C   -0.000129   0.000012  -0.000119
     4  C   -0.001806  -0.000993  -0.000230
     5  C    0.000635  -0.000102   0.000050
     6  O    0.002917   0.011085   0.000109
     7  N    0.000016   0.000056   0.000001
     8  C   -0.000001   0.000000   0.000000
     9  O    0.000000   0.000000   0.000000
    10  C    0.000001   0.000003   0.000000
    11  N   -0.036721  -0.000528   0.001690
    12  C    0.000973   0.000056   0.001013
    13  N   -0.000082   0.000004  -0.000041
    14  C    0.403899  -0.029752  -0.037571
    15  C   -0.045126   0.372808   0.375550
    16  Cl   0.002634  -0.038614  -0.043130
    17  H    0.000000   0.000000   0.000000
    18  H    0.000000   0.000000   0.000000
    19  H    0.000000   0.000000   0.000000
    20  H    0.000000   0.000000   0.000000
    21  H    0.000000   0.000000   0.000000
    22  H    0.000000   0.000000   0.000000
    23  H   -0.000056  -0.000001   0.000029
    24  H   -0.020991   0.003041  -0.001891
    25  H    0.447460  -0.002678   0.003408
    26  H   -0.002678   0.433368  -0.022144
    27  H    0.003408  -0.022144   0.502764
 Mulliken charges:
               1
     1  C   -0.299874
     2  N   -0.880808
     3  C    0.639314
     4  C    0.115566
     5  C    0.917784
     6  O   -0.655404
     7  N   -0.875621
     8  C    1.112685
     9  O   -0.637357
    10  C   -0.292977
    11  N   -0.724878
    12  C    0.326902
    13  N   -0.596624
    14  C   -0.115430
    15  C   -0.410118
    16  Cl  -0.094963
    17  H    0.244267
    18  H    0.197422
    19  H    0.197953
    20  H    0.199169
    21  H    0.198864
    22  H    0.236230
    23  H    0.247924
    24  H    0.209430
    25  H    0.245650
    26  H    0.274379
    27  H    0.220513
 Sum of Mulliken charges =   0.00000
 Mulliken charges with hydrogens summed into heavy atoms:
               1
     1  C    0.339768
     2  N   -0.880808
     3  C    0.639314
     4  C    0.115566
     5  C    0.917784
     6  O   -0.655404
     7  N   -0.875621
     8  C    1.112685
     9  O   -0.637357
    10  C    0.341286
    11  N   -0.724878
    12  C    0.574826
    13  N   -0.596624
    14  C    0.339650
    15  C    0.084774
    16  Cl  -0.094963
 DipInt: DoE/N= T F RetVal/Mat= T F Init=T NMatP=  1 IDeriv=0 Min/MaxMlt=  0  4
 Entering OneElI...
 OneElI was handed   235746076 working-precision words.
 Multipole integrals L=0 to 4 MinM= 0 MaxM= 0.
 Requested accuracy = 0.1000D-12
 ShPair: Thresh= 1.00D-13 NBox=     0 BxSize= 0.00D+00 RnKept= 1.76D+01
         NSMCal=                 3828 NSMKep=                3269
 PrsmSu:  NPrtUS=   1 ThrOK=F IAlg=1 NPAlg=1 LenDen=           0.
 Prism:   IPart=     0 DynPar=F LinDyn=F Incr=          32.
 PRISM was handed   235445853 working-precision words and  3269 shell-pairs
 IPart=  0 NShTot=        3269 NBatch=         107 AvBLen=        30.6
 PrSmSu:  NxtVal=             33.
 Electronic moments (au):
       -126.00000000          0.28598301         -1.29188299         -0.05198456
      -3322.99859886      -1124.79155744       -149.49382164         -4.12332808
         -0.17640129          0.90844643      -6073.02166170       -115.61298163
         -7.88192242       1974.90056820      -1227.10217706      -1441.13575222
       -145.51877588         17.24433125        174.77217742       -293.48977560
    -186455.26027851     -24460.66903105       -714.89034305     -10634.12110330
      -4165.20542837       3399.63329461        338.28291374         41.70012476
         46.72112936     -17384.14435828      -4178.94106081      -1310.35674824
       -479.24340053        676.74400988        -20.33456843
 Electronic spatial extent (au):  <R**2>=           4597.2840
 DipInt: DoE/N= F T RetVal/Mat= T F Init=T NMatP=  1 IDeriv=0 Min/MaxMlt=  0  4
 Nuclear    moments (au):
        126.00000000          0.00000000          0.00000000          0.00000000
       3235.10235939       1050.37716986         76.31257643          0.00000000
         -0.00003950         -0.00003382       6057.62353114        139.93585998
          9.90227105      -1976.56073861       1157.44301232       1424.53699457
        147.55874081        -12.53016658       -174.30684753        303.62451549
     173541.19314171      20597.76617736        213.37133704      10940.55608050
       4100.31653414      -3686.28523174       -304.86921852        -48.03912217
        -57.17023517      14967.70655515       2223.90403520        576.94102807
        431.74493361       -688.19607408          8.10390499
 Total      moments (au):
          0.00000000          0.28598301         -1.29188299         -0.05198456
        -87.89623947        -74.41438757        -73.18124521         -4.12332808
         -0.17644079          0.90841261        -15.39813056         24.32287835
          2.02034863         -1.66017042        -69.65916474        -16.59875766
          2.03996493          4.71416467          0.46532989         10.13473989
     -12914.06713681      -3862.90285369       -501.51900601        306.43497719
        -64.88889423       -286.65193713         33.41369522         -6.33899741
        -10.44910580      -2416.43780314      -1955.03702560       -733.41572017
        -47.49846693        -11.45206420        -12.23066344
 Traceless Quadrup. (au):
         -9.39894872          4.08290318          5.31604554         -4.12332808
         -0.17644079          0.90841261
 Charge=              0.0000 electrons
 Dipole moment (field-independent basis, Debye):
    X=              0.7269    Y=             -3.2836    Z=             -0.1321  Tot=              3.3657
 Quadrupole moment (field-independent basis, Debye-Ang):
   XX=           -118.2234   YY=           -100.0899   ZZ=            -98.4313
   XY=             -5.5460   XZ=             -0.2373   YZ=              1.2218
 Traceless Quadrupole moment (field-independent basis, Debye-Ang):
   XX=            -12.6419   YY=              5.4916   ZZ=              7.1503
   XY=             -5.5460   XZ=             -0.2373   YZ=              1.2218
 Octapole moment (field-independent basis, Debye-Ang**2):
  XXX=            -10.9598  YYY=             17.3121  ZZZ=              1.4380  XYY=             -1.1816
  XXY=            -49.5807  XXZ=            -11.8144  XZZ=              1.4520  YZZ=              3.3554
  YYZ=              0.3312  XYZ=              7.2135
 Hexadecapole moment (field-independent basis, Debye-Ang**3):
 XXXX=          -4864.0566 YYYY=          -1454.9544 ZZZZ=           -188.8961 XXXY=            115.4181
 XXXZ=            -24.4403 YYYX=           -107.9669 YYYZ=             12.5852 ZZZX=             -2.3876
 ZZZY=             -3.9356 XXYY=           -910.1463 XXZZ=           -736.3606 YYZZ=           -276.2395
 XXYZ=            -17.8902 YYXZ=             -4.3134 ZZXY=             -4.6067
 N-N= 1.229591403504D+03 E-N=-5.226065876599D+03  KE= 1.173232910943D+03
 Entering OneElI...
 OneElI was handed   235788918 working-precision words.
 Calculate electrostatic properties
    NBasis =   250  MinDer = 0  MaxDer = 0
    NGrid  =    27  NMatD  =   1
 Requested accuracy = 0.1000D-12
 PrtBox:  NBox=     1 Levels=  1 BoxLen=   32.45 SMaxX=       17.26
          Shift=            8.321192            6.009495            2.744103
 Box      1 Number                   0 centers from      1 to     87:
 ShPair: Thresh= 1.00D-13 NBox=     1 BxSize= 3.24D+01 RnKept= 1.76D+01
         NSMCal=                 3828 NSMKep=                2938
 PrsmSu:  NPrtUS=   1 ThrOK=F IAlg=1 NPAlg=1 LenDen=           0.
 Prism:   IPart=     0 DynPar=F LinDyn=F Incr=         512.
 PRISM was handed   235517274 working-precision words and  2938 shell-pairs
 IPart=  0 NShTot=       79326 NBatch=        3045 AvBLen=        26.1
 PrSmSu:  NxtVal=            513.
 --------------------------------------------------------
       Center         ----      EFG at Nuclei      ----
                      3XX-RR        3YY-RR        3ZZ-RR
 --------------------------------------------------------
     1   Atom       -0.087824     -0.057924      0.145749
     2   Atom       -0.448520     -0.514072      0.962592
     3   Atom        0.074924      0.211912     -0.286835
     4   Atom       -0.172231      0.033777      0.138454
     5   Atom        0.113632      0.368846     -0.482478
     6   Atom        0.155871      0.368467     -0.524339
     7   Atom       -0.473597     -0.409545      0.883142
     8   Atom        0.299375      0.108932     -0.408307
     9   Atom       -0.817270      1.256352     -0.439083
    10   Atom        0.187786     -0.347063      0.159277
    11   Atom       -0.299900     -0.315115      0.615014
    12   Atom        0.237779      0.058999     -0.296779
    13   Atom       -0.140955      0.416156     -0.275201
    14   Atom       -0.293715      0.157383      0.136332
    15   Atom       -0.397291      0.247043      0.150248
    16   Atom       -3.087562      1.504539      1.583023
    17   Atom       -0.190660      0.043674      0.146986
    18   Atom        0.142787     -0.010608     -0.132179
    19   Atom        0.122310      0.012056     -0.134366
    20   Atom       -0.032886      0.120477     -0.087590
    21   Atom        0.079264      0.108474     -0.187738
    22   Atom       -0.145941     -0.000977      0.146918
    23   Atom       -0.048047     -0.112833      0.160879
    24   Atom        0.004659     -0.129057      0.124398
    25   Atom        0.133367     -0.032742     -0.100625
    26   Atom        0.035646     -0.164601      0.128955
    27   Atom        0.139968     -0.019646     -0.120322
 --------------------------------------------------------
                        XY            XZ            YZ
 --------------------------------------------------------
     1   Atom       -0.302630      0.050464      0.056753
     2   Atom        0.070573      0.216829      0.063120
     3   Atom        0.088840     -0.062827     -0.038453
     4   Atom        0.140627      0.041204     -0.015933
     5   Atom        0.078810     -0.092126     -0.043786
     6   Atom       -1.324916     -0.064631      0.155657
     7   Atom       -0.057725      0.212880      0.069143
     8   Atom       -0.089164     -0.103742     -0.012336
     9   Atom        0.801305      0.016423     -0.201181
    10   Atom        0.152335     -0.011060     -0.000293
    11   Atom        0.020725      0.143476      0.036574
    12   Atom       -0.122026     -0.083414      0.008447
    13   Atom        0.607937     -0.049651     -0.125609
    14   Atom       -0.165578      0.077446     -0.028558
    15   Atom       -0.200088      0.090626      0.005973
    16   Atom       -1.207824      0.850995      0.182761
    17   Atom        0.172063      0.053930     -0.026460
    18   Atom       -0.029237     -0.016256     -0.209416
    19   Atom        0.038516     -0.077196      0.200199
    20   Atom        0.055759     -0.217977      0.051999
    21   Atom        0.052663      0.165937     -0.089560
    22   Atom       -0.194282      0.051561      0.034553
    23   Atom        0.220299      0.026453     -0.025308
    24   Atom        0.180959      0.064661     -0.094188
    25   Atom       -0.002801     -0.007316      0.214725
    26   Atom        0.167974      0.045596     -0.082564
    27   Atom       -0.010150      0.002736      0.214517
 --------------------------------------------------------


 ---------------------------------------------------------------------------------
              Nuclear Quadrupole Coupling Constant in Principal Axis System
 ---------------------------------------------------------------------------------

       Atom             a.u.   MegaHertz   Gauss  10(-4) cm-1        Axes

              Baa    -0.5624     2.701     0.964     0.901 -0.5950  0.8021  0.0514
     2 N(14)  Bbb    -0.4363     2.095     0.748     0.699  0.7895  0.5953 -0.1492
              Bcc     0.9987    -4.796    -1.711    -1.600  0.1503  0.0482  0.9875
 
              Baa    -0.5414     2.600     0.928     0.867  0.8734  0.4624 -0.1530
     7 N(14)  Bbb    -0.3770     1.811     0.646     0.604 -0.4636  0.8855  0.0297
              Bcc     0.9184    -4.411    -1.574    -1.471  0.1492  0.0449  0.9878
 
              Baa    -0.3345     1.606     0.573     0.536  0.7598 -0.6439 -0.0900
    11 N(14)  Bbb    -0.3041     1.461     0.521     0.487  0.6321  0.7640 -0.1291
              Bcc     0.6386    -3.067    -1.094    -1.023  0.1519  0.0412  0.9875
 
              Baa    -0.5339     2.564     0.915     0.855  0.8312 -0.5459 -0.1055
    13 N(14)  Bbb    -0.2884     1.385     0.494     0.462  0.1538  0.0433  0.9872
              Bcc     0.8223    -3.949    -1.409    -1.317  0.5343  0.8368 -0.1199
 
              Baa    -3.5338   -67.795   -24.191   -22.614  0.9573  0.2356 -0.1676
    16 Cl(35) Bbb     1.7224    33.044    11.791    11.022  0.0806  0.3393  0.9372
              Bcc     1.8114    34.752    12.400    11.592 -0.2777  0.9107 -0.3058
 

 ---------------------------------------------------------------------------------

 No NMR shielding tensors so no spin-rotation constants.
 Leave Link  601 at Thu Jan 16 21:50:47 2014, MaxMem=   235929600 cpu:         0.4
 FitSet:  NAtFit=    27 NAtPot=    27 NAtFrz=     0 MDM=    31 TotChg=   0.00000
 Merz-Kollman atomic radii used.
 Atom Element Radius
    1     6    1.50
    2     7    1.50
    3     6    1.50
    4     6    1.50
    5     6    1.50
    6     8    1.40
    7     7    1.50
    8     6    1.50
    9     8    1.40
   10     6    1.50
   11     7    1.50
   12     6    1.50
   13     7    1.50
   14     6    1.50
   15     6    1.50
   16    17    1.70
   17     1    1.20
   18     1    1.20
   19     1    1.20
   20     1    1.20
   21     1    1.20
   22     1    1.20
   23     1    1.20
   24     1    1.20
   25     1    1.20
   26     1    1.20
   27     1    1.20
 Generate VDW surfaces: Layer= 5 Dens= 2 Start= 1.400 Inc= 0.179

 **********************************************************************

            Electrostatic Properties Using The SCF Density

 **********************************************************************

       Atomic Center    1 is at  -3.468311 -1.826704  0.354455
       Atomic Center    2 is at  -2.417139 -0.830525  0.150134
       Atomic Center    3 is at  -1.113343 -1.220264 -0.034922
       Atomic Center    4 is at  -0.100278 -0.303468 -0.235109
       Atomic Center    5 is at  -0.311214  1.113264 -0.260598
       Atomic Center    6 is at   0.553600  1.974426 -0.416385
       Atomic Center    7 is at  -1.677114  1.430764 -0.071812
       Atomic Center    8 is at  -2.740564  0.527454  0.129858
       Atomic Center    9 is at  -3.883841  0.930832  0.280889
       Atomic Center   10 is at  -2.061409  2.847001 -0.077670
       Atomic Center   11 is at   1.051737 -1.066550 -0.389026
       Atomic Center   12 is at   0.650950 -2.360121 -0.265311
       Atomic Center   13 is at  -0.652141 -2.500639 -0.051832
       Atomic Center   14 is at   2.411411 -0.585696 -0.628119
       Atomic Center   15 is at   2.996011  0.076740  0.620054
       Atomic Center   16 is at   4.727672  0.508502  0.319493
       Atomic Center   17 is at  -4.403385 -1.288838  0.497425
       Atomic Center   18 is at  -3.537696 -2.482925 -0.517741
       Atomic Center   19 is at  -3.239360 -2.434290  1.234149
       Atomic Center   20 is at  -2.780054  3.034625 -0.878793
       Atomic Center   21 is at  -2.529087  3.109800  0.873923
       Atomic Center   22 is at  -1.154753  3.428298 -0.232669
       Atomic Center   23 is at   1.352347 -3.180088 -0.349010
       Atomic Center   24 is at   3.015589 -1.447312 -0.923388
       Atomic Center   25 is at   2.394774  0.130633 -1.452117
       Atomic Center   26 is at   2.463206  1.000567  0.844532
       Atomic Center   27 is at   2.973013 -0.597666  1.478191
      ESP Fit Center   28 is at  -3.827432 -1.204688  2.327810
      ESP Fit Center   29 is at  -3.660415 -0.490589  1.963148
      ESP Fit Center   30 is at  -4.763486 -2.207002  1.963148
      ESP Fit Center   31 is at  -4.939633 -2.895682  1.404455
      ESP Fit Center   32 is at  -5.226642 -2.915416  0.719116
      ESP Fit Center   33 is at  -4.714618 -3.477080  0.719116
      ESP Fit Center   34 is at  -5.226642 -2.915416 -0.010206
      ESP Fit Center   35 is at  -5.247222 -2.204823 -0.695545
      ESP Fit Center   36 is at  -4.352277 -0.806552 -1.254238
      ESP Fit Center   37 is at  -4.763486 -1.446406 -1.254238
      ESP Fit Center   38 is at  -3.827432 -1.204688 -1.618899
      ESP Fit Center   39 is at  -2.417139 -0.830525  2.250134
      ESP Fit Center   40 is at  -1.698897 -0.830525  2.123489
      ESP Fit Center   41 is at  -2.058018 -0.208509  2.123489
      ESP Fit Center   42 is at  -2.776260 -0.208509  2.123489
      ESP Fit Center   43 is at  -2.058018 -1.452541  2.123489
      ESP Fit Center   44 is at  -1.281570 -0.100739  1.758827
      ESP Fit Center   45 is at  -3.712314 -0.450227 -1.458559
      ESP Fit Center   46 is at  -2.058018 -0.208509 -1.823220
      ESP Fit Center   47 is at  -3.135381 -0.830525 -1.823220
      ESP Fit Center   48 is at  -2.776260 -1.452541 -1.823220
      ESP Fit Center   49 is at  -2.417139 -0.830525 -1.949866
      ESP Fit Center   50 is at  -1.113343 -1.220264  2.065078
      ESP Fit Center   51 is at  -0.395101 -1.220264  1.938433
      ESP Fit Center   52 is at  -0.754222 -0.598248  1.938433
      ESP Fit Center   53 is at  -1.472464 -1.842280  1.938433
      ESP Fit Center   54 is at  -1.997309 -2.240415 -1.643615
      ESP Fit Center   55 is at  -1.472464 -0.598248 -2.008276
      ESP Fit Center   56 is at  -1.831585 -1.220264 -2.008276
      ESP Fit Center   57 is at  -1.472464 -1.842280 -2.008276
      ESP Fit Center   58 is at  -1.113343 -1.220264 -2.134922
      ESP Fit Center   59 is at  -0.100278 -0.303468  1.864891
      ESP Fit Center   60 is at   0.617964 -0.303468  1.738246
      ESP Fit Center   61 is at   0.258843  0.318548  1.738246
      ESP Fit Center   62 is at  -0.459399  0.318548  1.738246
      ESP Fit Center   63 is at   0.258843 -0.925484  1.738246
      ESP Fit Center   64 is at  -1.395453  0.076830 -1.843802
      ESP Fit Center   65 is at   0.258843  0.318548 -2.208463
      ESP Fit Center   66 is at  -0.459399  0.318548 -2.208463
      ESP Fit Center   67 is at  -0.818520 -0.303468 -2.208463
      ESP Fit Center   68 is at  -0.459399 -0.925484 -2.208463
      ESP Fit Center   69 is at  -0.100278 -0.303468 -2.335109
      ESP Fit Center   70 is at  -0.311214  1.113264  1.839402
      ESP Fit Center   71 is at   0.407028  1.113264  1.712757
      ESP Fit Center   72 is at   0.047907  1.735280  1.712757
      ESP Fit Center   73 is at  -0.670335  0.491248  1.712757
      ESP Fit Center   74 is at   0.047907  0.491248  1.712757
      ESP Fit Center   75 is at  -0.503318  2.449379  1.348095
      ESP Fit Center   76 is at   0.407028  1.113264 -2.233952
      ESP Fit Center   77 is at  -0.670335  1.735280 -2.233952
      ESP Fit Center   78 is at  -1.029456  1.113264 -2.233952
      ESP Fit Center   79 is at  -0.670335  0.491248 -2.233952
      ESP Fit Center   80 is at   0.047907  0.491248 -2.233952
      ESP Fit Center   81 is at  -0.311214  1.113264 -2.360598
      ESP Fit Center   82 is at   0.553600  1.974426  1.543615
      ESP Fit Center   83 is at   0.928630  2.623997  1.394419
      ESP Fit Center   84 is at   0.178570  2.623997  1.394419
      ESP Fit Center   85 is at   1.753850  2.667391  0.969544
      ESP Fit Center   86 is at   1.246565  3.174676  0.969544
      ESP Fit Center   87 is at   0.553600  3.360355  0.969544
      ESP Fit Center   88 is at   2.207852  2.710946  0.333675
      ESP Fit Center   89 is at   1.765264  3.320116  0.333675
      ESP Fit Center   90 is at   1.113169  3.696603  0.333675
      ESP Fit Center   91 is at   2.381245  2.682460 -0.416385
      ESP Fit Center   92 is at   2.002057  3.294870 -0.416385
      ESP Fit Center   93 is at   1.427247  3.728946 -0.416385
      ESP Fit Center   94 is at   0.734446  3.926065 -0.416385
      ESP Fit Center   95 is at   2.364404  1.974426 -1.166444
      ESP Fit Center   96 is at   2.207852  2.710946 -1.166444
      ESP Fit Center   97 is at   1.765264  3.320116 -1.166444
      ESP Fit Center   98 is at   1.113169  3.696603 -1.166444
      ESP Fit Center   99 is at   0.364319  3.775310 -1.166444
      ESP Fit Center  100 is at   1.939529  1.974426 -1.802314
      ESP Fit Center  101 is at   1.753850  2.667391 -1.802314
      ESP Fit Center  102 is at   1.246565  3.174676 -1.802314
      ESP Fit Center  103 is at   0.553600  3.360355 -1.802314
      ESP Fit Center  104 is at  -0.139365  3.174676 -1.802314
      ESP Fit Center  105 is at  -0.646650  2.667391 -1.802314
      ESP Fit Center  106 is at   1.303659  1.974426 -2.227189
      ESP Fit Center  107 is at   0.928630  2.623997 -2.227189
      ESP Fit Center  108 is at   0.178570  2.623997 -2.227189
      ESP Fit Center  109 is at  -0.196460  1.974426 -2.227189
      ESP Fit Center  110 is at   0.928630  1.324855 -2.227189
      ESP Fit Center  111 is at   0.553600  1.974426 -2.376385
      ESP Fit Center  112 is at  -1.677114  1.430764  2.028188
      ESP Fit Center  113 is at  -0.958872  1.430764  1.901543
      ESP Fit Center  114 is at  -1.317993  2.052780  1.901543
      ESP Fit Center  115 is at  -1.317993  0.808748  1.901543
      ESP Fit Center  116 is at  -1.116364  0.202894  1.536881
      ESP Fit Center  117 is at  -1.317993  2.052780 -2.045166
      ESP Fit Center  118 is at  -2.036235  2.052780 -2.045166
      ESP Fit Center  119 is at  -2.395356  1.430764 -2.045166
      ESP Fit Center  120 is at  -2.036235  0.808748 -2.045166
      ESP Fit Center  121 is at  -1.677114  1.430764 -2.171812
      ESP Fit Center  122 is at  -2.740564  0.527454  2.229858
      ESP Fit Center  123 is at  -2.022322  0.527454  2.103213
      ESP Fit Center  124 is at  -2.381443  1.149470  2.103213
      ESP Fit Center  125 is at  -3.099685  1.149470  2.103213
      ESP Fit Center  126 is at  -3.099685 -0.094562  2.103213
      ESP Fit Center  127 is at  -3.099685  1.149470 -1.843496
      ESP Fit Center  128 is at  -3.458806  0.527454 -1.843496
      ESP Fit Center  129 is at  -3.099685 -0.094562 -1.843496
      ESP Fit Center  130 is at  -2.381443 -0.094562 -1.843496
      ESP Fit Center  131 is at  -2.740564  0.527454 -1.970142
      ESP Fit Center  132 is at  -3.883841  0.930832  2.240889
      ESP Fit Center  133 is at  -3.508811  1.580403  2.091693
      ESP Fit Center  134 is at  -4.258871  1.580403  2.091693
      ESP Fit Center  135 is at  -4.633901  0.930832  2.091693
      ESP Fit Center  136 is at  -4.258871  0.281261  2.091693
      ESP Fit Center  137 is at  -3.508811  0.281261  2.091693
      ESP Fit Center  138 is at  -3.883841  2.316761  1.666818
      ESP Fit Center  139 is at  -4.576806  2.131082  1.666818
      ESP Fit Center  140 is at  -5.084091  1.623797  1.666818
      ESP Fit Center  141 is at  -5.269770  0.930832  1.666818
      ESP Fit Center  142 is at  -5.084091  0.237867  1.666818
      ESP Fit Center  143 is at  -4.789243  2.499034  1.030949
      ESP Fit Center  144 is at  -5.348812  1.995196  1.030949
      ESP Fit Center  145 is at  -5.655075  1.307319  1.030949
      ESP Fit Center  146 is at  -5.655075  0.554345  1.030949
      ESP Fit Center  147 is at  -4.420221  2.816010  0.280889
      ESP Fit Center  148 is at  -5.065005  2.494946  0.280889
      ESP Fit Center  149 is at  -5.550267  1.962639  0.280889
      ESP Fit Center  150 is at  -5.810468  1.290981  0.280889
      ESP Fit Center  151 is at  -5.810468  0.570683  0.280889
      ESP Fit Center  152 is at  -4.789243  2.499034 -0.469170
      ESP Fit Center  153 is at  -5.348812  1.995196 -0.469170
      ESP Fit Center  154 is at  -5.655075  1.307319 -0.469170
      ESP Fit Center  155 is at  -5.655075  0.554345 -0.469170
      ESP Fit Center  156 is at  -5.348812 -0.133532 -0.469170
      ESP Fit Center  157 is at  -4.576806  2.131082 -1.105040
      ESP Fit Center  158 is at  -5.084091  1.623797 -1.105040
      ESP Fit Center  159 is at  -5.269770  0.930832 -1.105040
      ESP Fit Center  160 is at  -5.084091  0.237867 -1.105040
      ESP Fit Center  161 is at  -4.576806 -0.269418 -1.105040
      ESP Fit Center  162 is at  -3.508811  1.580403 -1.529915
      ESP Fit Center  163 is at  -4.258871  1.580403 -1.529915
      ESP Fit Center  164 is at  -4.633901  0.930832 -1.529915
      ESP Fit Center  165 is at  -4.258871  0.281261 -1.529915
      ESP Fit Center  166 is at  -3.883841  0.930832 -1.679111
      ESP Fit Center  167 is at  -0.711555  2.847001  1.531023
      ESP Fit Center  168 is at  -0.925840  3.576787  1.531023
      ESP Fit Center  169 is at  -1.499414  4.576643  0.972330
      ESP Fit Center  170 is at  -1.870589  4.906275  0.286991
      ESP Fit Center  171 is at  -2.627370  4.836149  0.286991
      ESP Fit Center  172 is at  -3.307716  4.497378  0.286991
      ESP Fit Center  173 is at  -2.627370  4.836149 -0.442331
      ESP Fit Center  174 is at  -2.251510  4.655692 -1.127670
      ESP Fit Center  175 is at  -1.343167  2.847001 -2.051024
      ESP Fit Center  176 is at  -1.702288  2.224985 -2.051024
      ESP Fit Center  177 is at   1.051737 -1.066550  1.710974
      ESP Fit Center  178 is at   1.410858 -1.688566  1.584329
      ESP Fit Center  179 is at  -0.243438 -1.446848 -1.997719
      ESP Fit Center  180 is at   0.692616 -0.444534 -2.362380
      ESP Fit Center  181 is at   0.333495 -1.066550 -2.362380
      ESP Fit Center  182 is at   0.692616 -1.688566 -2.362380
      ESP Fit Center  183 is at   1.410858 -1.688566 -2.362380
      ESP Fit Center  184 is at   1.051737 -1.066550 -2.489026
      ESP Fit Center  185 is at   0.650950 -2.360121  1.834689
      ESP Fit Center  186 is at   1.369192 -2.360121  1.708044
      ESP Fit Center  187 is at   1.010071 -1.738105  1.708044
      ESP Fit Center  188 is at   0.291829 -1.738105  1.708044
      ESP Fit Center  189 is at   1.010071 -2.982137  1.708044
      ESP Fit Center  190 is at   2.000804 -2.360121  1.343382
      ESP Fit Center  191 is at   0.458846 -3.696235  1.343382
      ESP Fit Center  192 is at   1.211700 -3.587991  1.343382
      ESP Fit Center  193 is at   1.786519 -3.089907  1.343382
      ESP Fit Center  194 is at   2.469603 -2.360121  0.784689
      ESP Fit Center  195 is at   0.460849 -4.168811  0.784689
      ESP Fit Center  196 is at   0.458846 -3.696235 -1.874004
      ESP Fit Center  197 is at   1.369192 -2.360121 -2.238665
      ESP Fit Center  198 is at   0.291829 -1.738105 -2.238665
      ESP Fit Center  199 is at  -0.067292 -2.360121 -2.238665
      ESP Fit Center  200 is at   0.291829 -2.982137 -2.238665
      ESP Fit Center  201 is at   1.010071 -2.982137 -2.238665
      ESP Fit Center  202 is at   0.650950 -2.360121 -2.365311
      ESP Fit Center  203 is at  -0.652141 -2.500639  2.048168
      ESP Fit Center  204 is at   0.066101 -2.500639  1.921523
      ESP Fit Center  205 is at  -0.293020 -1.878623  1.921523
      ESP Fit Center  206 is at  -1.370383 -2.500639  1.921523
      ESP Fit Center  207 is at  -1.011262 -3.122655  1.921523
      ESP Fit Center  208 is at  -0.293020 -3.122655  1.921523
      ESP Fit Center  209 is at  -1.536107 -3.520790  1.556861
      ESP Fit Center  210 is at  -0.844245 -3.836753  1.556861
      ESP Fit Center  211 is at  -0.091391 -3.728509  1.556861
      ESP Fit Center  212 is at  -1.561468 -4.075639  0.998168
      ESP Fit Center  213 is at  -0.842242 -4.309329  0.998168
      ESP Fit Center  214 is at  -0.090146 -4.230281  0.998168
      ESP Fit Center  215 is at  -1.898448 -4.151015  0.312829
      ESP Fit Center  216 is at  -1.218102 -4.489787  0.312829
      ESP Fit Center  217 is at  -0.461321 -4.559913  0.312829
      ESP Fit Center  218 is at   0.269689 -4.351923  0.312829
      ESP Fit Center  219 is at  -1.898448 -4.151015 -0.416493
      ESP Fit Center  220 is at  -1.218102 -4.489787 -0.416493
      ESP Fit Center  221 is at  -0.461321 -4.559913 -0.416493
      ESP Fit Center  222 is at  -2.123463 -3.569617 -1.101832
      ESP Fit Center  223 is at  -1.561468 -4.075639 -1.101832
      ESP Fit Center  224 is at  -0.842242 -4.309329 -1.101832
      ESP Fit Center  225 is at  -0.090146 -4.230281 -1.101832
      ESP Fit Center  226 is at  -1.947316 -2.880937 -1.660525
      ESP Fit Center  227 is at  -1.536107 -3.520790 -1.660525
      ESP Fit Center  228 is at  -0.844245 -3.836753 -1.660525
      ESP Fit Center  229 is at  -1.370383 -2.500639 -2.025186
      ESP Fit Center  230 is at  -1.011262 -3.122655 -2.025186
      ESP Fit Center  231 is at  -0.293020 -3.122655 -2.025186
      ESP Fit Center  232 is at  -0.652141 -2.500639 -2.151832
      ESP Fit Center  233 is at   3.761265 -0.585696 -2.236812
      ESP Fit Center  234 is at   2.052290 -1.207712 -2.601473
      ESP Fit Center  235 is at   2.770532 -1.207712 -2.601473
      ESP Fit Center  236 is at   3.355132  0.698756  2.593409
      ESP Fit Center  237 is at   2.636890  0.698756  2.593409
      ESP Fit Center  238 is at   1.217100 -0.301379  1.670054
      ESP Fit Center  239 is at   4.727672  0.508502  2.699493
      ESP Fit Center  240 is at   5.463132  0.508502  2.583008
      ESP Fit Center  241 is at   5.095402  1.145430  2.583008
      ESP Fit Center  242 is at   4.359942  1.145430  2.583008
      ESP Fit Center  243 is at   3.992211  0.508502  2.583008
      ESP Fit Center  244 is at   4.359942 -0.128425  2.583008
      ESP Fit Center  245 is at   5.095402 -0.128425  2.583008
      ESP Fit Center  246 is at   6.126601  0.508502  2.244954
      ESP Fit Center  247 is at   5.939180  1.207967  2.244954
      ESP Fit Center  248 is at   5.427136  1.720010  2.244954
      ESP Fit Center  249 is at   4.727672  1.907431  2.244954
      ESP Fit Center  250 is at   4.028207  1.720010  2.244954
      ESP Fit Center  251 is at   4.727672 -0.890427  2.244954
      ESP Fit Center  252 is at   5.427136 -0.703006  2.244954
      ESP Fit Center  253 is at   5.939180 -0.190962  2.244954
      ESP Fit Center  254 is at   6.653132  0.508502  1.718422
      ESP Fit Center  255 is at   6.506565  1.245344  1.718422
      ESP Fit Center  256 is at   6.089178  1.870008  1.718422
      ESP Fit Center  257 is at   5.464514  2.287396  1.718422
      ESP Fit Center  258 is at   4.727672  2.433963  1.718422
      ESP Fit Center  259 is at   3.990830  2.287396  1.718422
      ESP Fit Center  260 is at   4.727672 -1.416958  1.718422
      ESP Fit Center  261 is at   5.464514 -1.270391  1.718422
      ESP Fit Center  262 is at   6.089178 -0.853004  1.718422
      ESP Fit Center  263 is at   6.506565 -0.228340  1.718422
      ESP Fit Center  264 is at   6.991186  0.508502  1.054954
      ESP Fit Center  265 is at   6.868543  1.243464  1.054954
      ESP Fit Center  266 is at   6.513903  1.898781  1.054954
      ESP Fit Center  267 is at   5.965697  2.403441  1.054954
      ESP Fit Center  268 is at   5.283332  2.702754  1.054954
      ESP Fit Center  269 is at   4.540752  2.764286  1.054954
      ESP Fit Center  270 is at   3.818429  2.581368  1.054954
      ESP Fit Center  271 is at   4.540752 -1.747281  1.054954
      ESP Fit Center  272 is at   5.283332 -1.685749  1.054954
      ESP Fit Center  273 is at   5.965697 -1.386436  1.054954
      ESP Fit Center  274 is at   6.513903 -0.881777  1.054954
      ESP Fit Center  275 is at   6.868543 -0.226460  1.054954
      ESP Fit Center  276 is at   7.107672  0.508502  0.319493
      ESP Fit Center  277 is at   7.001935  1.210019  0.319493
      ESP Fit Center  278 is at   6.694120  1.849204  0.319493
      ESP Fit Center  279 is at   6.211578  2.369261  0.319493
      ESP Fit Center  280 is at   5.597184  2.723982  0.319493
      ESP Fit Center  281 is at   4.905530  2.881847  0.319493
      ESP Fit Center  282 is at   4.198072  2.828831  0.319493
      ESP Fit Center  283 is at   3.537672  2.569643  0.319493
      ESP Fit Center  284 is at   4.198072 -1.811826  0.319493
      ESP Fit Center  285 is at   4.905530 -1.864843  0.319493
      ESP Fit Center  286 is at   5.597184 -1.706977  0.319493
      ESP Fit Center  287 is at   6.211578 -1.352257  0.319493
      ESP Fit Center  288 is at   6.694120 -0.832200  0.319493
      ESP Fit Center  289 is at   7.001935 -0.193015  0.319493
      ESP Fit Center  290 is at   6.991186  0.508502 -0.415967
      ESP Fit Center  291 is at   6.868543  1.243464 -0.415967
      ESP Fit Center  292 is at   6.513903  1.898781 -0.415967
      ESP Fit Center  293 is at   5.965697  2.403441 -0.415967
      ESP Fit Center  294 is at   5.283332  2.702754 -0.415967
      ESP Fit Center  295 is at   4.540752  2.764286 -0.415967
      ESP Fit Center  296 is at   3.818429  2.581368 -0.415967
      ESP Fit Center  297 is at   3.194635  2.173824 -0.415967
      ESP Fit Center  298 is at   5.283332 -1.685749 -0.415967
      ESP Fit Center  299 is at   5.965697 -1.386436 -0.415967
      ESP Fit Center  300 is at   6.513903 -0.881777 -0.415967
      ESP Fit Center  301 is at   6.868543 -0.226460 -0.415967
      ESP Fit Center  302 is at   6.653132  0.508502 -1.079436
      ESP Fit Center  303 is at   6.506565  1.245344 -1.079436
      ESP Fit Center  304 is at   6.089178  1.870008 -1.079436
      ESP Fit Center  305 is at   5.464514  2.287396 -1.079436
      ESP Fit Center  306 is at   4.727672  2.433963 -1.079436
      ESP Fit Center  307 is at   3.990830  2.287396 -1.079436
      ESP Fit Center  308 is at   3.366166  1.870008 -1.079436
      ESP Fit Center  309 is at   4.727672 -1.416958 -1.079436
      ESP Fit Center  310 is at   5.464514 -1.270391 -1.079436
      ESP Fit Center  311 is at   6.089178 -0.853004 -1.079436
      ESP Fit Center  312 is at   6.506565 -0.228340 -1.079436
      ESP Fit Center  313 is at   6.126601  0.508502 -1.605967
      ESP Fit Center  314 is at   5.939180  1.207967 -1.605967
      ESP Fit Center  315 is at   5.427136  1.720010 -1.605967
      ESP Fit Center  316 is at   4.727672  1.907431 -1.605967
      ESP Fit Center  317 is at   4.028207  1.720010 -1.605967
      ESP Fit Center  318 is at   4.727672 -0.890427 -1.605967
      ESP Fit Center  319 is at   5.427136 -0.703006 -1.605967
      ESP Fit Center  320 is at   5.939180 -0.190962 -1.605967
      ESP Fit Center  321 is at   5.463132  0.508502 -1.944021
      ESP Fit Center  322 is at   5.095402  1.145430 -1.944021
      ESP Fit Center  323 is at   4.359942  1.145430 -1.944021
      ESP Fit Center  324 is at   3.992211  0.508502 -1.944021
      ESP Fit Center  325 is at   4.359942 -0.128425 -1.944021
      ESP Fit Center  326 is at   5.095402 -0.128425 -1.944021
      ESP Fit Center  327 is at   4.727672  0.508502 -2.060507
      ESP Fit Center  328 is at  -4.403385 -1.288838  2.177425
      ESP Fit Center  329 is at  -4.038923 -0.657571  2.011053
      ESP Fit Center  330 is at  -4.767847 -0.657571  2.011053
      ESP Fit Center  331 is at  -5.132310 -1.288838  2.011053
      ESP Fit Center  332 is at  -4.767847 -1.920105  2.011053
      ESP Fit Center  333 is at  -5.466010 -0.516796  1.544888
      ESP Fit Center  334 is at  -5.716862 -1.288838  1.544888
      ESP Fit Center  335 is at  -5.466010 -2.060880  1.544888
      ESP Fit Center  336 is at  -5.629355 -0.202723  0.871260
      ESP Fit Center  337 is at  -5.993670 -0.896868  0.871260
      ESP Fit Center  338 is at  -5.993670 -1.680808  0.871260
      ESP Fit Center  339 is at  -5.629355 -2.374953  0.871260
      ESP Fit Center  340 is at  -5.629355 -0.202723  0.123590
      ESP Fit Center  341 is at  -5.993670 -0.896868  0.123590
      ESP Fit Center  342 is at  -5.993670 -1.680808  0.123590
      ESP Fit Center  343 is at  -5.629355 -2.374953  0.123590
      ESP Fit Center  344 is at  -5.466010 -0.516796 -0.550038
      ESP Fit Center  345 is at  -5.716862 -1.288838 -0.550038
      ESP Fit Center  346 is at  -5.466010 -2.060880 -0.550038
      ESP Fit Center  347 is at  -4.767847 -0.657571 -1.016203
      ESP Fit Center  348 is at  -5.132310 -1.288838 -1.016203
      ESP Fit Center  349 is at  -4.763666 -3.569040 -0.143906
      ESP Fit Center  350 is at  -4.118496 -4.014368 -0.143906
      ESP Fit Center  351 is at  -3.340272 -4.108862 -0.143906
      ESP Fit Center  352 is at  -2.607275 -3.830873 -0.143906
      ESP Fit Center  353 is at  -5.127981 -2.874895 -0.891576
      ESP Fit Center  354 is at  -4.763666 -3.569040 -0.891576
      ESP Fit Center  355 is at  -4.118496 -4.014368 -0.891576
      ESP Fit Center  356 is at  -3.340272 -4.108862 -0.891576
      ESP Fit Center  357 is at  -2.607275 -3.830873 -0.891576
      ESP Fit Center  358 is at  -2.224219 -2.482925 -1.565204
      ESP Fit Center  359 is at  -4.600321 -1.710883 -1.565204
      ESP Fit Center  360 is at  -4.851173 -2.482925 -1.565204
      ESP Fit Center  361 is at  -4.600321 -3.254967 -1.565204
      ESP Fit Center  362 is at  -3.943583 -3.732116 -1.565204
      ESP Fit Center  363 is at  -3.131809 -3.732116 -1.565204
      ESP Fit Center  364 is at  -2.475071 -3.254967 -1.565204
      ESP Fit Center  365 is at  -2.808771 -2.482925 -2.031369
      ESP Fit Center  366 is at  -3.173234 -1.851658 -2.031369
      ESP Fit Center  367 is at  -3.902158 -1.851658 -2.031369
      ESP Fit Center  368 is at  -4.266621 -2.482925 -2.031369
      ESP Fit Center  369 is at  -3.902158 -3.114192 -2.031369
      ESP Fit Center  370 is at  -3.173234 -3.114192 -2.031369
      ESP Fit Center  371 is at  -3.537696 -2.482925 -2.197741
      ESP Fit Center  372 is at  -3.239360 -2.434290  2.914149
      ESP Fit Center  373 is at  -2.510435 -2.434290  2.747777
      ESP Fit Center  374 is at  -2.874898 -1.803023  2.747777
      ESP Fit Center  375 is at  -3.603822 -1.803023  2.747777
      ESP Fit Center  376 is at  -3.968285 -2.434290  2.747777
      ESP Fit Center  377 is at  -3.603822 -3.065557  2.747777
      ESP Fit Center  378 is at  -2.874898 -3.065557  2.747777
      ESP Fit Center  379 is at  -1.925883 -2.434290  2.281612
      ESP Fit Center  380 is at  -2.176735 -1.662248  2.281612
      ESP Fit Center  381 is at  -2.833473 -1.185099  2.281612
      ESP Fit Center  382 is at  -4.301985 -1.662248  2.281612
      ESP Fit Center  383 is at  -4.552837 -2.434290  2.281612
      ESP Fit Center  384 is at  -4.301985 -3.206332  2.281612
      ESP Fit Center  385 is at  -3.645247 -3.683481  2.281612
      ESP Fit Center  386 is at  -2.833473 -3.683481  2.281612
      ESP Fit Center  387 is at  -2.176735 -3.206332  2.281612
      ESP Fit Center  388 is at  -4.829645 -2.826260  1.607984
      ESP Fit Center  389 is at  -4.465330 -3.520405  1.607984
      ESP Fit Center  390 is at  -3.820160 -3.965733  1.607984
      ESP Fit Center  391 is at  -3.041936 -4.060227  1.607984
      ESP Fit Center  392 is at  -2.308939 -3.782238  1.607984
      ESP Fit Center  393 is at  -1.789090 -3.195450  1.607984
      ESP Fit Center  394 is at  -3.820160 -3.965733  0.860314
      ESP Fit Center  395 is at  -3.041936 -4.060227  0.860314
      ESP Fit Center  396 is at  -2.308939 -3.782238  0.860314
      ESP Fit Center  397 is at  -3.360854  4.566068 -0.504958
      ESP Fit Center  398 is at  -4.006024  4.120740 -0.504958
      ESP Fit Center  399 is at  -4.370339  3.426595 -0.504958
      ESP Fit Center  400 is at  -2.582630  4.660562 -1.252628
      ESP Fit Center  401 is at  -3.360854  4.566068 -1.252628
      ESP Fit Center  402 is at  -4.006024  4.120740 -1.252628
      ESP Fit Center  403 is at  -4.370339  3.426595 -1.252628
      ESP Fit Center  404 is at  -4.370339  2.642655 -1.252628
      ESP Fit Center  405 is at  -1.717429  3.806667 -1.926256
      ESP Fit Center  406 is at  -2.374167  4.283816 -1.926256
      ESP Fit Center  407 is at  -3.185941  4.283816 -1.926256
      ESP Fit Center  408 is at  -3.842679  3.806667 -1.926256
      ESP Fit Center  409 is at  -4.093531  3.034625 -1.926256
      ESP Fit Center  410 is at  -3.842679  2.262583 -1.926256
      ESP Fit Center  411 is at  -3.185941  1.785434 -1.926256
      ESP Fit Center  412 is at  -2.051129  3.034625 -2.392421
      ESP Fit Center  413 is at  -2.415592  3.665892 -2.392421
      ESP Fit Center  414 is at  -3.144516  3.665892 -2.392421
      ESP Fit Center  415 is at  -3.508979  3.034625 -2.392421
      ESP Fit Center  416 is at  -3.144516  2.403358 -2.392421
      ESP Fit Center  417 is at  -2.415592  2.403358 -2.392421
      ESP Fit Center  418 is at  -2.780054  3.034625 -2.558793
      ESP Fit Center  419 is at  -2.529087  3.109800  2.553923
      ESP Fit Center  420 is at  -1.800162  3.109800  2.387551
      ESP Fit Center  421 is at  -2.164625  3.741067  2.387551
      ESP Fit Center  422 is at  -2.893549  3.741067  2.387551
      ESP Fit Center  423 is at  -3.258012  3.109800  2.387551
      ESP Fit Center  424 is at  -2.893549  2.478533  2.387551
      ESP Fit Center  425 is at  -2.164625  2.478533  2.387551
      ESP Fit Center  426 is at  -1.215610  3.109800  1.921386
      ESP Fit Center  427 is at  -1.466462  3.881842  1.921386
      ESP Fit Center  428 is at  -2.123200  4.358991  1.921386
      ESP Fit Center  429 is at  -2.934974  4.358991  1.921386
      ESP Fit Center  430 is at  -3.591712  3.881842  1.921386
      ESP Fit Center  431 is at  -3.842564  3.109800  1.921386
      ESP Fit Center  432 is at  -3.591712  2.337758  1.921386
      ESP Fit Center  433 is at  -2.934974  1.860609  1.921386
      ESP Fit Center  434 is at  -1.466462  2.337758  1.921386
      ESP Fit Center  435 is at  -1.598666  4.457748  1.247758
      ESP Fit Center  436 is at  -2.331663  4.735737  1.247758
      ESP Fit Center  437 is at  -3.109887  4.641243  1.247758
      ESP Fit Center  438 is at  -3.755057  4.195915  1.247758
      ESP Fit Center  439 is at  -4.119372  3.501770  1.247758
      ESP Fit Center  440 is at  -4.119372  2.717830  1.247758
      ESP Fit Center  441 is at  -3.109887  4.641243  0.500088
      ESP Fit Center  442 is at  -3.755057  4.195915  0.500088
      ESP Fit Center  443 is at  -4.119372  3.501770  0.500088
      ESP Fit Center  444 is at  -0.425828  3.428298  1.280959
      ESP Fit Center  445 is at  -0.790291  4.059565  1.280959
      ESP Fit Center  446 is at  -0.092128  4.200340  0.814794
      ESP Fit Center  447 is at  -0.748866  4.677489  0.814794
      ESP Fit Center  448 is at   0.295517  4.189458  0.141166
      ESP Fit Center  449 is at  -0.224332  4.776246  0.141166
      ESP Fit Center  450 is at  -0.957329  5.054235  0.141166
      ESP Fit Center  451 is at  -1.735553  4.959741  0.141166
      ESP Fit Center  452 is at   0.295517  4.189458 -0.606504
      ESP Fit Center  453 is at  -0.224332  4.776246 -0.606504
      ESP Fit Center  454 is at  -0.957329  5.054235 -0.606504
      ESP Fit Center  455 is at  -1.735553  4.959741 -0.606504
      ESP Fit Center  456 is at  -0.092128  4.200340 -1.280132
      ESP Fit Center  457 is at  -0.748866  4.677489 -1.280132
      ESP Fit Center  458 is at  -1.560640  4.677489 -1.280132
      ESP Fit Center  459 is at  -0.425828  3.428298 -1.746297
      ESP Fit Center  460 is at  -0.790291  4.059565 -1.746297
      ESP Fit Center  461 is at  -1.519215  4.059565 -1.746297
      ESP Fit Center  462 is at  -1.154753  3.428298 -1.912669
      ESP Fit Center  463 is at   2.081272 -3.180088  1.164618
      ESP Fit Center  464 is at   1.716809 -3.811355  1.164618
      ESP Fit Center  465 is at   2.665824 -3.180088  0.698453
      ESP Fit Center  466 is at   0.946460 -4.429279  0.698453
      ESP Fit Center  467 is at   1.758234 -4.429279  0.698453
      ESP Fit Center  468 is at   2.414972 -3.952130  0.698453
      ESP Fit Center  469 is at   2.990226 -3.180088  0.024825
      ESP Fit Center  470 is at   0.771547 -4.711531  0.024825
      ESP Fit Center  471 is at   1.549771 -4.806025  0.024825
      ESP Fit Center  472 is at   2.282768 -4.528036  0.024825
      ESP Fit Center  473 is at   2.802617 -3.941248  0.024825
      ESP Fit Center  474 is at   2.990226 -3.180088 -0.722845
      ESP Fit Center  475 is at   0.771547 -4.711531 -0.722845
      ESP Fit Center  476 is at   1.549771 -4.806025 -0.722845
      ESP Fit Center  477 is at   2.282768 -4.528036 -0.722845
      ESP Fit Center  478 is at   2.802617 -3.941248 -0.722845
      ESP Fit Center  479 is at   2.665824 -3.180088 -1.396473
      ESP Fit Center  480 is at   0.946460 -4.429279 -1.396473
      ESP Fit Center  481 is at   1.758234 -4.429279 -1.396473
      ESP Fit Center  482 is at   2.414972 -3.952130 -1.396473
      ESP Fit Center  483 is at   2.081272 -3.180088 -1.862638
      ESP Fit Center  484 is at   0.987885 -3.811355 -1.862638
      ESP Fit Center  485 is at   1.716809 -3.811355 -1.862638
      ESP Fit Center  486 is at   3.380051 -2.078579  0.590240
      ESP Fit Center  487 is at   3.421476 -2.696503  0.124075
      ESP Fit Center  488 is at   4.078214 -2.219354  0.124075
      ESP Fit Center  489 is at   3.213013 -3.073249 -0.549553
      ESP Fit Center  490 is at   3.946010 -2.795260 -0.549553
      ESP Fit Center  491 is at   4.465859 -2.208472 -0.549553
      ESP Fit Center  492 is at   4.653468 -1.447312 -1.297223
      ESP Fit Center  493 is at   3.213013 -3.073249 -1.297223
      ESP Fit Center  494 is at   3.946010 -2.795260 -1.297223
      ESP Fit Center  495 is at   4.465859 -2.208472 -1.297223
      ESP Fit Center  496 is at   4.329066 -1.447312 -1.970851
      ESP Fit Center  497 is at   4.078214 -0.675270 -1.970851
      ESP Fit Center  498 is at   1.952964 -2.219354 -1.970851
      ESP Fit Center  499 is at   2.609702 -2.696503 -1.970851
      ESP Fit Center  500 is at   3.421476 -2.696503 -1.970851
      ESP Fit Center  501 is at   4.078214 -2.219354 -1.970851
      ESP Fit Center  502 is at   3.744514 -1.447312 -2.437016
      ESP Fit Center  503 is at   2.651127 -2.078579 -2.437016
      ESP Fit Center  504 is at   3.380051 -2.078579 -2.437016
      ESP Fit Center  505 is at   3.015589 -1.447312 -2.603388
      ESP Fit Center  506 is at   2.592198  1.756570 -1.078282
      ESP Fit Center  507 is at   3.325195  1.478581 -1.825952
      ESP Fit Center  508 is at   2.592198  1.756570 -1.825952
      ESP Fit Center  509 is at   3.708251  0.130633 -2.499580
      ESP Fit Center  510 is at   3.457399  0.902675 -2.499580
      ESP Fit Center  511 is at   2.800661  1.379824 -2.499580
      ESP Fit Center  512 is at   1.988887  1.379824 -2.499580
      ESP Fit Center  513 is at   1.332149  0.902675 -2.499580
      ESP Fit Center  514 is at   1.081297  0.130633 -2.499580
      ESP Fit Center  515 is at   1.332149 -0.641409 -2.499580
      ESP Fit Center  516 is at   3.457399 -0.641409 -2.499580
      ESP Fit Center  517 is at   3.123699  0.130633 -2.965745
      ESP Fit Center  518 is at   2.759236  0.761900 -2.965745
      ESP Fit Center  519 is at   2.030312  0.761900 -2.965745
      ESP Fit Center  520 is at   1.665849  0.130633 -2.965745
      ESP Fit Center  521 is at   2.030312 -0.500634 -2.965745
      ESP Fit Center  522 is at   2.759236 -0.500634 -2.965745
      ESP Fit Center  523 is at   2.394774  0.130633 -3.132117
      ESP Fit Center  524 is at   2.463206  1.000567  2.524532
      ESP Fit Center  525 is at   2.827668  1.631834  2.358160
      ESP Fit Center  526 is at   2.098744  1.631834  2.358160
      ESP Fit Center  527 is at   1.734281  1.000567  2.358160
      ESP Fit Center  528 is at   2.869093  2.249758  1.891995
[...]
 2627 Fit      -0.017793
 2628 Fit      -0.020896
 2629 Fit      -0.020415
 2630 Fit      -0.018567
 2631 Fit      -0.019684
 2632 Fit      -0.020537
 2633 Fit      -0.020125
 2634 Fit      -0.018249
 2635 Fit      -0.014666
 2636 Fit      -0.018236
 2637 Fit      -0.019300
 2638 Fit      -0.018594
 2639 Fit      -0.016124
 2640 Fit      -0.013206
 2641 Fit      -0.016638
 2642 Fit      -0.017221
 2643 Fit      -0.015645
 2644 Fit      -0.012305
 2645 Fit      -0.012278
 2646 Fit      -0.014441
 2647 Fit      -0.013352
 2648 Fit      -0.009973
 2649 Fit      -0.005418
 2650 Fit      -0.006456
 2651 Fit      -0.010597
 2652 Fit      -0.008738
 2653 Fit      -0.000709
 2654 Fit      -0.005802
 2655 Fit       0.005149
 2656 Fit       0.006601
 2657 Fit       0.004376
 2658 Fit       0.008045
 2659 Fit       0.004252
 2660 Fit       0.010865
 2661 Fit       0.001868
 2662 Fit       0.000979
 2663 Fit       0.002288
 2664 Fit       0.003368
 2665 Fit       0.005443
 2666 Fit       0.003596
 2667 Fit       0.001555
 2668 Fit       0.005669
 2669 Fit       0.002448
 2670 Fit      -0.002918
 2671 Fit      -0.004030
 2672 Fit       0.001294
 2673 Fit       0.008827
 2674 Fit      -0.004142
 2675 Fit      -0.003859
 2676 Fit       0.000075
 2677 Fit       0.002076
 2678 Fit       0.001306
 2679 Fit       0.004499
 2680 Fit       0.007130
 2681 Fit       0.004779
 2682 Fit      -0.008844
 2683 Fit      -0.007600
 2684 Fit      -0.012581
 2685 Fit      -0.013150
 2686 Fit      -0.008805
 2687 Fit      -0.010448
 2688 Fit      -0.015233
 2689 Fit      -0.017240
 2690 Fit      -0.016296
 2691 Fit      -0.012652
 2692 Fit      -0.007317
 2693 Fit      -0.018152
 2694 Fit      -0.019877
 2695 Fit      -0.019452
 2696 Fit      -0.016917
 2697 Fit      -0.012168
 2698 Fit      -0.018257
 2699 Fit      -0.021009
 2700 Fit      -0.021803
 2701 Fit      -0.020938
 2702 Fit      -0.018258
 2703 Fit      -0.019031
 2704 Fit      -0.021815
 2705 Fit      -0.022860
 2706 Fit      -0.022499
 2707 Fit      -0.020668
 2708 Fit      -0.016882
 2709 Fit      -0.017800
 2710 Fit      -0.021328
 2711 Fit      -0.022997
 2712 Fit      -0.023239
 2713 Fit      -0.022146
 2714 Fit      -0.019426
 2715 Fit      -0.020821
 2716 Fit      -0.022649
 2717 Fit      -0.022996
 2718 Fit      -0.021997
 2719 Fit      -0.019422
 2720 Fit      -0.014594
 2721 Fit      -0.020455
 2722 Fit      -0.021916
 2723 Fit      -0.021843
 2724 Fit      -0.020316
 2725 Fit      -0.017073
 2726 Fit      -0.018769
 2727 Fit      -0.020246
 2728 Fit      -0.019852
 2729 Fit      -0.017708
 2730 Fit      -0.013658
 2731 Fit      -0.014224
 2732 Fit      -0.017228
 2733 Fit      -0.017516
 2734 Fit      -0.015563
 2735 Fit      -0.011512
 2736 Fit      -0.013701
 2737 Fit      -0.013542
 2738 Fit      -0.010280
 2739 Fit      -0.004744
 2740 Fit      -0.007389
 2741 Fit      -0.009083
 2742 Fit       0.001777
 2743 Fit       0.000748
 2744 Fit      -0.001092
 2745 Fit      -0.002354
 2746 Fit      -0.001219
 2747 Fit      -0.005082
 2748 Fit      -0.002030
 2749 Fit       0.000045
 2750 Fit       0.000133
 2751 Fit       0.001147
 2752 Fit       0.001459
 2753 Fit       0.000820
 2754 Fit       0.001331
 2755 Fit       0.001179
 2756 Fit       0.000158
 2757 Fit      -0.002115
 2758 Fit      -0.006239
 2759 Fit      -0.013219
 2760 Fit       0.001248
 2761 Fit       0.001280
 2762 Fit       0.000630
 2763 Fit      -0.000977
 2764 Fit      -0.003984
 2765 Fit      -0.009115
 2766 Fit       0.000602
 2767 Fit       0.001194
 2768 Fit       0.001226
 2769 Fit       0.000583
 2770 Fit       0.000592
 2771 Fit       0.001196
 2772 Fit       0.000104
 2773 Fit      -0.002677
 2774 Fit      -0.000291
 2775 Fit      -0.005159
 2776 Fit      -0.002289
 2777 Fit      -0.001350
 2778 Fit      -0.000755
 2779 Fit       0.001353
 2780 Fit       0.020062
 2781 Fit       0.010959
 2782 Fit       0.010602
 2783 Fit       0.012895
 2784 Fit       0.016214
 2785 Fit       0.013360
 2786 Fit       0.011580
 2787 Fit       0.017000
 2788 Fit       0.016176
 2789 Fit       0.012563
 2790 Fit       0.008332
 2791 Fit       0.014274
 2792 Fit       0.019000
 2793 Fit       0.009785
 2794 Fit       0.015865
 2795 Fit       0.020399
 2796 Fit       0.024256
 2797 Fit       0.010592
 2798 Fit       0.017230
 2799 Fit       0.011988
 2800 Fit       0.009398
 2801 Fit       0.008130
 2802 Fit       0.008454
 2803 Fit       0.015466
 2804 Fit       0.008980
 2805 Fit       0.014930
 2806 Fit       0.020124
 2807 Fit       0.023991
 2808 Fit       0.008174
 2809 Fit       0.008463
 2810 Fit       0.013282
 2811 Fit       0.017939
 2812 Fit       0.021128
 2813 Fit       0.017428
 2814 Fit       0.009535
 2815 Fit       0.011105
 2816 Fit       0.015386
 2817 Fit       0.013221
 2818 Fit       0.004881
 2819 Fit       0.007252
 2820 Fit       0.007856
 2821 Fit       0.004905
 2822 Fit       0.002402
 2823 Fit       0.003812
 2824 Fit       0.000321
 2825 Fit       0.000420
 2826 Fit       0.003814
 2827 Fit       0.008406
 2828 Fit      -0.002349
 2829 Fit      -0.000401
 2830 Fit       0.004158
 2831 Fit      -0.003560
 2832 Fit      -0.004051
 2833 Fit      -0.001186
 2834 Fit       0.004247
 2835 Fit      -0.005743
 2836 Fit      -0.004974
 2837 Fit      -0.001383
 2838 Fit       0.004679
 2839 Fit      -0.006413
 2840 Fit      -0.006349
 2841 Fit      -0.003454
 2842 Fit       0.002121
 2843 Fit      -0.005221
 2844 Fit      -0.006882
 2845 Fit      -0.005643
 2846 Fit      -0.001674
 2847 Fit       0.005054
 2848 Fit      -0.006085
 2849 Fit      -0.005554
 2850 Fit      -0.002102
 2851 Fit       0.004246
 2852 Fit      -0.003587
 2853 Fit      -0.004969
 2854 Fit      -0.003131
 2855 Fit       0.001673
 2856 Fit      -0.003276
 2857 Fit      -0.001936
 2858 Fit       0.002682
 2859 Fit       0.001095
 2860 Fit      -0.001211
 2861 Fit      -0.000433
 2862 Fit       0.003640
 2863 Fit       0.003911
 2864 Fit       0.001650
 2865 Fit       0.000959
 2866 Fit       0.003552
 2867 Fit       0.006399
 2868 Fit       0.004150
 2869 Fit       0.003559
 2870 Fit       0.006346
 2871 Fit       0.008807
 2872 Fit       0.011699
 2873 Fit       0.017482
 2874 Fit       0.018889
 2875 Fit       0.017870
 2876 Fit       0.014931
 2877 Fit       0.015637
 2878 Fit       0.015618
 2879 Fit       0.007270
 2880 Fit       0.009608
 2881 Fit       0.005484
 2882 Fit       0.008157
 2883 Fit       0.010875
 2884 Fit       0.012825
 2885 Fit       0.000155
 2886 Fit      -0.003036
 2887 Fit      -0.003327
 2888 Fit      -0.000198
 2889 Fit       0.004321
 2890 Fit       0.004678
 2891 Fit       0.000332
 2892 Fit      -0.005179
 2893 Fit      -0.006096
 2894 Fit      -0.005931
 2895 Fit      -0.004257
 2896 Fit      -0.000731
 2897 Fit       0.004211
 2898 Fit       0.005372
 2899 Fit       0.000353
 2900 Fit      -0.003158
 2901 Fit      -0.006335
 2902 Fit      -0.007193
 2903 Fit      -0.007731
 2904 Fit      -0.007782
 2905 Fit      -0.006997
 2906 Fit      -0.005003
 2907 Fit      -0.001545
 2908 Fit       0.005020
 2909 Fit       0.000294
 2910 Fit      -0.002976
 2911 Fit      -0.005046
 2912 Fit      -0.006669
 2913 Fit      -0.007396
 2914 Fit      -0.008099
 2915 Fit      -0.008713
 2916 Fit      -0.009021
 2917 Fit      -0.008737
 2918 Fit      -0.007575
 2919 Fit      -0.005275
 2920 Fit      -0.001535
 2921 Fit       0.011857
 2922 Fit       0.005624
 2923 Fit       0.000908
 2924 Fit      -0.002379
 2925 Fit      -0.004493
 2926 Fit      -0.005797
 2927 Fit      -0.006424
 2928 Fit      -0.007055
 2929 Fit      -0.007825
 2930 Fit      -0.008701
 2931 Fit      -0.009512
 2932 Fit      -0.010012
 2933 Fit      -0.009949
 2934 Fit      -0.009130
 2935 Fit      -0.007395
 2936 Fit       0.008782
 2937 Fit       0.003189
 2938 Fit      -0.000783
 2939 Fit      -0.003365
 2940 Fit      -0.004905
 2941 Fit      -0.005799
 2942 Fit      -0.005873
 2943 Fit      -0.006412
 2944 Fit      -0.007178
 2945 Fit      -0.008164
 2946 Fit      -0.009249
 2947 Fit      -0.010241
 2948 Fit      -0.010934
 2949 Fit      -0.011180
 2950 Fit      -0.010956
 2951 Fit      -0.010389
 2952 Fit       0.020855
 2953 Fit       0.012492
 2954 Fit       0.005994
 2955 Fit       0.001291
 2956 Fit      -0.001859
 2957 Fit      -0.003782
 2958 Fit      -0.004849
 2959 Fit      -0.005434
 2960 Fit      -0.005278
 2961 Fit      -0.005790
 2962 Fit      -0.006588
 2963 Fit      -0.007677
 2964 Fit      -0.008948
 2965 Fit      -0.010222
 2966 Fit      -0.011313
 2967 Fit      -0.012109
 2968 Fit      -0.012681
 2969 Fit      -0.013445
 2970 Fit      -0.015453
 2971 Fit       0.021867
 2972 Fit       0.012566
 2973 Fit       0.005801
 2974 Fit       0.001142
 2975 Fit      -0.001843
 2976 Fit      -0.003574
 2977 Fit      -0.004468
 2978 Fit      -0.004922
 2979 Fit      -0.004834
 2980 Fit      -0.005366
 2981 Fit      -0.006213
 2982 Fit      -0.007381
 2983 Fit      -0.008769
 2984 Fit      -0.010207
 2985 Fit      -0.011526
 2986 Fit      -0.012660
 2987 Fit      -0.013791
 2988 Fit      -0.015625
 2989 Fit       0.014247
 2990 Fit       0.006723
 2991 Fit       0.001739
 2992 Fit      -0.001371
 2993 Fit      -0.003138
 2994 Fit      -0.004030
 2995 Fit      -0.004476
 2996 Fit      -0.004628
 2997 Fit      -0.005235
 2998 Fit      -0.006150
 2999 Fit      -0.007381
 3000 Fit      -0.008825
 3001 Fit      -0.010317
 3002 Fit      -0.011714
 3003 Fit      -0.013015
 3004 Fit      -0.014552
 3005 Fit      -0.017370
 3006 Fit       0.008830
 3007 Fit       0.003078
 3008 Fit      -0.000487
 3009 Fit      -0.002537
 3010 Fit      -0.003613
 3011 Fit      -0.004180
 3012 Fit      -0.004625
 3013 Fit      -0.005394
 3014 Fit      -0.006448
 3015 Fit      -0.007787
 3016 Fit      -0.009275
 3017 Fit      -0.010733
 3018 Fit      -0.012063
 3019 Fit      -0.013438
 3020 Fit      -0.015558
 3021 Fit       0.006421
 3022 Fit       0.001457
 3023 Fit      -0.001468
 3024 Fit      -0.003078
 3025 Fit      -0.003968
 3026 Fit      -0.004662
 3027 Fit      -0.005616
 3028 Fit      -0.006759
 3029 Fit      -0.008070
 3030 Fit      -0.009390
 3031 Fit      -0.010532
 3032 Fit      -0.011426
 3033 Fit      -0.012211
 3034 Fit      -0.012956
 3035 Fit       0.010186
 3036 Fit       0.003873
 3037 Fit      -0.000051
 3038 Fit      -0.002355
 3039 Fit      -0.003707
 3040 Fit      -0.004475
 3041 Fit      -0.005714
 3042 Fit      -0.006952
 3043 Fit      -0.008084
 3044 Fit      -0.008809
 3045 Fit      -0.008759
 3046 Fit      -0.007285
 3047 Fit       0.008816
 3048 Fit       0.002964
 3049 Fit      -0.000772
 3050 Fit      -0.003011
 3051 Fit      -0.003733
 3052 Fit      -0.005291
 3053 Fit      -0.006225
 3054 Fit      -0.005937
 3055 Fit      -0.003128
 3056 Fit       0.008233
 3057 Fit       0.002528
 3058 Fit      -0.001378
 3059 Fit      -0.002071
 3060 Fit      -0.003309
 3061 Fit      -0.000547
 3062 Fit       0.006600
 3063 Fit       0.001850
 3064 Fit       0.000921
 3065 Fit      -0.010008
 3066 Fit      -0.003574
 3067 Fit       0.001470
 3068 Fit      -0.007381
 3069 Fit      -0.001390
 3070 Fit       0.002653
 3071 Fit      -0.007638
 3072 Fit      -0.001755
 3073 Fit       0.002176
 3074 Fit      -0.012918
 3075 Fit      -0.004884
 3076 Fit       0.000182
 3077 Fit       0.003626
 3078 Fit      -0.013704
 3079 Fit      -0.005304
 3080 Fit      -0.000062
 3081 Fit       0.003498
 3082 Fit      -0.009197
 3083 Fit      -0.002631
 3084 Fit       0.001695
 3085 Fit      -0.009668
 3086 Fit      -0.002563
 3087 Fit       0.004845
 3088 Fit       0.001129
 3089 Fit       0.006916
 3090 Fit       0.006369
 3091 Fit       0.004798
 3092 Fit       0.001658
 3093 Fit       0.005714
 3094 Fit       0.006452
 3095 Fit       0.006424
 3096 Fit       0.005523
 3097 Fit       0.003476
 3098 Fit      -0.000280
 3099 Fit       0.004283
 3100 Fit       0.005722
 3101 Fit       0.006287
 3102 Fit       0.005898
 3103 Fit       0.004397
 3104 Fit       0.001582
 3105 Fit       0.003087
 3106 Fit       0.004070
 3107 Fit       0.005471
 3108 Fit       0.006071
 3109 Fit       0.005493
 3110 Fit       0.003863
 3111 Fit       0.002497
 3112 Fit       0.005550
 3113 Fit       0.006020
 3114 Fit       0.005115
 3115 Fit       0.005421
 3116 Fit       0.005856
 3117 Fit       0.005302
 3118 Fit       0.005775
 3119 Fit       0.006291
 3120 Fit       0.006608
 3121 Fit       0.006162
 3122 Fit       0.005123
 3123 Fit       0.005729
 3124 Fit       0.006518
 3125 Fit       0.006515
 3126 Fit       0.006341
 3127 Fit       0.007178
 3128 Fit       0.006114
 3129 Fit       0.004361
 3130 Fit       0.005902
 3131 Fit       0.006646
 3132 Fit       0.006505
 3133 Fit       0.005808
 3134 Fit       0.005466
 3135 Fit       0.006355
 3136 Fit       0.006840
 3137 Fit       0.006592
 3138 Fit       0.005642
 3139 Fit       0.004134
 3140 Fit       0.002623
 3141 Fit       0.007186
 3142 Fit       0.006956
 3143 Fit       0.006081
 3144 Fit       0.004462
 3145 Fit       0.001969
 3146 Fit      -0.001389
 3147 Fit       0.006756
 3148 Fit       0.004994
 3149 Fit       0.002075
 3150 Fit      -0.002650
 3151 Fit       0.000090
 3152 Fit      -0.003964
 3153 Fit      -0.009173
 3154 Fit      -0.000290
 3155 Fit      -0.002776
 3156 Fit      -0.006668
 3157 Fit      -0.012604
 3158 Fit       0.001234
 3159 Fit       0.000815
 3160 Fit      -0.000398
 3161 Fit      -0.002540
 3162 Fit      -0.005786
 3163 Fit      -0.010239
 3164 Fit       0.000911
 3165 Fit       0.000696
 3166 Fit      -0.000461
 3167 Fit      -0.002546
 3168 Fit      -0.005281
 3169 Fit      -0.007572
 3170 Fit       0.000199
 3171 Fit       0.000827
 3172 Fit       0.000328
 3173 Fit      -0.001081
 3174 Fit      -0.002336
 3175 Fit      -0.001370
 3176 Fit       0.001837
 3177 Fit       0.000549
 3178 Fit       0.000588
 3179 Fit       0.000758
 3180 Fit       0.000199
 3181 Fit       0.000809
 3182 Fit       0.001609
 3183 Fit       0.000990
 3184 Fit       0.000697
 3185 Fit       0.001992
 3186 Fit       0.001377
 3187 Fit       0.000166
 3188 Fit      -0.001858
 3189 Fit      -0.001151
 3190 Fit       0.001774
 3191 Fit       0.002069
 3192 Fit       0.001335
 3193 Fit       0.001343
 3194 Fit       0.000858
 3195 Fit      -0.000875
 3196 Fit      -0.003998
 3197 Fit      -0.007268
 3198 Fit      -0.006723
 3199 Fit       0.003662
 3200 Fit       0.000473
 3201 Fit       0.001146
 3202 Fit       0.001168
 3203 Fit       0.000221
 3204 Fit      -0.001975
 3205 Fit      -0.005719
 3206 Fit      -0.011131
 3207 Fit       0.001209
 3208 Fit       0.001313
 3209 Fit       0.000551
 3210 Fit      -0.001264
 3211 Fit      -0.004463
 3212 Fit      -0.009599
 3213 Fit       0.001126
 3214 Fit      -0.000540
 3215 Fit      -0.003604
 3216 Fit      -0.008764
 3217 Fit      -0.006305
 3218 Fit      -0.002369
 3219 Fit      -0.011535
 3220 Fit      -0.005786
 3221 Fit      -0.002134
 3222 Fit      -0.007573
 3223 Fit      -0.003136
 3224 Fit      -0.000380
 3225 Fit      -0.008364
 3226 Fit      -0.003614
 3227 Fit      -0.000712
 3228 Fit      -0.007930
 3229 Fit      -0.003481
 3230 Fit      -0.000733
 3231 Fit      -0.010621
 3232 Fit      -0.004917
 3233 Fit      -0.001522
 3234 Fit      -0.011946
 3235 Fit      -0.005513
 3236 Fit       0.019795
 3237 Fit       0.023821
 3238 Fit       0.016084
 3239 Fit       0.020349
 3240 Fit       0.023488
 3241 Fit       0.026387
 3242 Fit       0.016572
 3243 Fit       0.020387
 3244 Fit       0.023185
 3245 Fit       0.025520
 3246 Fit       0.027955
 3247 Fit       0.013272
 3248 Fit       0.018211
 3249 Fit       0.021614
 3250 Fit       0.024194
 3251 Fit       0.026453
 3252 Fit       0.029005
 3253 Fit       0.014056
 3254 Fit       0.018712
 3255 Fit       0.022004
 3256 Fit       0.024574
 3257 Fit       0.026939
 3258 Fit       0.029878
 3259 Fit       0.013482
 3260 Fit       0.018184
 3261 Fit       0.021580
 3262 Fit       0.024272
 3263 Fit       0.026794
 3264 Fit       0.029987
 3265 Fit       0.018628
 3266 Fit       0.022180
 3267 Fit       0.025168
 3268 Fit       0.028434
 3269 Fit       0.022131
 3270 Fit       0.025700
 3271 Fit       0.029612
 3272 Fit       0.023416
 3273 Fit       0.028586
 3274 Fit       0.021647
 3275 Fit       0.026903
 3276 Fit       0.021030
 3277 Fit       0.015292
 3278 Fit       0.025705
 3279 Fit       0.020985
 3280 Fit       0.016321
 3281 Fit       0.026092
 3282 Fit       0.022370
 3283 Fit       0.018348
 3284 Fit       0.014054
 3285 Fit       0.013020
 3286 Fit       0.022889
 3287 Fit       0.020193
 3288 Fit       0.016553
 3289 Fit       0.018436
 3290 Fit      -0.007854
 3291 Fit       0.000231
 3292 Fit      -0.001635
 3293 Fit      -0.004211
 3294 Fit       0.008254
 3295 Fit       0.005146
 3296 Fit       0.003087
 3297 Fit       0.001862
 3298 Fit       0.003233
 3299 Fit       0.007478
 3300 Fit       0.011470
 3301 Fit       0.009589
 3302 Fit       0.006985
 3303 Fit       0.006946
 3304 Fit       0.009973
 3305 Fit       0.012876
 3306 Fit       0.012719
 3307 Fit       0.010061
 3308 Fit       0.007045
 3309 Fit       0.001715
 3310 Fit       0.002643
 3311 Fit       0.004639
 3312 Fit       0.008643
 3313 Fit      -0.001798
 3314 Fit      -0.001572
 3315 Fit       0.000479
 3316 Fit      -0.006990
 3317 Fit      -0.012575
 3318 Fit       0.012067
 3319 Fit       0.010083
 3320 Fit       0.009553
 3321 Fit       0.011453
 3322 Fit       0.013417
 3323 Fit       0.014220
 3324 Fit       0.012811
 3325 Fit       0.013686
 3326 Fit       0.015051
 3327 Fit       0.016043
 3328 Fit       0.016024
 3329 Fit       0.014150
 3330 Fit       0.010688
 3331 Fit       0.015273
 3332 Fit       0.016261
 3333 Fit       0.017552
 3334 Fit       0.018566
 3335 Fit       0.018105
 3336 Fit       0.015818
 3337 Fit       0.012009
 3338 Fit       0.022262
 3339 Fit       0.021540
 3340 Fit       0.018810
 3341 Fit       0.014573
 3342 Fit       0.026171
 3343 Fit       0.021308
 3344 Fit       0.026194
 -----------------------------------------------------------------
 Leave Link  602 at Thu Jan 16 21:50:49 2014, MaxMem=   235929600 cpu:         1.4

 Test job not archived.
 1\1\GINC-G30\SP\RHF\Gen\C9H11Cl1N4O2\KOLAR\16-Jan-2014\0\\# hf/gen pop
 =mk iop(6/33=2,6/41=5,6/42=2)\\na resp\\0,1\C,0,-3.468311,-1.826704,0.
 354455\N,0,-2.417139,-0.830525,0.150134\C,0,-1.113343,-1.220264,-0.034
 922\C,0,-0.100278,-0.303468,-0.235109\C,0,-0.311214,1.113264,-0.260598
 \O,0,0.5536,1.974426,-0.416385\N,0,-1.677114,1.430764,-0.071812\C,0,-2
 .740564,0.527454,0.129858\O,0,-3.883841,0.930832,0.280889\C,0,-2.06140
 9,2.847001,-0.07767\N,0,1.051737,-1.06655,-0.389026\C,0,0.65095,-2.360
 121,-0.265311\N,0,-0.652141,-2.500639,-0.051832\C,0,2.411411,-0.585696
 ,-0.628119\C,0,2.996011,0.07674,0.620054\Cl,0,4.727672,0.508502,0.3194
 93\H,0,-4.403385,-1.288838,0.497425\H,0,-3.537696,-2.482925,-0.517741\
 H,0,-3.23936,-2.43429,1.234149\H,0,-2.780054,3.034625,-0.878793\H,0,-2
 .529087,3.1098,0.873923\H,0,-1.154753,3.428298,-0.232669\H,0,1.352347,
 -3.180088,-0.34901\H,0,3.015589,-1.447312,-0.923388\H,0,2.394774,0.130
 633,-1.452117\H,0,2.463206,1.000567,0.844532\H,0,2.973013,-0.597666,1.
 478191\\Version=AM64L-G09RevD.01\State=1-A\HF=-1174.2674663\RMSD=4.963
 e-09\Dipole=0.285983,-1.291883,-0.0519846\Quadrupole=-9.3989487,4.0829
 032,5.3160455,-4.1233281,-0.1764408,0.9084126\PG=C01 [X(C9H11Cl1N4O2)]
 \\@


 Some scientists claim that hydrogen, because it is so
 plentiful, is the basic building block of the universe. 
 I dispute that. I say that stupidity is far more
 abundant than hydrogen, and THAT is the basic building 
 block of the universe.
                   --Frank Zappa
 Job cpu time:       0 days  0 hours  3 minutes 56.6 seconds.
 File lengths (MBytes):  RWF=     35 Int=      0 D2E=      0 Chk=      3 Scr=      1
 Normal termination of Gaussian 09 at Thu Jan 16 21:50:49 2014.
236.32user 0.28system 4:00.55elapsed 98%CPU (0avgtext+0avgdata 603408maxresident)k
8inputs+178424outputs (0major+171740minor)pagefaults 0swaps
