Linux g59 2.6.38.6-client #1 SMP Tue Jun 12 11:27:21 CEST 2012 x86_64 GNU/Linux
Thu Jan 16 22:36:46 CET 2014

 Entering Gaussian System, Link 0=/usr/local/programs/common/gaussian/gaussian09_d01/arch/amd64-pgi_10.4.0-acml/g09/g09
 Initial command:
 /usr/local/programs/common/gaussian/gaussian09_d01/arch/amd64-pgi_10.4.0-acml/g09/l1.exe "/scratch/kolar/g09_25931/Gau-1814.inp" -scrdir="/scratch/kolar/g09_25931/"
 Entering Link 1 = /usr/local/programs/common/gaussian/gaussian09_d01/arch/amd64-pgi_10.4.0-acml/g09/l1.exe PID=      1825.
  
 Copyright (c) 1988,1990,1992,1993,1995,1998,2003,2009,2013,
            Gaussian, Inc.  All Rights Reserved.
  
 This is part of the Gaussian(R) 09 program.  It is based on
 the Gaussian(R) 03 system (copyright 2003, Gaussian, Inc.),
 the Gaussian(R) 98 system (copyright 1998, Gaussian, Inc.),
 the Gaussian(R) 94 system (copyright 1995, Gaussian, Inc.),
 the Gaussian 92(TM) system (copyright 1992, Gaussian, Inc.),
 the Gaussian 90(TM) system (copyright 1990, Gaussian, Inc.),
 the Gaussian 88(TM) system (copyright 1988, Gaussian, Inc.),
 the Gaussian 86(TM) system (copyright 1986, Carnegie Mellon
 University), and the Gaussian 82(TM) system (copyright 1983,
 Carnegie Mellon University). Gaussian is a federally registered
 trademark of Gaussian, Inc.
  
 This software contains proprietary and confidential information,
 including trade secrets, belonging to Gaussian, Inc.
  
 This software is provided under written license and may be
 used, copied, transmitted, or stored only in accord with that
 written license.
  
 The following legend is applicable only to US Government
 contracts under FAR:
  
                    RESTRICTED RIGHTS LEGEND
  
 Use, reproduction and disclosure by the US Government is
 subject to restrictions as set forth in subparagraphs (a)
 and (c) of the Commercial Computer Software - Restricted
 Rights clause in FAR 52.227-19.
  
 Gaussian, Inc.
 340 Quinnipiac St., Bldg. 40, Wallingford CT 06492
  
  
 ---------------------------------------------------------------
 Warning -- This program may not be used in any manner that
 competes with the business of Gaussian, Inc. or will provide
 assistance to any competitor of Gaussian, Inc.  The licensee
 of this program is prohibited from giving any competitor of
 Gaussian, Inc. access to this program.  By using this program,
 the user acknowledges that Gaussian, Inc. is engaged in the
 business of creating and licensing software in the field of
 computational chemistry and represents and warrants to the
 licensee that it is not a competitor of Gaussian, Inc. and that
 it will not use this program in any manner prohibited above.
 ---------------------------------------------------------------
  

 Cite this work as:
 Gaussian 09, Revision D.01,
 M. J. Frisch, G. W. Trucks, H. B. Schlegel, G. E. Scuseria, 
 M. A. Robb, J. R. Cheeseman, G. Scalmani, V. Barone, B. Mennucci, 
 G. A. Petersson, H. Nakatsuji, M. Caricato, X. Li, H. P. Hratchian, 
 A. F. Izmaylov, J. Bloino, G. Zheng, J. L. Sonnenberg, M. Hada, 
 M. Ehara, K. Toyota, R. Fukuda, J. Hasegawa, M. Ishida, T. Nakajima, 
 Y. Honda, O. Kitao, H. Nakai, T. Vreven, J. A. Montgomery, Jr., 
 J. E. Peralta, F. Ogliaro, M. Bearpark, J. J. Heyd, E. Brothers, 
 K. N. Kudin, V. N. Staroverov, T. Keith, R. Kobayashi, J. Normand, 
 K. Raghavachari, A. Rendell, J. C. Burant, S. S. Iyengar, J. Tomasi, 
 M. Cossi, N. Rega, J. M. Millam, M. Klene, J. E. Knox, J. B. Cross, 
 V. Bakken, C. Adamo, J. Jaramillo, R. Gomperts, R. E. Stratmann, 
 O. Yazyev, A. J. Austin, R. Cammi, C. Pomelli, J. W. Ochterski, 
 R. L. Martin, K. Morokuma, V. G. Zakrzewski, G. A. Voth, 
 P. Salvador, J. J. Dannenberg, S. Dapprich, A. D. Daniels, 
 O. Farkas, J. B. Foresman, J. V. Ortiz, J. Cioslowski, 
 and D. J. Fox, Gaussian, Inc., Wallingford CT, 2013.
 
 ******************************************
 Gaussian 09:  AM64L-G09RevD.01 24-Apr-2013
                16-Jan-2014 
 ******************************************
 %mem=1800mb
 -----------------------------------------
 # hf/gen pop=mk iop(6/33=2,6/41=5,6/42=2)
 -----------------------------------------
 1/38=1/1;
 2/12=2,17=6,18=5,40=1/2;
 3/5=7,11=9,16=1,25=1,30=1/1,2,3;
 4//1;
 5/5=2,38=5/2;
 6/7=2,8=2,9=2,10=2,15=8,20=1,28=1,33=2,41=5,42=2/1,2;
 99/5=1,9=1/99;
 -------
 na resp
 -------
 Symbolic Z-matrix:
 Charge =  0 Multiplicity = 1
 6                    -0.94925   1.324     0.00157 
 6                    -2.33933   1.24766   0.00145 
 6                    -2.95142  -0.00474   0.00001 
 6                    -2.19206  -1.17301  -0.00126 
 6                    -0.80246  -1.08331  -0.00118 
 6                    -0.15699   0.164     0.00017 
 6                     1.30942   0.22801   0.00011 
 6                     2.12309   1.34979  -0.0008 
 7                     3.417     0.8619   -0.00065 
 6                     4.72222   1.33959  -0.00144 
 6                     5.63149   0.34013  -0.00074 
 16                    4.89422  -1.26386   0.00093 
 6                     3.30655  -0.5161    0.00058 
 7                     2.06846  -0.93624   0.0011 
 35                   -4.86129  -0.11821  -0.00013 
 1                    -0.48173   2.30486   0.00292 
 1                    -2.94163   2.14969   0.00256 
 1                    -2.68115  -2.14123  -0.00233 
 1                    -0.19741  -1.9834   -0.00215 
 1                     1.91316   2.40744  -0.00186 
 1                     4.9136    2.40378  -0.00242 
 1                     6.7068    0.44239  -0.00105 
 
                          Input orientation:                          
 ---------------------------------------------------------------------
 Center     Atomic      Atomic             Coordinates (Angstroms)
 Number     Number       Type             X           Y           Z
 ---------------------------------------------------------------------
      1          6           0       -0.949247    1.323997    0.001567
      2          6           0       -2.339326    1.247659    0.001453
      3          6           0       -2.951422   -0.004739    0.000013
      4          6           0       -2.192059   -1.173011   -0.001260
      5          6           0       -0.802459   -1.083312   -0.001175
      6          6           0       -0.156987    0.163997    0.000174
      7          6           0        1.309423    0.228010    0.000113
      8          6           0        2.123087    1.349793   -0.000803
      9          7           0        3.417004    0.861900   -0.000654
     10          6           0        4.722220    1.339588   -0.001441
     11          6           0        5.631485    0.340126   -0.000742
     12         16           0        4.894219   -1.263863    0.000932
     13          6           0        3.306546   -0.516098    0.000584
     14          7           0        2.068464   -0.936239    0.001104
     15         35           0       -4.861285   -0.118212   -0.000132
     16          1           0       -0.481734    2.304858    0.002920
     17          1           0       -2.941629    2.149690    0.002556
     18          1           0       -2.681151   -2.141227   -0.002333
     19          1           0       -0.197405   -1.983402   -0.002154
     20          1           0        1.913157    2.407444   -0.001864
     21          1           0        4.913602    2.403779   -0.002416
     22          1           0        6.706804    0.442386   -0.001046
 ---------------------------------------------------------------------
                    Distance matrix (angstroms):
                    1          2          3          4          5
     1  C    0.000000
     2  C    1.392174   0.000000
     3  C    2.402966   1.393974   0.000000
     4  C    2.789200   2.425147   1.393375   0.000000
     5  C    2.411782   2.792023   2.404447   1.392492   0.000000
     6  C    1.404734   2.436581   2.799525   2.434976   1.404427
     7  C    2.510534   3.788543   4.267197   3.771371   2.485883
     8  C    3.072443   4.463582   5.252180   4.998502   3.805104
     9  N    4.390636   5.769242   6.427123   5.966779   4.646258
    10  C    5.671489   7.062145   7.790507   7.356657   6.032622
    11  C    6.653874   8.022309   8.589833   7.968527   6.589523
    12  S    6.390862   7.657148   7.946035   7.086861   5.699539
    13  C    4.636564   5.914956   6.278826   5.537707   4.147970
    14  N    3.770311   4.919149   5.105580   4.267098   2.874689
    15  Br   4.169414   2.868080   1.913231   2.870082   4.171988
    16  H    1.086581   2.137363   3.381361   3.875668   3.403319
    17  H    2.156700   1.084634   2.154453   3.406202   3.876643
    18  H    3.873924   3.406084   2.153516   1.084737   2.156077
    19  H    3.391780   3.876544   3.391124   2.152993   1.084552
    20  H    3.060592   4.407803   5.429803   5.447243   4.422663
    21  H    5.961455   7.344494   8.225544   7.955114   6.695757
    22  H    7.706644   9.081902   9.668570   9.044295   7.662688
                    6          7          8          9         10
     6  C    0.000000
     7  C    1.467807   0.000000
     8  C    2.569990   1.385802   0.000000
     9  N    3.641494   2.200844   1.382845   0.000000
    10  C    5.018832   3.589261   2.599153   1.389883   0.000000
    11  C    5.791151   4.323516   3.650792   2.275121   1.351180
    12  S    5.249140   3.882840   3.809248   2.588636   2.609128
    13  C    3.529673   2.131243   2.209553   1.382419   2.334032
    14  N    2.482570   1.389827   2.286685   2.247636   3.495971
    15  Br   4.712755   6.180413   7.136981   8.336108   9.693748
    16  H    2.165353   2.742544   2.774393   4.157198   5.292722
    17  H    3.420119   4.665223   5.127494   6.487729   7.706547
    18  H    3.418401   4.640902   5.938680   6.797519   8.180830
    19  H    2.147781   2.675982   4.061388   4.599967   5.936748
    20  H    3.052631   2.261511   1.078284   2.156447   3.005187
    21  H    5.543239   4.209998   2.982929   2.148767   1.081263
    22  H    6.869434   5.401637   4.672670   3.316440   2.177968
                   11         12         13         14         15
    11  C    0.000000
    12  S    1.765317   0.000000
    13  C    2.477592   1.754952   0.000000
    14  N    3.784736   2.844684   1.307427   0.000000
    15  Br  10.502776   9.822544   8.177517   6.977864   0.000000
    16  H    6.421186   6.452646   4.723226   4.124103   5.005172
    17  H    8.762010   8.547097   6.793094   5.884215   2.971273
    18  H    8.675081   7.626009   6.204319   4.900087   2.974152
    19  H    6.274930   5.142216   3.798771   2.496142   5.023018
    20  H    4.254382   4.729190   3.238616   3.347289   7.229938
    21  H    2.184954   3.667695   3.332915   4.387544  10.094992
    22  H    1.080170   2.489328   3.532768   4.838885  11.581665
                   16         17         18         19         20
    16  H    0.000000
    17  H    2.464784   0.000000
    18  H    4.960356   4.298819   0.000000
    19  H    4.297679   4.961173   2.488755   0.000000
    20  H    2.397092   4.861626   6.465143   4.871755   0.000000
    21  H    5.396245   7.859341   8.850839   6.735707   3.000447
    22  H    7.425894   9.798324   9.736979   7.317961   5.180782
                   21         22
    21  H    0.000000
    22  H    2.657562   0.000000
 Stoichiometry    C11H7BrN2S
 Framework group  C1[X(C11H7BrN2S)]
 Deg. of freedom    60
 Full point group                 C1      NOp   1
 Largest Abelian subgroup         C1      NOp   1
 Largest concise Abelian subgroup C1      NOp   1
                         Standard orientation:                         
 ---------------------------------------------------------------------
 Center     Atomic      Atomic             Coordinates (Angstroms)
 Number     Number       Type             X           Y           Z
 ---------------------------------------------------------------------
      1          6           0        0.949247    1.323997   -0.001567
      2          6           0        2.339326    1.247659   -0.001453
      3          6           0        2.951422   -0.004739   -0.000013
      4          6           0        2.192059   -1.173011    0.001260
      5          6           0        0.802459   -1.083312    0.001175
      6          6           0        0.156987    0.163997   -0.000174
      7          6           0       -1.309423    0.228010   -0.000113
      8          6           0       -2.123087    1.349793    0.000803
      9          7           0       -3.417004    0.861900    0.000654
     10          6           0       -4.722220    1.339588    0.001441
     11          6           0       -5.631485    0.340126    0.000742
     12         16           0       -4.894219   -1.263863   -0.000932
     13          6           0       -3.306546   -0.516098   -0.000584
     14          7           0       -2.068464   -0.936239   -0.001104
     15         35           0        4.861285   -0.118212    0.000132
     16          1           0        0.481734    2.304858   -0.002920
     17          1           0        2.941629    2.149690   -0.002556
     18          1           0        2.681151   -2.141227    0.002333
     19          1           0        0.197405   -1.983402    0.002154
     20          1           0       -1.913157    2.407444    0.001864
     21          1           0       -4.913602    2.403779    0.002416
     22          1           0       -6.706804    0.442386    0.001046
 ---------------------------------------------------------------------
 Rotational constants (GHZ):      2.2527156      0.1252368      0.1186411
 General basis read from cards:  (5D, 7F)
 There are   258 symmetry adapted cartesian basis functions of A   symmetry.
 There are   242 symmetry adapted basis functions of A   symmetry.
   242 basis functions,   527 primitive gaussians,   258 cartesian basis functions
    69 alpha electrons       69 beta electrons
       nuclear repulsion energy      1234.6696207248 Hartrees.
 NAtoms=   22 NActive=   22 NUniq=   22 SFac= 1.00D+00 NAtFMM=   60 NAOKFM=F Big=F
 Integral buffers will be    131072 words long.
 Raffenetti 1 integral format.
 Two-electron integral symmetry is turned on.
 One-electron integrals computed using PRISM.
 NBasis=   242 RedAO= T EigKep=  4.30D-04  NBF=   242
 NBsUse=   242 1.00D-06 EigRej= -1.00D+00 NBFU=   242
 ExpMin= 1.17D-01 ExpMax= 5.74D+05 ExpMxC= 5.74D+03 IAcc=2 IRadAn=         4 AccDes= 0.00D+00
 Harris functional with IExCor=  205 and IRadAn=       4 diagonalized for initial guess.
 HarFok:  IExCor=  205 AccDes= 0.00D+00 IRadAn=         4 IDoV= 1 UseB2=F ITyADJ=14
 ICtDFT=  3500011 ScaDFX=  1.000000  1.000000  1.000000  1.000000
 FoFCou: FMM=F IPFlag=           0 FMFlag=      100000 FMFlg1=           0
         NFxFlg=           0 DoJE=T BraDBF=F KetDBF=T FulRan=T
         wScrn=  0.000000 ICntrl=     500 IOpCl=  0 I1Cent=   200000004 NGrid=           0
         NMat0=    1 NMatS0=      1 NMatT0=    0 NMatD0=    1 NMtDS0=    0 NMtDT0=    0
 Petite list used in FoFCou.
 Requested convergence on RMS density matrix=1.00D-08 within 128 cycles.
 Requested convergence on MAX density matrix=1.00D-06.
 Requested convergence on             energy=1.00D-06.
 No special actions if energy rises.
 Integral accuracy reduced to 1.0D-05 until final iterations.
 Initial convergence to 1.0D-05 achieved.  Increase integral accuracy.
 SCF Done:  E(RHF) =  -3496.59906180     A.U. after   17 cycles
            NFock= 17  Conv=0.57D-08     -V/T= 1.9992

 **********************************************************************

            Population analysis using the SCF density.

 **********************************************************************

 Orbital symmetries:
 BldTbl:  Degeneracy threshold= 1.00D-02
       Occupied  (A) (A) (A) (A) (A) (A) (A) (A) (A) (A) (A) (A)
                 (A) (A) (A) (A) (A) (A) (A) (A) (A) (A) (A) (A)
                 (A) (A) (A) (A) (A) (A) (A) (A) (A) (A) (A) (A)
                 (A) (A) (A) (A) (A) (A) (A) (A) (A) (A) (A) (A)
                 (A) (A) (A) (A) (A) (A) (A) (A) (A) (A) (A) (A)
                 (A) (A) (A) (A) (A) (A) (A) (A) (A)
       Virtual   (A) (A) (A) (A) (A) (A) (A) (A) (A) (A) (A) (A)
                 (A) (A) (A) (A) (A) (A) (A) (A) (A) (A) (A) (A)
                 (A) (A) (A) (A) (A) (A) (A) (A) (A) (A) (A) (A)
                 (A) (A) (A) (A) (A) (A) (A) (A) (A) (A) (A) (A)
                 (A) (A) (A) (A) (A) (A) (A) (A) (A) (A) (A) (A)
                 (A) (A) (A) (A) (A) (A) (A) (A) (A) (A) (A) (A)
                 (A) (A) (A) (A) (A) (A) (A) (A) (A) (A) (A) (A)
                 (A) (A) (A) (A) (A) (A) (A) (A) (A) (A) (A) (A)
                 (A) (A) (A) (A) (A) (A) (A) (A) (A) (A) (A) (A)
                 (A) (A) (A) (A) (A) (A) (A) (A) (A) (A) (A) (A)
                 (A) (A) (A) (A) (A) (A) (A) (A) (A) (A) (A) (A)
                 (A) (A) (A) (A) (A) (A) (A) (A) (A) (A) (A) (A)
                 (A) (A) (A) (A) (A) (A) (A) (A) (A) (A) (A) (A)
                 (A) (A) (A) (A) (A) (A) (A) (A) (A) (A) (A) (A)
                 (A) (A) (A) (A) (A)
 The electronic state is 1-A.
 Alpha  occ. eigenvalues -- -489.83714 -91.98848 -64.38094 -58.54775 -58.54602
 Alpha  occ. eigenvalues --  -58.54594 -15.65453 -15.56171 -11.34102 -11.31389
 Alpha  occ. eigenvalues --  -11.29490 -11.29012 -11.27621 -11.27366 -11.25357
 Alpha  occ. eigenvalues --  -11.24810 -11.24614 -11.24510 -11.23786  -9.65850
 Alpha  occ. eigenvalues --   -9.00294  -7.47410  -7.46540  -7.46535  -6.68471
 Alpha  occ. eigenvalues --   -6.68385  -6.68168  -3.21725  -3.21306  -3.21304
 Alpha  occ. eigenvalues --   -3.20296  -3.20296  -1.37947  -1.22722  -1.16681
 Alpha  occ. eigenvalues --   -1.12443  -1.07206  -1.02477  -1.00965  -0.99391
 Alpha  occ. eigenvalues --   -0.95250  -0.85311  -0.84033  -0.83209  -0.78332
 Alpha  occ. eigenvalues --   -0.76750  -0.70749  -0.69048  -0.65129  -0.64705
 Alpha  occ. eigenvalues --   -0.63549  -0.62949  -0.60329  -0.59446  -0.58403
 Alpha  occ. eigenvalues --   -0.54794  -0.53093  -0.51135  -0.50505  -0.48955
 Alpha  occ. eigenvalues --   -0.48584  -0.45137  -0.44774  -0.43041  -0.40720
 Alpha  occ. eigenvalues --   -0.36193  -0.34365  -0.31953  -0.28455
 Alpha virt. eigenvalues --    0.09607   0.13324   0.14232   0.15575   0.17132
 Alpha virt. eigenvalues --    0.19840   0.23103   0.23781   0.24199   0.24712
 Alpha virt. eigenvalues --    0.28292   0.28541   0.29852   0.31732   0.33511
 Alpha virt. eigenvalues --    0.34070   0.37254   0.37769   0.39774   0.41467
 Alpha virt. eigenvalues --    0.43668   0.45186   0.46431   0.49033   0.50021
 Alpha virt. eigenvalues --    0.52712   0.55090   0.55701   0.57825   0.58501
 Alpha virt. eigenvalues --    0.61533   0.64129   0.64907   0.65193   0.65525
 Alpha virt. eigenvalues --    0.65997   0.67135   0.68140   0.69152   0.69922
 Alpha virt. eigenvalues --    0.71892   0.72345   0.74596   0.74911   0.75001
 Alpha virt. eigenvalues --    0.78113   0.78301   0.79297   0.79956   0.80636
 Alpha virt. eigenvalues --    0.80995   0.82668   0.82946   0.84085   0.84211
 Alpha virt. eigenvalues --    0.87802   0.88237   0.91378   0.94690   0.96196
 Alpha virt. eigenvalues --    0.97390   0.97752   0.98081   1.00539   1.00763
 Alpha virt. eigenvalues --    1.02231   1.03498   1.04937   1.06965   1.07460
 Alpha virt. eigenvalues --    1.08943   1.09098   1.09684   1.10223   1.11975
 Alpha virt. eigenvalues --    1.12776   1.14002   1.15512   1.15615   1.17151
 Alpha virt. eigenvalues --    1.18015   1.19613   1.20127   1.25549   1.25972
 Alpha virt. eigenvalues --    1.26631   1.27992   1.30066   1.32122   1.33376
 Alpha virt. eigenvalues --    1.34420   1.38900   1.42090   1.43477   1.45960
 Alpha virt. eigenvalues --    1.48774   1.49656   1.51003   1.54997   1.55415
 Alpha virt. eigenvalues --    1.56994   1.58930   1.59450   1.67804   1.67906
 Alpha virt. eigenvalues --    1.68512   1.70455   1.72017   1.72288   1.74950
 Alpha virt. eigenvalues --    1.75047   1.78359   1.79583   1.83107   1.83554
 Alpha virt. eigenvalues --    1.84814   1.96897   2.02128   2.04501   2.09384
 Alpha virt. eigenvalues --    2.09648   2.11379   2.11866   2.17044   2.18563
 Alpha virt. eigenvalues --    2.24701   2.26112   2.28714   2.28957   2.30990
 Alpha virt. eigenvalues --    2.34345   2.37155   2.38324   2.41769   2.42174
 Alpha virt. eigenvalues --    2.43777   2.44926   2.47142   2.47207   2.48475
 Alpha virt. eigenvalues --    2.53383   2.55657   2.57853   2.59054   2.62265
 Alpha virt. eigenvalues --    2.62731   2.63876   2.66976   2.69411   2.71929
 Alpha virt. eigenvalues --    2.82890   2.85738   2.86755   2.87079   2.91376
 Alpha virt. eigenvalues --    2.93512   2.97599   2.98256   3.00235   3.01615
 Alpha virt. eigenvalues --    3.05019   3.07992   3.12565   3.14820   3.19967
 Alpha virt. eigenvalues --    3.24841   3.31996   3.43861   3.45833   3.50975
 Alpha virt. eigenvalues --    3.66805   3.79021   9.17873
          Condensed to atoms (all electrons):
               1          2          3          4          5          6
     1  C    4.955559   0.524950  -0.046229  -0.034297  -0.050602   0.562371
     2  C    0.524950   4.936460   0.543263  -0.042457  -0.033036  -0.034085
     3  C   -0.046229   0.543263   4.797118   0.541392  -0.045960  -0.023615
     4  C   -0.034297  -0.042457   0.541392   4.954740   0.512216  -0.041097
     5  C   -0.050602  -0.033036  -0.045960   0.512216   4.961603   0.540674
     6  C    0.562371  -0.034085  -0.023615  -0.041097   0.540674   4.763098
     7  C   -0.048291   0.003748   0.000129   0.003381  -0.038687   0.402782
     8  C   -0.011212   0.000107   0.000009  -0.000094   0.006150  -0.066013
     9  N    0.000153  -0.000002   0.000000   0.000001  -0.000057   0.001559
    10  C    0.000002   0.000000   0.000000   0.000000  -0.000001   0.000019
    11  C    0.000000   0.000000   0.000000   0.000000   0.000000   0.000002
    12  S    0.000002   0.000000   0.000000   0.000000  -0.000009  -0.000023
    13  C   -0.000175   0.000004   0.000000   0.000008   0.000480   0.003894
    14  N    0.002777  -0.000075   0.000008   0.000213  -0.005644  -0.044969
    15  Br   0.002905  -0.064556   0.286650  -0.064147   0.002580   0.000259
    16  H    0.375785  -0.028965   0.001886   0.000179   0.002797  -0.028820
    17  H   -0.026428   0.381236  -0.028983   0.002439   0.000181   0.001176
    18  H    0.000171   0.002470  -0.030360   0.381349  -0.025086   0.001296
    19  H    0.002664   0.000127   0.001733  -0.029873   0.375444  -0.022460
    20  H    0.000664   0.000017   0.000001   0.000001  -0.000087   0.000491
    21  H    0.000000   0.000000   0.000000   0.000000   0.000000  -0.000001
    22  H    0.000000   0.000000   0.000000   0.000000   0.000000   0.000000
               7          8          9         10         11         12
     1  C   -0.048291  -0.011212   0.000153   0.000002   0.000000   0.000002
     2  C    0.003748   0.000107  -0.000002   0.000000   0.000000   0.000000
     3  C    0.000129   0.000009   0.000000   0.000000   0.000000   0.000000
     4  C    0.003381  -0.000094   0.000001   0.000000   0.000000   0.000000
     5  C   -0.038687   0.006150  -0.000057  -0.000001   0.000000  -0.000009
     6  C    0.402782  -0.066013   0.001559   0.000019   0.000002  -0.000023
     7  C    4.612950   0.598461  -0.073265   0.004800  -0.000473   0.003032
     8  C    0.598461   5.026691   0.301193  -0.029031   0.004248   0.004499
     9  N   -0.073265   0.301193   7.041290   0.294203  -0.073285  -0.055337
    10  C    0.004800  -0.029031   0.294203   4.728335   0.622428  -0.079464
    11  C   -0.000473   0.004248  -0.073285   0.622428   5.351535   0.261260
    12  S    0.003032   0.004499  -0.055337  -0.079464   0.261260  15.286187
    13  C   -0.116945  -0.103680   0.375324  -0.062063  -0.029772   0.289315
    14  N    0.490397  -0.124844  -0.075413   0.005308   0.002154  -0.035515
    15  Br   0.000003   0.000000   0.000000   0.000000   0.000000   0.000000
    16  H   -0.003487   0.002263  -0.000024   0.000001   0.000000   0.000000
    17  H   -0.000091  -0.000002   0.000000   0.000000   0.000000   0.000000
    18  H   -0.000085   0.000001   0.000000   0.000000   0.000000   0.000000
    19  H   -0.004054   0.000207   0.000013   0.000000   0.000000  -0.000001
    20  H   -0.012647   0.376672  -0.032901   0.000569  -0.000046  -0.000088
    21  H   -0.000149   0.000365  -0.031800   0.385591  -0.024188   0.001815
    22  H    0.000008  -0.000043   0.001562  -0.014801   0.376955  -0.021572
              13         14         15         16         17         18
     1  C   -0.000175   0.002777   0.002905   0.375785  -0.026428   0.000171
     2  C    0.000004  -0.000075  -0.064556  -0.028965   0.381236   0.002470
     3  C    0.000000   0.000008   0.286650   0.001886  -0.028983  -0.030360
     4  C    0.000008   0.000213  -0.064147   0.000179   0.002439   0.381349
     5  C    0.000480  -0.005644   0.002580   0.002797   0.000181  -0.025086
     6  C    0.003894  -0.044969   0.000259  -0.028820   0.001176   0.001296
     7  C   -0.116945   0.490397   0.000003  -0.003487  -0.000091  -0.000085
     8  C   -0.103680  -0.124844   0.000000   0.002263  -0.000002   0.000001
     9  N    0.375324  -0.075413   0.000000  -0.000024   0.000000   0.000000
    10  C   -0.062063   0.005308   0.000000   0.000001   0.000000   0.000000
    11  C   -0.029772   0.002154   0.000000   0.000000   0.000000   0.000000
    12  S    0.289315  -0.035515   0.000000   0.000000   0.000000   0.000000
    13  C    4.739622   0.527555   0.000000  -0.000008   0.000000   0.000000
    14  N    0.527555   6.858287   0.000000   0.000030   0.000000  -0.000007
    15  Br   0.000000   0.000000  34.987649  -0.000106  -0.001626  -0.001737
    16  H   -0.000008   0.000030  -0.000106   0.470893  -0.001235   0.000010
    17  H    0.000000   0.000000  -0.001626  -0.001235   0.442565  -0.000088
    18  H    0.000000  -0.000007  -0.001737   0.000010  -0.000088   0.439497
    19  H   -0.000038   0.007504  -0.000086  -0.000101   0.000008  -0.001043
    20  H    0.002874   0.002299   0.000000   0.001159  -0.000001   0.000000
    21  H    0.002308  -0.000101   0.000000   0.000000   0.000000   0.000000
    22  H    0.002306  -0.000025   0.000000   0.000000   0.000000   0.000000
              19         20         21         22
     1  C    0.002664   0.000664   0.000000   0.000000
     2  C    0.000127   0.000017   0.000000   0.000000
     3  C    0.001733   0.000001   0.000000   0.000000
     4  C   -0.029873   0.000001   0.000000   0.000000
     5  C    0.375444  -0.000087   0.000000   0.000000
     6  C   -0.022460   0.000491  -0.000001   0.000000
     7  C   -0.004054  -0.012647  -0.000149   0.000008
     8  C    0.000207   0.376672   0.000365  -0.000043
     9  N    0.000013  -0.032901  -0.031800   0.001562
    10  C    0.000000   0.000569   0.385591  -0.014801
    11  C    0.000000  -0.000046  -0.024188   0.376955
    12  S   -0.000001  -0.000088   0.001815  -0.021572
    13  C   -0.000038   0.002874   0.002308   0.002306
    14  N    0.007504   0.002299  -0.000101  -0.000025
    15  Br  -0.000086   0.000000   0.000000   0.000000
    16  H   -0.000101   0.001159   0.000000   0.000000
    17  H    0.000008  -0.000001   0.000000   0.000000
    18  H   -0.001043   0.000000   0.000000   0.000000
    19  H    0.412092  -0.000003   0.000000   0.000000
    20  H   -0.000003   0.423639   0.000580   0.000000
    21  H    0.000000   0.000580   0.416931   0.000026
    22  H    0.000000   0.000000   0.000026   0.400384
 Mulliken charges:
               1
     1  C   -0.210768
     2  C   -0.189207
     3  C    0.002958
     4  C   -0.183955
     5  C   -0.202956
     6  C   -0.016539
     7  C    0.178481
     8  C    0.014054
     9  N   -0.673216
    10  C    0.144105
    11  C   -0.490817
    12  S    0.345899
    13  C    0.368989
    14  N   -0.609938
    15  Br  -0.147787
    16  H    0.207741
    17  H    0.230847
    18  H    0.233612
    19  H    0.257865
    20  H    0.236808
    21  H    0.248624
    22  H    0.255199
 Sum of Mulliken charges =   0.00000
 Mulliken charges with hydrogens summed into heavy atoms:
               1
     1  C   -0.003027
     2  C    0.041639
     3  C    0.002958
     4  C    0.049657
     5  C    0.054908
     6  C   -0.016539
     7  C    0.178481
     8  C    0.250863
     9  N   -0.673216
    10  C    0.392729
    11  C   -0.235618
    12  S    0.345899
    13  C    0.368989
    14  N   -0.609938
    15  Br  -0.147787
 DipInt: DoE/N= T F RetVal/Mat= T F Init=T NMatP=  1 IDeriv=0 Min/MaxMlt=  0  4
 Entering OneElI...
 OneElI was handed   235756850 working-precision words.
 Multipole integrals L=0 to 4 MinM= 0 MaxM= 0.
 Requested accuracy = 0.1000D-12
 PrtBox:  NBox=     1 Levels=  1 BoxLen=   42.88 SMaxX=       21.86
          Shift=           12.674023            4.046332            0.005518
 Box      1 Number                   0 centers from      1 to     83:
 ShPair: Thresh= 1.00D-13 NBox=     1 BxSize= 4.29D+01 RnKept= 2.19D+01
         NSMCal=                 3486 NSMKep=                2734
 PrsmSu:  NPrtUS=   1 ThrOK=F IAlg=1 NPAlg=1 LenDen=           0.
 Prism:   IPart=     0 DynPar=F LinDyn=F Incr=          27.
 PRISM was handed   235483690 working-precision words and  2734 shell-pairs
 IPart=  0 NShTot=        2734 NBatch=         134 AvBLen=        20.4
 PrSmSu:  NxtVal=             28.
 Electronic moments (au):
       -138.00000000         -1.92970360          1.40561947          0.00153500
      -7070.73686136       -525.36426322        -83.58805683         -8.27415817
         -0.01084198         -0.00380043       1710.91375817       -218.06523816
          0.00457910       1358.10124750       1347.23951854         -1.12189780
         78.16594929         -3.79268783          0.01382228          2.24542660
    -570290.30785055      -5463.65063674       -329.06253808      -2296.04949067
          0.83876245         20.69052870          0.34401660          0.08965678
          0.00181052     -21463.01170992      -4000.18843240       -406.32029579
        -10.52666107          1.00262287        -12.83328792
 Electronic spatial extent (au):  <R**2>=           7679.6892
 DipInt: DoE/N= F T RetVal/Mat= T F Init=T NMatP=  1 IDeriv=0 Min/MaxMlt=  0  4
 Nuclear    moments (au):
        138.00000000          0.00000000          0.00000000          0.00000000
       7003.98226626        454.32398848          0.00045969          0.00000000
         -0.00018827         -0.00000426      -1803.14721807        241.72598464
         -0.00000010      -1300.98262824      -1285.52824569          1.20724824
         -0.00079701          0.00033650          0.01433421         -2.31380307
     551051.65009791       3768.69561412          0.00000000       1731.70656709
         -1.69351056       -240.83383814         -0.36305134         -0.00000217
         -0.00000143      17710.18591140          0.01626847          0.00386909
         10.77167752         -1.18405328         -0.00058826
 Total      moments (au):
          0.00000000         -1.92970360          1.40561947          0.00153500
        -66.75459509        -71.04027475        -83.58759714         -8.27415817
         -0.01103024         -0.00380469        -92.23345991         23.66074647
          0.00457900         57.11861926         61.71127285          0.08535044
         78.16515229         -3.79235132          0.02815649         -0.06837648
     -19238.65775264      -1694.95502262       -329.06253807       -564.34292358
         -0.85474811       -220.14330943         -0.01903474          0.08965461
          0.00180909      -3752.82579852      -4000.17216393       -406.31642670
          0.24501645         -0.18143040        -12.83387618
 Traceless Quadrup. (au):
          7.03956057          2.75388091         -9.79344148         -8.27415817
         -0.01103024         -0.00380469
 Charge=              0.0000 electrons
 Dipole moment (field-independent basis, Debye):
    X=             -4.9048    Y=              3.5727    Z=              0.0039  Tot=              6.0681
 Quadrupole moment (field-independent basis, Debye-Ang):
   XX=            -89.7872   YY=            -95.5516   ZZ=           -112.4282
   XY=            -11.1290   XZ=             -0.0148   YZ=             -0.0051
 Traceless Quadrupole moment (field-independent basis, Debye-Ang):
   XX=              9.4684   YY=              3.7041   ZZ=            -13.1725
   XY=            -11.1290   XZ=             -0.0148   YZ=             -0.0051
 Octapole moment (field-independent basis, Debye-Ang**2):
  XXX=            -65.6482  YYY=             16.8408  ZZZ=              0.0033  XYY=             40.6548
  XXY=             43.9237  XXZ=              0.0607  XZZ=             55.6349  YZZ=             -2.6992
  YYZ=              0.0200  XYZ=             -0.0487
 Hexadecapole moment (field-independent basis, Debye-Ang**3):
 XXXX=          -7246.2006 YYYY=           -638.4013 ZZZZ=           -123.9407 XXXY=           -212.5586
 XXXZ=             -0.3219 YYYX=            -82.9165 YYYZ=             -0.0072 ZZZX=              0.0338
 ZZZY=              0.0007 XXYY=          -1413.4941 XXZZ=          -1506.6566 YYZZ=           -153.0382
 XXYZ=              0.0923 YYXZ=             -0.0683 ZZXY=             -4.8339
 N-N= 1.234669620725D+03 E-N=-1.080182847870D+04  KE= 3.499563411798D+03
 Entering OneElI...
 OneElI was handed   235797469 working-precision words.
 Calculate electrostatic properties
    NBasis =   242  MinDer = 0  MaxDer = 0
    NGrid  =    22  NMatD  =   1
 Requested accuracy = 0.1000D-12
 PrtBox:  NBox=     1 Levels=  1 BoxLen=   35.73 SMaxX=       21.86
          Shift=           12.674023            4.046332            0.005518
 Box      1 Number                   0 centers from      1 to     83:
 ShPair: Thresh= 1.00D-13 NBox=     1 BxSize= 3.57D+01 RnKept= 1.98D+01
         NSMCal=                 3486 NSMKep=                2399
 PrsmSu:  NPrtUS=   1 ThrOK=F IAlg=1 NPAlg=1 LenDen=           0.
 Prism:   IPart=     0 DynPar=F LinDyn=F Incr=         512.
 PRISM was handed   235552104 working-precision words and  2399 shell-pairs
 IPart=  0 NShTot=       52778 NBatch=        2407 AvBLen=        21.9
 PrSmSu:  NxtVal=            513.
 --------------------------------------------------------
       Center         ----      EFG at Nuclei      ----
                      3XX-RR        3YY-RR        3ZZ-RR
 --------------------------------------------------------
     1   Atom        0.171370      0.129404     -0.300773
     2   Atom        0.181778      0.121799     -0.303577
     3   Atom       -0.290295      0.381460     -0.091165
     4   Atom        0.188216      0.125462     -0.313678
     5   Atom        0.179061      0.173761     -0.352821
     6   Atom        0.102070      0.210161     -0.312231
     7   Atom        0.149811      0.033829     -0.183640
     8   Atom       -0.191042      0.175942      0.015100
     9   Atom       -0.292858     -0.267307      0.560165
    10   Atom       -0.087203      0.226326     -0.139123
    11   Atom        0.178207     -0.089191     -0.089016
    12   Atom       -2.131903     -0.299154      2.431057
    13   Atom        0.202898     -0.084980     -0.117918
    14   Atom       -0.363902      0.667933     -0.304031
    15   Atom       -6.750884      3.353973      3.396911
    16   Atom        0.055209     -0.224786      0.169577
    17   Atom        0.005093     -0.172379      0.167287
    18   Atom        0.051957     -0.218566      0.166609
    19   Atom        0.012377     -0.174024      0.161646
    20   Atom        0.121615     -0.305308      0.183693
    21   Atom        0.125764     -0.298040      0.172275
    22   Atom       -0.315970      0.139880      0.176089
 --------------------------------------------------------
                        XY            XZ            YZ
 --------------------------------------------------------
     1   Atom        0.025066      0.000007     -0.000577
     2   Atom        0.008110     -0.000012     -0.000500
     3   Atom        0.043323     -0.000044     -0.000529
     4   Atom       -0.019284      0.000028     -0.000487
     5   Atom        0.011626     -0.000022     -0.000574
     6   Atom        0.000407     -0.000016     -0.000586
     7   Atom       -0.076537     -0.000141      0.000255
     8   Atom       -0.139513     -0.000099      0.000192
     9   Atom        0.032610      0.000341     -0.000749
    10   Atom        0.127109      0.000113      0.000302
    11   Atom        0.125620      0.000049     -0.000054
    12   Atom        0.601869      0.001697     -0.002724
    13   Atom       -0.085605     -0.000097      0.000027
    14   Atom       -0.438661     -0.000446      0.000871
    15   Atom        0.600194     -0.000796      0.000067
    16   Atom        0.176444     -0.000229      0.000537
    17   Atom       -0.207385      0.000253      0.000414
    18   Atom        0.180449     -0.000200      0.000427
    19   Atom       -0.203583      0.000241      0.000370
    20   Atom       -0.090806     -0.000078     -0.000487
    21   Atom        0.080825      0.000083     -0.000432
    22   Atom        0.042976      0.000137     -0.000043
 --------------------------------------------------------


 ---------------------------------------------------------------------------------
              Nuclear Quadrupole Coupling Constant in Principal Axis System
 ---------------------------------------------------------------------------------

       Atom             a.u.   MegaHertz   Gauss  10(-4) cm-1        Axes

              Baa    -0.3151     1.513     0.540     0.505  0.8261 -0.5636 -0.0008
     9 N(14)  Bbb    -0.2451     1.177     0.420     0.393  0.5636  0.8261  0.0005
              Bcc     0.5602    -2.690    -0.960    -0.897  0.0004 -0.0009  1.0000
 
              Baa    -0.5252     2.522     0.900     0.841  0.9386  0.3451  0.0005
    14 N(14)  Bbb    -0.3040     1.460     0.521     0.487 -0.0002 -0.0010  1.0000
              Bcc     0.8292    -3.982    -1.421    -1.328 -0.3451  0.9386  0.0009
 
              Baa    -6.7864   499.099   178.091   166.482  0.9983 -0.0591  0.0001
    15 Br(79) Bbb     3.3895  -249.277   -88.948   -83.150  0.0591  0.9982 -0.0026
              Bcc     3.3969  -249.822   -89.143   -83.332  0.0001  0.0026  1.0000
 

 ---------------------------------------------------------------------------------

 No NMR shielding tensors so no spin-rotation constants.
 Leave Link  601 at Thu Jan 16 22:40:25 2014, MaxMem=   235929600 cpu:         0.3
 FitSet:  NAtFit=    22 NAtPot=    22 NAtFrz=     0 MDM=    26 TotChg=   0.00000
 Merz-Kollman atomic radii used.
 Atom Element Radius
    1     6    1.50
    2     6    1.50
    3     6    1.50
    4     6    1.50
    5     6    1.50
    6     6    1.50
    7     6    1.50
    8     6    1.50
    9     7    1.50
   10     6    1.50
   11     6    1.50
   12    16    1.75
   13     6    1.50
   14     7    1.50
   15    35    2.30
   16     1    1.20
   17     1    1.20
   18     1    1.20
   19     1    1.20
   20     1    1.20
   21     1    1.20
   22     1    1.20
 Generate VDW surfaces: Layer= 5 Dens= 2 Start= 1.400 Inc= 0.179

 **********************************************************************

            Electrostatic Properties Using The SCF Density

 **********************************************************************

       Atomic Center    1 is at   0.949247  1.323997 -0.001567
       Atomic Center    2 is at   2.339326  1.247659 -0.001453
       Atomic Center    3 is at   2.951422 -0.004739 -0.000013
       Atomic Center    4 is at   2.192059 -1.173011  0.001260
       Atomic Center    5 is at   0.802459 -1.083312  0.001175
       Atomic Center    6 is at   0.156987  0.163997 -0.000174
       Atomic Center    7 is at  -1.309423  0.228010 -0.000113
       Atomic Center    8 is at  -2.123087  1.349793  0.000803
       Atomic Center    9 is at  -3.417004  0.861900  0.000654
       Atomic Center   10 is at  -4.722220  1.339588  0.001441
       Atomic Center   11 is at  -5.631485  0.340126  0.000742
       Atomic Center   12 is at  -4.894219 -1.263863 -0.000932
       Atomic Center   13 is at  -3.306546 -0.516098 -0.000584
       Atomic Center   14 is at  -2.068464 -0.936239 -0.001104
       Atomic Center   15 is at   4.861285 -0.118212  0.000132
       Atomic Center   16 is at   0.481734  2.304858 -0.002920
       Atomic Center   17 is at   2.941629  2.149690 -0.002556
       Atomic Center   18 is at   2.681151 -2.141227  0.002333
       Atomic Center   19 is at   0.197405 -1.983402  0.002154
       Atomic Center   20 is at  -1.913157  2.407444  0.001864
       Atomic Center   21 is at  -4.913602  2.403779  0.002416
       Atomic Center   22 is at  -6.706804  0.442386  0.001046
      ESP Fit Center   23 is at   0.949247  1.323997  2.098433
      ESP Fit Center   24 is at   1.308368  1.946013  1.971788
      ESP Fit Center   25 is at   0.590126  1.946013  1.971788
      ESP Fit Center   26 is at   0.231005  1.323997  1.971788
      ESP Fit Center   27 is at   1.308368  0.701981  1.971788
      ESP Fit Center   28 is at   1.509997  2.551868  1.607126
      ESP Fit Center   29 is at  -0.345928  1.704295  1.607126
      ESP Fit Center   30 is at   1.509997  0.096127  1.607126
      ESP Fit Center   31 is at   1.509997  2.551868 -1.610260
      ESP Fit Center   32 is at  -0.345928  1.704295 -1.610260
      ESP Fit Center   33 is at   1.509997  0.096127 -1.610260
      ESP Fit Center   34 is at   1.308368  1.946013 -1.974921
      ESP Fit Center   35 is at   0.590126  1.946013 -1.974921
      ESP Fit Center   36 is at   0.231005  1.323997 -1.974921
      ESP Fit Center   37 is at   1.308368  0.701981 -1.974921
      ESP Fit Center   38 is at   0.949247  1.323997 -2.101567
      ESP Fit Center   39 is at   2.339326  1.247659  2.098547
      ESP Fit Center   40 is at   2.698447  1.869675  1.971902
      ESP Fit Center   41 is at   1.980205  1.869675  1.971902
      ESP Fit Center   42 is at   1.980205  0.625643  1.971902
      ESP Fit Center   43 is at   2.147222  2.583774  1.607240
      ESP Fit Center   44 is at   2.147222  2.583774 -1.610146
      ESP Fit Center   45 is at   2.698447  1.869675 -1.974807
      ESP Fit Center   46 is at   1.980205  1.869675 -1.974807
      ESP Fit Center   47 is at   1.980205  0.625643 -1.974807
      ESP Fit Center   48 is at   2.339326  1.247659 -2.101453
      ESP Fit Center   49 is at   2.233180 -0.004739  1.973342
      ESP Fit Center   50 is at   2.233180 -0.004739 -1.973367
      ESP Fit Center   51 is at   2.192059 -1.173011  2.101260
      ESP Fit Center   52 is at   1.832938 -0.550995  1.974615
      ESP Fit Center   53 is at   1.832938 -1.795027  1.974615
      ESP Fit Center   54 is at   2.551180 -1.795027  1.974615
      ESP Fit Center   55 is at   1.999955 -2.509125  1.609953
      ESP Fit Center   56 is at   1.999955 -2.509125 -1.607433
      ESP Fit Center   57 is at   1.832938 -0.550995 -1.972094
      ESP Fit Center   58 is at   1.832938 -1.795027 -1.972094
      ESP Fit Center   59 is at   2.551180 -1.795027 -1.972094
      ESP Fit Center   60 is at   2.192059 -1.173011 -2.098740
      ESP Fit Center   61 is at   0.802459 -1.083312  2.101175
      ESP Fit Center   62 is at   1.161580 -0.461296  1.974530
      ESP Fit Center   63 is at   0.084217 -1.083312  1.974530
      ESP Fit Center   64 is at   0.443338 -1.705328  1.974530
      ESP Fit Center   65 is at   1.161580 -1.705328  1.974530
      ESP Fit Center   66 is at  -0.492716 -1.463610  1.609868
      ESP Fit Center   67 is at   0.610355 -2.419426  1.609868
      ESP Fit Center   68 is at   1.363209 -2.311182  1.609868
      ESP Fit Center   69 is at   1.364454 -2.812954  1.051175
      ESP Fit Center   70 is at   1.364454 -2.812954 -1.048825
      ESP Fit Center   71 is at  -0.492716 -1.463610 -1.607518
      ESP Fit Center   72 is at   0.610355 -2.419426 -1.607518
      ESP Fit Center   73 is at   1.363209 -2.311182 -1.607518
      ESP Fit Center   74 is at   1.161580 -0.461296 -1.972179
      ESP Fit Center   75 is at   0.084217 -1.083312 -1.972179
      ESP Fit Center   76 is at   0.443338 -1.705328 -1.972179
      ESP Fit Center   77 is at   1.161580 -1.705328 -1.972179
      ESP Fit Center   78 is at   0.802459 -1.083312 -2.098825
      ESP Fit Center   79 is at   0.156987  0.163997  2.099826
      ESP Fit Center   80 is at   0.875229  0.163997  1.973181
      ESP Fit Center   81 is at  -0.202134  0.786013  1.973181
      ESP Fit Center   82 is at  -0.561255  0.163997  1.973181
      ESP Fit Center   83 is at  -0.202134 -0.458019  1.973181
      ESP Fit Center   84 is at   0.875229  0.163997 -1.973528
      ESP Fit Center   85 is at  -0.202134  0.786013 -1.973528
      ESP Fit Center   86 is at  -0.561255  0.163997 -1.973528
      ESP Fit Center   87 is at  -0.202134 -0.458019 -1.973528
      ESP Fit Center   88 is at   0.156987  0.163997 -2.100174
      ESP Fit Center   89 is at  -1.309423  0.228010  2.099887
      ESP Fit Center   90 is at  -0.591181  0.228010  1.973242
      ESP Fit Center   91 is at  -0.950302  0.850026  1.973242
      ESP Fit Center   92 is at  -2.027665  0.228010  1.973242
      ESP Fit Center   93 is at  -0.950302 -0.394006  1.973242
      ESP Fit Center   94 is at  -0.748673  1.455880  1.608580
      ESP Fit Center   95 is at  -0.748673  1.455880 -1.608806
      ESP Fit Center   96 is at  -0.591181  0.228010 -1.973467
      ESP Fit Center   97 is at  -0.950302  0.850026 -1.973467
      ESP Fit Center   98 is at  -2.027665  0.228010 -1.973467
      ESP Fit Center   99 is at  -0.950302 -0.394006 -1.973467
      ESP Fit Center  100 is at  -1.309423  0.228010 -2.100113
      ESP Fit Center  101 is at  -2.123087  1.349793  2.100803
      ESP Fit Center  102 is at  -1.404845  1.349793  1.974158
      ESP Fit Center  103 is at  -1.763966  1.971809  1.974158
      ESP Fit Center  104 is at  -2.482208  1.971809  1.974158
      ESP Fit Center  105 is at  -2.841329  1.349793  1.974158
      ESP Fit Center  106 is at  -2.482208  0.727777  1.974158
      ESP Fit Center  107 is at  -0.987518  2.079579  1.609496
      ESP Fit Center  108 is at  -2.315191  2.685907  1.609496
      ESP Fit Center  109 is at  -3.007053  2.369945  1.609496
      ESP Fit Center  110 is at  -0.987518  2.079579 -1.607890
      ESP Fit Center  111 is at  -2.315191  2.685907 -1.607890
      ESP Fit Center  112 is at  -3.007053  2.369945 -1.607890
      ESP Fit Center  113 is at  -1.404845  1.349793 -1.972551
      ESP Fit Center  114 is at  -1.763966  1.971809 -1.972551
      ESP Fit Center  115 is at  -2.482208  1.971809 -1.972551
      ESP Fit Center  116 is at  -2.841329  1.349793 -1.972551
      ESP Fit Center  117 is at  -2.482208  0.727777 -1.972551
      ESP Fit Center  118 is at  -2.123087  1.349793 -2.099197
      ESP Fit Center  119 is at  -3.417004  0.861900  2.100654
      ESP Fit Center  120 is at  -2.698762  0.861900  1.974009
      ESP Fit Center  121 is at  -3.057883  1.483916  1.974009
      ESP Fit Center  122 is at  -3.776125  1.483916  1.974009
      ESP Fit Center  123 is at  -4.135246  0.861900  1.974009
      ESP Fit Center  124 is at  -3.776125  0.239884  1.974009
      ESP Fit Center  125 is at  -3.057883  0.239884  1.974009
      ESP Fit Center  126 is at  -3.609108  2.198014  1.609347
      ESP Fit Center  127 is at  -3.609108  2.198014 -1.608039
      ESP Fit Center  128 is at  -2.698762  0.861900 -1.972700
      ESP Fit Center  129 is at  -3.057883  1.483916 -1.972700
      ESP Fit Center  130 is at  -3.776125  1.483916 -1.972700
      ESP Fit Center  131 is at  -4.135246  0.861900 -1.972700
      ESP Fit Center  132 is at  -3.776125  0.239884 -1.972700
      ESP Fit Center  133 is at  -3.057883  0.239884 -1.972700
      ESP Fit Center  134 is at  -3.417004  0.861900 -2.099346
      ESP Fit Center  135 is at  -4.722220  1.339588  2.101441
      ESP Fit Center  136 is at  -4.003978  1.339588  1.974796
      ESP Fit Center  137 is at  -4.363099  1.961604  1.974796
      ESP Fit Center  138 is at  -5.081341  1.961604  1.974796
      ESP Fit Center  139 is at  -5.440462  1.339588  1.974796
      ESP Fit Center  140 is at  -4.363099  0.717572  1.974796
      ESP Fit Center  141 is at  -4.161470  2.567458  1.610134
      ESP Fit Center  142 is at  -5.606186  2.359739  1.610134
      ESP Fit Center  143 is at  -6.017395  1.719886  1.610134
      ESP Fit Center  144 is at  -3.505303  2.691111  1.051441
      ESP Fit Center  145 is at  -3.505303  2.691111 -1.048559
      ESP Fit Center  146 is at  -4.161470  2.567458 -1.607252
      ESP Fit Center  147 is at  -5.606186  2.359739 -1.607252
      ESP Fit Center  148 is at  -6.017395  1.719886 -1.607252
      ESP Fit Center  149 is at  -4.003978  1.339588 -1.971913
      ESP Fit Center  150 is at  -4.363099  1.961604 -1.971913
      ESP Fit Center  151 is at  -5.081341  1.961604 -1.971913
      ESP Fit Center  152 is at  -5.440462  1.339588 -1.971913
      ESP Fit Center  153 is at  -4.363099  0.717572 -1.971913
      ESP Fit Center  154 is at  -4.722220  1.339588 -2.098559
      ESP Fit Center  155 is at  -5.631485  0.340126  2.100742
      ESP Fit Center  156 is at  -4.913243  0.340126  1.974097
      ESP Fit Center  157 is at  -5.990606  0.962142  1.974097
      ESP Fit Center  158 is at  -6.349727  0.340126  1.974097
      ESP Fit Center  159 is at  -5.990606 -0.281890  1.974097
      ESP Fit Center  160 is at  -6.515451  1.360277  1.609435
      ESP Fit Center  161 is at  -6.926660 -0.040172  1.609435
      ESP Fit Center  162 is at  -6.540812  1.915126  1.050742
      ESP Fit Center  163 is at  -6.540812  1.915126 -1.049258
      ESP Fit Center  164 is at  -6.515451  1.360277 -1.607951
      ESP Fit Center  165 is at  -6.926660 -0.040172 -1.607951
      ESP Fit Center  166 is at  -4.913243  0.340126 -1.972612
      ESP Fit Center  167 is at  -5.990606  0.962142 -1.972612
      ESP Fit Center  168 is at  -6.349727  0.340126 -1.972612
      ESP Fit Center  169 is at  -5.990606 -0.281890 -1.972612
      ESP Fit Center  170 is at  -5.631485  0.340126 -2.099258
      ESP Fit Center  171 is at  -4.894219 -1.263863  2.449068
      ESP Fit Center  172 is at  -4.137127 -1.263863  2.329156
      ESP Fit Center  173 is at  -4.515673 -0.608203  2.329156
      ESP Fit Center  174 is at  -5.272765 -0.608203  2.329156
      ESP Fit Center  175 is at  -5.651310 -1.263863  2.329156
      ESP Fit Center  176 is at  -5.272765 -1.919524  2.329156
      ESP Fit Center  177 is at  -4.515673 -1.919524  2.329156
      ESP Fit Center  178 is at  -3.454145 -1.263863  1.981160
      ESP Fit Center  179 is at  -4.174182 -0.016723  1.981160
      ESP Fit Center  180 is at  -4.894219  0.176211  1.981160
      ESP Fit Center  181 is at  -6.141359 -0.543826  1.981160
      ESP Fit Center  182 is at  -6.334293 -1.263863  1.981160
      ESP Fit Center  183 is at  -6.141359 -1.983900  1.981160
      ESP Fit Center  184 is at  -5.614256 -2.511004  1.981160
      ESP Fit Center  185 is at  -4.894219 -2.703937  1.981160
      ESP Fit Center  186 is at  -4.174182 -2.511004  1.981160
      ESP Fit Center  187 is at  -3.647078 -1.983900  1.981160
      ESP Fit Center  188 is at  -6.876310 -1.263863  1.439142
      ESP Fit Center  189 is at  -6.725433 -2.022377  1.439142
      ESP Fit Center  190 is at  -6.295769 -2.665414  1.439142
      ESP Fit Center  191 is at  -5.652732 -3.095077  1.439142
      ESP Fit Center  192 is at  -4.894219 -3.245955  1.439142
      ESP Fit Center  193 is at  -4.135705 -3.095077  1.439142
      ESP Fit Center  194 is at  -3.492668 -2.665414  1.439142
      ESP Fit Center  195 is at  -7.192528 -1.647383  0.756160
      ESP Fit Center  196 is at  -6.943470 -2.372863  0.756160
      ESP Fit Center  197 is at  -6.472345 -2.978165  0.756160
      ESP Fit Center  198 is at  -5.830205 -3.397696  0.756160
      ESP Fit Center  199 is at  -5.086636 -3.585993  0.756160
      ESP Fit Center  200 is at  -4.322216 -3.522651  0.756160
      ESP Fit Center  201 is at  -3.619781 -3.214535  0.756160
      ESP Fit Center  202 is at  -3.055452 -2.695033  0.756160
      ESP Fit Center  203 is at  -7.316854 -1.629017 -0.000932
      ESP Fit Center  204 is at  -7.101593 -2.326878 -0.000932
      ESP Fit Center  205 is at  -6.690196 -2.930286 -0.000932
      ESP Fit Center  206 is at  -6.119219 -3.385625 -0.000932
      ESP Fit Center  207 is at  -5.439395 -3.652436 -0.000932
      ESP Fit Center  208 is at  -4.711130 -3.707012 -0.000932
      ESP Fit Center  209 is at  -3.999133 -3.544504 -0.000932
      ESP Fit Center  210 is at  -3.366669 -3.179350 -0.000932
      ESP Fit Center  211 is at  -7.192528 -1.647383 -0.758024
      ESP Fit Center  212 is at  -6.943470 -2.372863 -0.758024
      ESP Fit Center  213 is at  -6.472345 -2.978165 -0.758024
      ESP Fit Center  214 is at  -5.830205 -3.397696 -0.758024
      ESP Fit Center  215 is at  -5.086636 -3.585993 -0.758024
      ESP Fit Center  216 is at  -4.322216 -3.522651 -0.758024
      ESP Fit Center  217 is at  -3.619781 -3.214535 -0.758024
      ESP Fit Center  218 is at  -3.055452 -2.695033 -0.758024
      ESP Fit Center  219 is at  -6.876310 -1.263863 -1.441006
      ESP Fit Center  220 is at  -6.725433 -2.022377 -1.441006
      ESP Fit Center  221 is at  -6.295769 -2.665414 -1.441006
      ESP Fit Center  222 is at  -5.652732 -3.095077 -1.441006
      ESP Fit Center  223 is at  -4.894219 -3.245955 -1.441006
      ESP Fit Center  224 is at  -4.135705 -3.095077 -1.441006
      ESP Fit Center  225 is at  -3.492668 -2.665414 -1.441006
      ESP Fit Center  226 is at  -3.454145 -1.263863 -1.983024
      ESP Fit Center  227 is at  -4.174182 -0.016723 -1.983024
      ESP Fit Center  228 is at  -4.894219  0.176211 -1.983024
      ESP Fit Center  229 is at  -6.141359 -0.543826 -1.983024
      ESP Fit Center  230 is at  -6.334293 -1.263863 -1.983024
      ESP Fit Center  231 is at  -6.141359 -1.983900 -1.983024
      ESP Fit Center  232 is at  -5.614256 -2.511004 -1.983024
      ESP Fit Center  233 is at  -4.894219 -2.703937 -1.983024
      ESP Fit Center  234 is at  -4.174182 -2.511004 -1.983024
      ESP Fit Center  235 is at  -3.647078 -1.983900 -1.983024
      ESP Fit Center  236 is at  -4.137127 -1.263863 -2.331020
      ESP Fit Center  237 is at  -4.515673 -0.608203 -2.331020
      ESP Fit Center  238 is at  -5.272765 -0.608203 -2.331020
      ESP Fit Center  239 is at  -5.651310 -1.263863 -2.331020
      ESP Fit Center  240 is at  -5.272765 -1.919524 -2.331020
      ESP Fit Center  241 is at  -4.515673 -1.919524 -2.331020
      ESP Fit Center  242 is at  -4.894219 -1.263863 -2.450932
      ESP Fit Center  243 is at  -3.306546 -0.516098  2.099416
      ESP Fit Center  244 is at  -2.947425  0.105918  1.972771
      ESP Fit Center  245 is at  -3.665667  0.105918  1.972771
      ESP Fit Center  246 is at  -2.947425 -1.138114  1.972771
      ESP Fit Center  247 is at  -2.947425  0.105918 -1.973938
      ESP Fit Center  248 is at  -3.665667  0.105918 -1.973938
      ESP Fit Center  249 is at  -2.947425 -1.138114 -1.973938
      ESP Fit Center  250 is at  -3.306546 -0.516098 -2.100584
      ESP Fit Center  251 is at  -2.068464 -0.936239  2.098896
      ESP Fit Center  252 is at  -1.350222 -0.936239  1.972251
      ESP Fit Center  253 is at  -2.427585 -0.314223  1.972251
      ESP Fit Center  254 is at  -2.427585 -1.558255  1.972251
      ESP Fit Center  255 is at  -1.709343 -1.558255  1.972251
      ESP Fit Center  256 is at  -2.952430 -1.956391  1.607589
      ESP Fit Center  257 is at  -2.260568 -2.272353  1.607589
      ESP Fit Center  258 is at  -1.507714 -2.164109  1.607589
      ESP Fit Center  259 is at  -0.932894 -1.666025  1.607589
      ESP Fit Center  260 is at  -2.977791 -2.511239  1.048896
      ESP Fit Center  261 is at  -2.258565 -2.744930  1.048896
      ESP Fit Center  262 is at  -1.506469 -2.665881  1.048896
      ESP Fit Center  263 is at  -2.634425 -2.925387  0.363557
      ESP Fit Center  264 is at  -1.877644 -2.995513  0.363557
      ESP Fit Center  265 is at  -2.634425 -2.925387 -0.365765
      ESP Fit Center  266 is at  -1.877644 -2.995513 -0.365765
      ESP Fit Center  267 is at  -2.977791 -2.511239 -1.051104
      ESP Fit Center  268 is at  -2.258565 -2.744930 -1.051104
      ESP Fit Center  269 is at  -1.506469 -2.665881 -1.051104
      ESP Fit Center  270 is at  -2.952430 -1.956391 -1.609797
      ESP Fit Center  271 is at  -2.260568 -2.272353 -1.609797
      ESP Fit Center  272 is at  -1.507714 -2.164109 -1.609797
      ESP Fit Center  273 is at  -0.932894 -1.666025 -1.609797
      ESP Fit Center  274 is at  -1.350222 -0.936239 -1.974458
      ESP Fit Center  275 is at  -2.427585 -0.314223 -1.974458
      ESP Fit Center  276 is at  -2.427585 -1.558255 -1.974458
      ESP Fit Center  277 is at  -1.709343 -1.558255 -1.974458
      ESP Fit Center  278 is at  -2.068464 -0.936239 -2.101104
      ESP Fit Center  279 is at   4.861285 -0.118212  3.220132
      ESP Fit Center  280 is at   5.577803 -0.118212  3.139400
      ESP Fit Center  281 is at   5.219544  0.502311  3.139400
      ESP Fit Center  282 is at   4.503026  0.502311  3.139400
      ESP Fit Center  283 is at   4.144768 -0.118212  3.139400
      ESP Fit Center  284 is at   4.503026 -0.738734  3.139400
      ESP Fit Center  285 is at   5.219544 -0.738734  3.139400
      ESP Fit Center  286 is at   6.258391 -0.118212  2.901252
      ESP Fit Center  287 is at   6.071214  0.580341  2.901252
      ESP Fit Center  288 is at   5.559838  1.091717  2.901252
      ESP Fit Center  289 is at   4.861285  1.278894  2.901252
      ESP Fit Center  290 is at   4.162732  1.091717  2.901252
      ESP Fit Center  291 is at   3.651356  0.580341  2.901252
      ESP Fit Center  292 is at   3.464179 -0.118212  2.901252
      ESP Fit Center  293 is at   3.651356 -0.816765  2.901252
      ESP Fit Center  294 is at   4.162732 -1.328141  2.901252
      ESP Fit Center  295 is at   4.861285 -1.515317  2.901252
      ESP Fit Center  296 is at   5.559838 -1.328141  2.901252
      ESP Fit Center  297 is at   6.071214 -0.816765  2.901252
      ESP Fit Center  298 is at   6.868922 -0.118212  2.517629
      ESP Fit Center  299 is at   6.733351  0.607030  2.517629
      ESP Fit Center  300 is at   6.344947  1.234325  2.517629
      ESP Fit Center  301 is at   5.756166  1.678951  2.517629
      ESP Fit Center  302 is at   5.046527  1.880861  2.517629
      ESP Fit Center  303 is at   4.311869  1.812785  2.517629
      ESP Fit Center  304 is at   3.651413  1.483917  2.517629
      ESP Fit Center  305 is at   3.154358  0.938673  2.517629
      ESP Fit Center  306 is at   2.887832  0.250691  2.517629
      ESP Fit Center  307 is at   2.887832 -0.487114  2.517629
      ESP Fit Center  308 is at   3.154358 -1.175096  2.517629
      ESP Fit Center  309 is at   3.651413 -1.720341  2.517629
      ESP Fit Center  310 is at   4.311869 -2.049209  2.517629
      ESP Fit Center  311 is at   5.046527 -2.117285  2.517629
      ESP Fit Center  312 is at   5.756166 -1.915375  2.517629
      ESP Fit Center  313 is at   6.344947 -1.470748  2.517629
      ESP Fit Center  314 is at   6.733351 -0.843454  2.517629
      ESP Fit Center  315 is at   7.378782 -0.118212  2.007769
      ESP Fit Center  316 is at   7.266937  0.623834  2.007769
      ESP Fit Center  317 is at   6.941339  1.299945  2.007769
      ESP Fit Center  318 is at   6.430919  1.850047  2.007769
      ESP Fit Center  319 is at   5.781030  2.225261  2.007769
      ESP Fit Center  320 is at   5.049418  2.392246  2.007769
      ESP Fit Center  321 is at   4.301089  2.336167  2.007769
      ESP Fit Center  322 is at   3.602536  2.062005  2.007769
      ESP Fit Center  323 is at   3.015829  1.594121  2.007769
      ESP Fit Center  324 is at   2.371906  0.257002  2.007769
      ESP Fit Center  325 is at   2.371906 -0.493425  2.007769
      ESP Fit Center  326 is at   3.015829 -1.830545  2.007769
      ESP Fit Center  327 is at   3.602536 -2.298428  2.007769
      ESP Fit Center  328 is at   4.301089 -2.572590  2.007769
      ESP Fit Center  329 is at   5.049418 -2.628670  2.007769
      ESP Fit Center  330 is at   5.781030 -2.461684  2.007769
      ESP Fit Center  331 is at   6.430919 -2.086470  2.007769
      ESP Fit Center  332 is at   6.941339 -1.536368  2.007769
      ESP Fit Center  333 is at   7.266937 -0.860257  2.007769
      ESP Fit Center  334 is at   7.762405 -0.118212  1.397238
      ESP Fit Center  335 is at   7.671261  0.603267  1.397238
      ESP Fit Center  336 is at   7.403556  1.279413  1.397238
      ESP Fit Center  337 is at   6.976110  1.867741  1.397238
      ESP Fit Center  338 is at   6.415783  2.331285  1.397238
      ESP Fit Center  339 is at   5.757780  2.640917  1.397238
      ESP Fit Center  340 is at   5.043448  2.777183  1.397238
      ESP Fit Center  341 is at   4.317669  2.731521  1.397238
      ESP Fit Center  342 is at   3.626048 -2.743223  1.397238
      ESP Fit Center  343 is at   4.317669 -2.967945  1.397238
      ESP Fit Center  344 is at   5.043448 -3.013607  1.397238
      ESP Fit Center  345 is at   5.757780 -2.877341  1.397238
      ESP Fit Center  346 is at   6.415783 -2.567708  1.397238
      ESP Fit Center  347 is at   6.976110 -2.104165  1.397238
      ESP Fit Center  348 is at   7.403556 -1.515837  1.397238
      ESP Fit Center  349 is at   7.671261 -0.839691  1.397238
      ESP Fit Center  350 is at   8.000553 -0.118212  0.716649
      ESP Fit Center  351 is at   7.915934  0.605753  0.716649
      ESP Fit Center  352 is at   7.666637  1.290689  0.716649
      ESP Fit Center  353 is at   7.266104  1.899671  0.716649
      ESP Fit Center  354 is at   6.735926  2.399868  0.716649
      ESP Fit Center  355 is at   6.104686  2.764315  0.716649
      ESP Fit Center  356 is at   5.406413  2.973364  0.716649
      ESP Fit Center  357 is at   4.678753  3.015745  0.716649
      ESP Fit Center  358 is at   3.960933 -3.125597  0.716649
      ESP Fit Center  359 is at   4.678753 -3.252168  0.716649
      ESP Fit Center  360 is at   5.406413 -3.209787  0.716649
      ESP Fit Center  361 is at   6.104686 -3.000738  0.716649
      ESP Fit Center  362 is at   6.735926 -2.636291  0.716649
      ESP Fit Center  363 is at   7.266104 -2.136094  0.716649
      ESP Fit Center  364 is at   7.666637 -1.527113  0.716649
      ESP Fit Center  365 is at   7.915934 -0.842177  0.716649
      ESP Fit Center  366 is at   8.081285 -0.118212  0.000132
      ESP Fit Center  367 is at   8.000553  0.598306  0.000132
      ESP Fit Center  368 is at   7.762405  1.278894  0.000132
      ESP Fit Center  369 is at   7.378782  1.889425  0.000132
      ESP Fit Center  370 is at   6.868922  2.399286  0.000132
      ESP Fit Center  371 is at   6.258391  2.782908  0.000132
      ESP Fit Center  372 is at   5.577803  3.021056  0.000132
      ESP Fit Center  373 is at   4.861285  3.101788  0.000132
      ESP Fit Center  374 is at   4.144768 -3.257480  0.000132
      ESP Fit Center  375 is at   4.861285 -3.338212  0.000132
      ESP Fit Center  376 is at   5.577803 -3.257480  0.000132
      ESP Fit Center  377 is at   6.258391 -3.019331  0.000132
      ESP Fit Center  378 is at   6.868922 -2.635709  0.000132
      ESP Fit Center  379 is at   7.378782 -2.125849  0.000132
      ESP Fit Center  380 is at   7.762405 -1.515317  0.000132
      ESP Fit Center  381 is at   8.000553 -0.834729  0.000132
      ESP Fit Center  382 is at   8.000553 -0.118212 -0.716385
      ESP Fit Center  383 is at   7.915934  0.605753 -0.716385
      ESP Fit Center  384 is at   7.666637  1.290689 -0.716385
      ESP Fit Center  385 is at   7.266104  1.899671 -0.716385
      ESP Fit Center  386 is at   6.735926  2.399868 -0.716385
      ESP Fit Center  387 is at   6.104686  2.764315 -0.716385
      ESP Fit Center  388 is at   5.406413  2.973364 -0.716385
      ESP Fit Center  389 is at   4.678753  3.015745 -0.716385
      ESP Fit Center  390 is at   3.960933 -3.125597 -0.716385
      ESP Fit Center  391 is at   4.678753 -3.252168 -0.716385
      ESP Fit Center  392 is at   5.406413 -3.209787 -0.716385
      ESP Fit Center  393 is at   6.104686 -3.000738 -0.716385
      ESP Fit Center  394 is at   6.735926 -2.636291 -0.716385
      ESP Fit Center  395 is at   7.266104 -2.136094 -0.716385
      ESP Fit Center  396 is at   7.666637 -1.527113 -0.716385
      ESP Fit Center  397 is at   7.915934 -0.842177 -0.716385
      ESP Fit Center  398 is at   7.762405 -0.118212 -1.396974
      ESP Fit Center  399 is at   7.671261  0.603267 -1.396974
      ESP Fit Center  400 is at   7.403556  1.279413 -1.396974
      ESP Fit Center  401 is at   6.976110  1.867741 -1.396974
      ESP Fit Center  402 is at   6.415783  2.331285 -1.396974
      ESP Fit Center  403 is at   5.757780  2.640917 -1.396974
      ESP Fit Center  404 is at   5.043448  2.777183 -1.396974
      ESP Fit Center  405 is at   4.317669  2.731521 -1.396974
      ESP Fit Center  406 is at   3.626048 -2.743223 -1.396974
      ESP Fit Center  407 is at   4.317669 -2.967945 -1.396974
      ESP Fit Center  408 is at   5.043448 -3.013607 -1.396974
      ESP Fit Center  409 is at   5.757780 -2.877341 -1.396974
      ESP Fit Center  410 is at   6.415783 -2.567708 -1.396974
      ESP Fit Center  411 is at   6.976110 -2.104165 -1.396974
      ESP Fit Center  412 is at   7.403556 -1.515837 -1.396974
      ESP Fit Center  413 is at   7.671261 -0.839691 -1.396974
      ESP Fit Center  414 is at   7.378782 -0.118212 -2.007505
      ESP Fit Center  415 is at   7.266937  0.623834 -2.007505
      ESP Fit Center  416 is at   6.941339  1.299945 -2.007505
      ESP Fit Center  417 is at   6.430919  1.850047 -2.007505
      ESP Fit Center  418 is at   5.781030  2.225261 -2.007505
      ESP Fit Center  419 is at   5.049418  2.392246 -2.007505
      ESP Fit Center  420 is at   4.301089  2.336167 -2.007505
      ESP Fit Center  421 is at   3.602536  2.062005 -2.007505
      ESP Fit Center  422 is at   3.015829  1.594121 -2.007505
      ESP Fit Center  423 is at   2.371906  0.257002 -2.007505
      ESP Fit Center  424 is at   2.371906 -0.493425 -2.007505
      ESP Fit Center  425 is at   3.015829 -1.830545 -2.007505
      ESP Fit Center  426 is at   3.602536 -2.298428 -2.007505
      ESP Fit Center  427 is at   4.301089 -2.572590 -2.007505
      ESP Fit Center  428 is at   5.049418 -2.628670 -2.007505
      ESP Fit Center  429 is at   5.781030 -2.461684 -2.007505
      ESP Fit Center  430 is at   6.430919 -2.086470 -2.007505
      ESP Fit Center  431 is at   6.941339 -1.536368 -2.007505
      ESP Fit Center  432 is at   7.266937 -0.860257 -2.007505
      ESP Fit Center  433 is at   6.868922 -0.118212 -2.517365
      ESP Fit Center  434 is at   6.733351  0.607030 -2.517365
      ESP Fit Center  435 is at   6.344947  1.234325 -2.517365
      ESP Fit Center  436 is at   5.756166  1.678951 -2.517365
      ESP Fit Center  437 is at   5.046527  1.880861 -2.517365
      ESP Fit Center  438 is at   4.311869  1.812785 -2.517365
      ESP Fit Center  439 is at   3.651413  1.483917 -2.517365
      ESP Fit Center  440 is at   3.154358  0.938673 -2.517365
      ESP Fit Center  441 is at   2.887832  0.250691 -2.517365
      ESP Fit Center  442 is at   2.887832 -0.487114 -2.517365
      ESP Fit Center  443 is at   3.154358 -1.175096 -2.517365
      ESP Fit Center  444 is at   3.651413 -1.720341 -2.517365
      ESP Fit Center  445 is at   4.311869 -2.049209 -2.517365
      ESP Fit Center  446 is at   5.046527 -2.117285 -2.517365
      ESP Fit Center  447 is at   5.756166 -1.915375 -2.517365
      ESP Fit Center  448 is at   6.344947 -1.470748 -2.517365
      ESP Fit Center  449 is at   6.733351 -0.843454 -2.517365
      ESP Fit Center  450 is at   6.258391 -0.118212 -2.900988
      ESP Fit Center  451 is at   6.071214  0.580341 -2.900988
      ESP Fit Center  452 is at   5.559838  1.091717 -2.900988
      ESP Fit Center  453 is at   4.861285  1.278894 -2.900988
      ESP Fit Center  454 is at   4.162732  1.091717 -2.900988
      ESP Fit Center  455 is at   3.651356  0.580341 -2.900988
      ESP Fit Center  456 is at   3.464179 -0.118212 -2.900988
      ESP Fit Center  457 is at   3.651356 -0.816765 -2.900988
      ESP Fit Center  458 is at   4.162732 -1.328141 -2.900988
      ESP Fit Center  459 is at   4.861285 -1.515317 -2.900988
      ESP Fit Center  460 is at   5.559838 -1.328141 -2.900988
      ESP Fit Center  461 is at   6.071214 -0.816765 -2.900988
      ESP Fit Center  462 is at   5.577803 -0.118212 -3.139136
      ESP Fit Center  463 is at   5.219544  0.502311 -3.139136
      ESP Fit Center  464 is at   4.503026  0.502311 -3.139136
      ESP Fit Center  465 is at   4.144768 -0.118212 -3.139136
      ESP Fit Center  466 is at   4.503026 -0.738734 -3.139136
      ESP Fit Center  467 is at   5.219544 -0.738734 -3.139136
      ESP Fit Center  468 is at   4.861285 -0.118212 -3.219868
      ESP Fit Center  469 is at   0.846196  2.936125  1.510708
      ESP Fit Center  470 is at   0.117272  2.936125  1.510708
      ESP Fit Center  471 is at  -0.247191  2.304858  1.510708
      ESP Fit Center  472 is at   1.544359  3.076900  1.044543
      ESP Fit Center  473 is at   0.887621  3.554049  1.044543
      ESP Fit Center  474 is at   0.075847  3.554049  1.044543
      ESP Fit Center  475 is at  -0.580891  3.076900  1.044543
      ESP Fit Center  476 is at   1.412155  3.652806  0.370915
      ESP Fit Center  477 is at   0.679158  3.930795  0.370915
      ESP Fit Center  478 is at  -0.099066  3.836301  0.370915
      ESP Fit Center  479 is at   1.412155  3.652806 -0.376755
      ESP Fit Center  480 is at   0.679158  3.930795 -0.376755
      ESP Fit Center  481 is at  -0.099066  3.836301 -0.376755
      ESP Fit Center  482 is at   1.544359  3.076900 -1.050383
      ESP Fit Center  483 is at   0.887621  3.554049 -1.050383
      ESP Fit Center  484 is at   0.075847  3.554049 -1.050383
      ESP Fit Center  485 is at  -0.580891  3.076900 -1.050383
      ESP Fit Center  486 is at   0.846196  2.936125 -1.516548
      ESP Fit Center  487 is at   0.117272  2.936125 -1.516548
      ESP Fit Center  488 is at  -0.247191  2.304858 -1.516548
      ESP Fit Center  489 is at   3.306091  2.780958  1.511072
      ESP Fit Center  490 is at   2.577167  2.780958  1.511072
      ESP Fit Center  491 is at   4.004254  2.921733  1.044907
      ESP Fit Center  492 is at   3.347516  3.398881  1.044907
      ESP Fit Center  493 is at   2.535742  3.398881  1.044907
      ESP Fit Center  494 is at   3.872050  3.497638  0.371279
      ESP Fit Center  495 is at   3.139054  3.775627  0.371279
      ESP Fit Center  496 is at   2.360829  3.681134  0.371279
      ESP Fit Center  497 is at   3.872050  3.497638 -0.376391
      ESP Fit Center  498 is at   3.139054  3.775627 -0.376391
      ESP Fit Center  499 is at   2.360829  3.681134 -0.376391
      ESP Fit Center  500 is at   4.004254  2.921733 -1.050019
      ESP Fit Center  501 is at   3.347516  3.398881 -1.050019
      ESP Fit Center  502 is at   2.535742  3.398881 -1.050019
      ESP Fit Center  503 is at   3.306091  2.780958 -1.516184
      ESP Fit Center  504 is at   2.577167  2.780958 -1.516184
      ESP Fit Center  505 is at   2.316689 -2.772494  1.515961
      ESP Fit Center  506 is at   3.045614 -2.772494  1.515961
      ESP Fit Center  507 is at   1.618526 -2.913269  1.049796
      ESP Fit Center  508 is at   2.275265 -3.390418  1.049796
      ESP Fit Center  509 is at   3.087038 -3.390418  1.049796
      ESP Fit Center  510 is at   1.455181 -3.227341  0.376168
      ESP Fit Center  511 is at   2.100351 -3.672670  0.376168
      ESP Fit Center  512 is at   2.878576 -3.767164  0.376168
      ESP Fit Center  513 is at   3.611572 -3.489175  0.376168
      ESP Fit Center  514 is at   1.455181 -3.227341 -0.371502
      ESP Fit Center  515 is at   2.100351 -3.672670 -0.371502
      ESP Fit Center  516 is at   2.878576 -3.767164 -0.371502
      ESP Fit Center  517 is at   3.611572 -3.489175 -0.371502
      ESP Fit Center  518 is at   1.618526 -2.913269 -1.045130
      ESP Fit Center  519 is at   2.275265 -3.390418 -1.045130
      ESP Fit Center  520 is at   3.087038 -3.390418 -1.045130
      ESP Fit Center  521 is at   2.316689 -2.772494 -1.511295
      ESP Fit Center  522 is at   3.045614 -2.772494 -1.511295
      ESP Fit Center  523 is at  -0.531519 -1.983402  1.515782
      ESP Fit Center  524 is at  -0.167057 -2.614669  1.515782
      ESP Fit Center  525 is at   0.561868 -2.614669  1.515782
      ESP Fit Center  526 is at  -0.865220 -2.755444  1.049617
      ESP Fit Center  527 is at  -0.208481 -3.232593  1.049617
      ESP Fit Center  528 is at   0.603292 -3.232593  1.049617
      ESP Fit Center  529 is at  -1.028565 -3.069517  0.375989
      ESP Fit Center  530 is at  -0.383395 -3.514845  0.375989
      ESP Fit Center  531 is at   0.394830 -3.609339  0.375989
      ESP Fit Center  532 is at   1.127826 -3.331350  0.375989
      ESP Fit Center  533 is at  -1.028565 -3.069517 -0.371681
      ESP Fit Center  534 is at  -0.383395 -3.514845 -0.371681
      ESP Fit Center  535 is at   0.394830 -3.609339 -0.371681
      ESP Fit Center  536 is at   1.127826 -3.331350 -0.371681
      ESP Fit Center  537 is at  -0.865220 -2.755444 -1.045309
      ESP Fit Center  538 is at  -0.208481 -3.232593 -1.045309
      ESP Fit Center  539 is at   0.603292 -3.232593 -1.045309
      ESP Fit Center  540 is at  -0.531519 -1.983402 -1.511474
      ESP Fit Center  541 is at  -0.167057 -2.614669 -1.511474
      ESP Fit Center  542 is at   0.561868 -2.614669 -1.511474
      ESP Fit Center  543 is at  -1.548695  3.038711  1.515492
      ESP Fit Center  544 is at  -2.277619  3.038711  1.515492
      ESP Fit Center  545 is at  -0.850532  3.179486  1.049327
      ESP Fit Center  546 is at  -1.507270  3.656635  1.049327
      ESP Fit Center  547 is at  -2.319044  3.656635  1.049327
      ESP Fit Center  548 is at  -2.975782  3.179486  1.049327
      ESP Fit Center  549 is at  -0.982736  3.755392  0.375699
      ESP Fit Center  550 is at  -1.715733  4.033381  0.375699
      ESP Fit Center  551 is at  -2.493957  3.938887  0.375699
      ESP Fit Center  552 is at  -3.139127  3.493559  0.375699
      ESP Fit Center  553 is at  -0.982736  3.755392 -0.371971
      ESP Fit Center  554 is at  -1.715733  4.033381 -0.371971
      ESP Fit Center  555 is at  -2.493957  3.938887 -0.371971
      ESP Fit Center  556 is at  -3.139127  3.493559 -0.371971
      ESP Fit Center  557 is at  -0.850532  3.179486 -1.045599
      ESP Fit Center  558 is at  -1.507270  3.656635 -1.045599
      ESP Fit Center  559 is at  -2.319044  3.656635 -1.045599
      ESP Fit Center  560 is at  -2.975782  3.179486 -1.045599
      ESP Fit Center  561 is at  -1.548695  3.038711 -1.511764
      ESP Fit Center  562 is at  -2.277619  3.038711 -1.511764
      ESP Fit Center  563 is at  -4.549140  3.035046  1.516044
      ESP Fit Center  564 is at  -5.278064  3.035046  1.516044
      ESP Fit Center  565 is at  -3.850977  3.175821  1.049879
      ESP Fit Center  566 is at  -4.507715  3.652970  1.049879
      ESP Fit Center  567 is at  -5.319489  3.652970  1.049879
      ESP Fit Center  568 is at  -5.976227  3.175821  1.049879
      ESP Fit Center  569 is at  -6.227079  2.403779  1.049879
      ESP Fit Center  570 is at  -3.463332  3.164939  0.376251
      ESP Fit Center  571 is at  -3.983181  3.751727  0.376251
      ESP Fit Center  572 is at  -4.716178  4.029716  0.376251
      ESP Fit Center  573 is at  -5.494402  3.935222  0.376251
      ESP Fit Center  574 is at  -6.139572  3.489893  0.376251
      ESP Fit Center  575 is at  -6.503887  2.795749  0.376251
      ESP Fit Center  576 is at  -3.463332  3.164939 -0.371419
      ESP Fit Center  577 is at  -3.983181  3.751727 -0.371419
      ESP Fit Center  578 is at  -4.716178  4.029716 -0.371419
      ESP Fit Center  579 is at  -5.494402  3.935222 -0.371419
      ESP Fit Center  580 is at  -6.139572  3.489893 -0.371419
      ESP Fit Center  581 is at  -6.503887  2.795749 -0.371419
      ESP Fit Center  582 is at  -3.850977  3.175821 -1.045047
      ESP Fit Center  583 is at  -4.507715  3.652970 -1.045047
      ESP Fit Center  584 is at  -5.319489  3.652970 -1.045047
      ESP Fit Center  585 is at  -5.976227  3.175821 -1.045047
      ESP Fit Center  586 is at  -6.227079  2.403779 -1.045047
      ESP Fit Center  587 is at  -4.549140  3.035046 -1.511212
      ESP Fit Center  588 is at  -5.278064  3.035046 -1.511212
      ESP Fit Center  589 is at  -7.071266  1.073653  1.514674
      ESP Fit Center  590 is at  -7.435729  0.442386  1.514674
      ESP Fit Center  591 is at  -7.071266 -0.188881  1.514674
      ESP Fit Center  592 is at  -7.112691  1.691577  1.048509
      ESP Fit Center  593 is at  -7.769429  1.214428  1.048509
      ESP Fit Center  594 is at  -8.020281  0.442386  1.048509
      ESP Fit Center  595 is at  -7.769429 -0.329657  1.048509
      ESP Fit Center  596 is at  -7.112691 -0.806805  1.048509
      ESP Fit Center  597 is at  -7.287604  1.973829  0.374881
      ESP Fit Center  598 is at  -7.932774  1.528500  0.374881
      ESP Fit Center  599 is at  -8.297089  0.834356  0.374881
      ESP Fit Center  600 is at  -8.297089  0.050416  0.374881
      ESP Fit Center  601 is at  -7.932774 -0.643729  0.374881
      ESP Fit Center  602 is at  -7.287604  1.973829 -0.372789
      ESP Fit Center  603 is at  -7.932774  1.528500 -0.372789
      ESP Fit Center  604 is at  -8.297089  0.834356 -0.372789
      ESP Fit Center  605 is at  -8.297089  0.050416 -0.372789
      ESP Fit Center  606 is at  -7.932774 -0.643729 -0.372789
      ESP Fit Center  607 is at  -7.112691  1.691577 -1.046417
      ESP Fit Center  608 is at  -7.769429  1.214428 -1.046417
      ESP Fit Center  609 is at  -8.020281  0.442386 -1.046417
      ESP Fit Center  610 is at  -7.769429 -0.329657 -1.046417
      ESP Fit Center  611 is at  -7.112691 -0.806805 -1.046417
      ESP Fit Center  612 is at  -7.071266  1.073653 -1.512582
      ESP Fit Center  613 is at  -7.435729  0.442386 -1.512582
      ESP Fit Center  614 is at  -7.071266 -0.188881 -1.512582
      ESP Fit Center  615 is at   0.949247  1.323997  2.366761
      ESP Fit Center  616 is at   1.315174  1.957801  2.250847
      ESP Fit Center  617 is at   0.583320  1.957801  2.250847
      ESP Fit Center  618 is at   0.217393  1.323997  2.250847
      ESP Fit Center  619 is at   1.315174  0.690193  2.250847
      ESP Fit Center  620 is at   1.527533  2.590267  1.914451
      ESP Fit Center  621 is at   0.751135  2.701896  1.914451
      ESP Fit Center  622 is at   0.037636  2.376052  1.914451
      ESP Fit Center  623 is at  -0.386433  1.716188  1.914451
      ESP Fit Center  624 is at   1.682475  3.094167  1.390501
      ESP Fit Center  625 is at   1.682475  3.094167 -1.393635
      ESP Fit Center  626 is at   1.527533  2.590267 -1.917585
      ESP Fit Center  627 is at   0.751135  2.701896 -1.917585
      ESP Fit Center  628 is at   0.037636  2.376052 -1.917585
      ESP Fit Center  629 is at  -0.386433  1.716188 -1.917585
      ESP Fit Center  630 is at   1.315174  1.957801 -2.253981
      ESP Fit Center  631 is at   0.583320  1.957801 -2.253981
      ESP Fit Center  632 is at   0.217393  1.323997 -2.253981
      ESP Fit Center  633 is at   1.315174  0.690193 -2.253981
      ESP Fit Center  634 is at   0.949247  1.323997 -2.369895
      ESP Fit Center  635 is at   2.339326  1.247659  2.366875
      ESP Fit Center  636 is at   2.705253  1.881463  2.250961
      ESP Fit Center  637 is at   1.973399  1.881463  2.250961
      ESP Fit Center  638 is at   1.973399  0.613855  2.250961
      ESP Fit Center  639 is at   2.917612  2.513929  1.914565
      ESP Fit Center  640 is at   2.141214  2.625558  1.914565
      ESP Fit Center  641 is at   2.917612  2.513929 -1.917471
      ESP Fit Center  642 is at   2.141214  2.625558 -1.917471
      ESP Fit Center  643 is at   2.705253  1.881463 -2.253867
      ESP Fit Center  644 is at   1.973399  1.881463 -2.253867
[...]
 3222 Fit       0.009533
 3223 Fit       0.006066
 3224 Fit       0.003120
 3225 Fit       0.000667
 3226 Fit      -0.001317
 3227 Fit      -0.002917
 3228 Fit      -0.004325
 3229 Fit      -0.005873
 3230 Fit      -0.008101
 3231 Fit      -0.011890
 3232 Fit       0.015117
 3233 Fit       0.010720
 3234 Fit       0.007034
 3235 Fit       0.003883
 3236 Fit       0.001232
 3237 Fit      -0.000932
 3238 Fit      -0.002667
 3239 Fit      -0.004138
 3240 Fit      -0.005646
 3241 Fit      -0.007693
 3242 Fit      -0.011083
 3243 Fit       0.012646
 3244 Fit       0.008751
 3245 Fit       0.005325
 3246 Fit       0.002350
 3247 Fit      -0.000151
 3248 Fit      -0.002183
 3249 Fit      -0.003838
 3250 Fit      -0.005342
 3251 Fit      -0.007099
 3252 Fit      -0.009748
 3253 Fit      -0.014283
 3254 Fit       0.010929
 3255 Fit       0.007593
 3256 Fit       0.004378
 3257 Fit       0.001462
 3258 Fit      -0.001042
 3259 Fit      -0.003098
 3260 Fit      -0.004799
 3261 Fit      -0.006404
 3262 Fit      -0.008368
 3263 Fit      -0.011355
 3264 Fit      -0.016178
 3265 Fit       0.008825
 3266 Fit       0.006879
 3267 Fit       0.004195
 3268 Fit       0.001368
 3269 Fit      -0.001251
 3270 Fit      -0.003482
 3271 Fit      -0.005337
 3272 Fit      -0.007043
 3273 Fit      -0.009034
 3274 Fit      -0.011819
 3275 Fit      -0.015571
 3276 Fit      -0.012468
 3277 Fit       0.004547
 3278 Fit       0.003978
 3279 Fit       0.002075
 3280 Fit      -0.000444
 3281 Fit      -0.002950
 3282 Fit      -0.005120
 3283 Fit      -0.006986
 3284 Fit      -0.008859
 3285 Fit      -0.010981
 3286 Fit      -0.012775
 3287 Fit      -0.008673
 3288 Fit      -0.005967
 3289 Fit      -0.002711
 3290 Fit      -0.000565
 3291 Fit       0.000574
 3292 Fit       0.000956
 3293 Fit       0.000005
 3294 Fit      -0.002059
 3295 Fit      -0.004394
 3296 Fit      -0.006439
 3297 Fit      -0.008120
 3298 Fit      -0.009220
 3299 Fit      -0.006353
 3300 Fit      -0.003836
 3301 Fit      -0.002063
 3302 Fit      -0.002500
 3303 Fit      -0.004681
 3304 Fit      -0.006555
 3305 Fit      -0.004502
 3306 Fit      -0.006465
 3307 Fit      -0.006495
 3308 Fit      -0.013794
 3309 Fit      -0.015671
 3310 Fit      -0.010755
 3311 Fit      -0.014478
 3312 Fit      -0.016152
 3313 Fit      -0.016810
 3314 Fit      -0.017629
 3315 Fit      -0.017752
 3316 Fit      -0.016144
 3317 Fit      -0.017678
 3318 Fit      -0.017954
 3319 Fit      -0.017666
 3320 Fit      -0.017330
 3321 Fit      -0.017298
 3322 Fit      -0.016301
 3323 Fit      -0.016414
 3324 Fit      -0.016546
 3325 Fit      -0.016595
 3326 Fit      -0.015742
 3327 Fit      -0.016426
 3328 Fit      -0.016569
 3329 Fit      -0.017328
 3330 Fit      -0.016353
 3331 Fit      -0.017704
 3332 Fit      -0.017390
 3333 Fit      -0.016171
 3334 Fit      -0.017719
 3335 Fit      -0.018010
 3336 Fit      -0.016848
 3337 Fit      -0.017677
 3338 Fit      -0.017801
 3339 Fit      -0.015708
 3340 Fit      -0.010786
 3341 Fit      -0.014513
 3342 Fit      -0.016192
 3343 Fit      -0.013829
 3344 Fit      -0.008655
 3345 Fit      -0.008409
 3346 Fit      -0.008244
 3347 Fit      -0.008447
 3348 Fit      -0.008941
 3349 Fit      -0.008975
 3350 Fit      -0.008696
 3351 Fit      -0.008135
 3352 Fit      -0.007936
 3353 Fit      -0.007767
 3354 Fit      -0.007719
 3355 Fit      -0.008027
 3356 Fit      -0.008735
 3357 Fit      -0.009375
 3358 Fit      -0.009475
 3359 Fit      -0.009172
 3360 Fit      -0.008853
 3361 Fit      -0.008604
 3362 Fit      -0.008364
 3363 Fit      -0.007801
 3364 Fit      -0.007633
 3365 Fit      -0.007460
 3366 Fit      -0.007246
 3367 Fit      -0.007028
 3368 Fit      -0.006976
 3369 Fit      -0.007339
 3370 Fit      -0.008215
 3371 Fit      -0.009319
 3372 Fit      -0.010110
 3373 Fit      -0.010225
 3374 Fit      -0.009774
 3375 Fit      -0.009197
 3376 Fit      -0.008801
 3377 Fit      -0.008583
 3378 Fit      -0.008413
 3379 Fit      -0.008215
 3380 Fit      -0.007998
 3381 Fit      -0.007402
 3382 Fit      -0.007267
 3383 Fit      -0.007141
 3384 Fit      -0.006968
 3385 Fit      -0.006703
 3386 Fit      -0.006353
 3387 Fit      -0.006017
 3388 Fit      -0.005907
 3389 Fit      -0.006293
 3390 Fit      -0.007333
 3391 Fit      -0.008858
 3392 Fit      -0.010374
 3393 Fit      -0.011350
 3394 Fit      -0.011477
 3395 Fit      -0.010812
 3396 Fit      -0.009810
 3397 Fit      -0.008974
 3398 Fit      -0.008508
 3399 Fit      -0.008325
 3400 Fit      -0.008249
 3401 Fit      -0.008152
 3402 Fit      -0.007990
 3403 Fit      -0.007782
 3404 Fit      -0.007575
 3405 Fit      -0.006953
 3406 Fit      -0.006845
 3407 Fit      -0.006761
 3408 Fit      -0.006647
 3409 Fit      -0.006442
 3410 Fit      -0.006096
 3411 Fit      -0.005600
 3412 Fit      -0.005020
 3413 Fit      -0.004533
 3414 Fit      -0.004435
 3415 Fit      -0.005062
 3416 Fit      -0.006598
 3417 Fit      -0.008832
 3418 Fit      -0.011132
 3419 Fit      -0.012849
 3420 Fit      -0.013587
 3421 Fit      -0.013131
 3422 Fit      -0.011690
 3423 Fit      -0.009985
 3424 Fit      -0.008681
 3425 Fit      -0.007996
 3426 Fit      -0.007794
 3427 Fit      -0.007824
 3428 Fit      -0.007883
 3429 Fit      -0.007865
 3430 Fit      -0.007744
 3431 Fit      -0.007546
 3432 Fit      -0.007319
 3433 Fit      -0.007111
 3434 Fit      -0.006486
 3435 Fit      -0.006401
 3436 Fit      -0.006352
 3437 Fit      -0.006291
 3438 Fit      -0.006152
 3439 Fit      -0.005869
 3440 Fit      -0.005386
 3441 Fit      -0.004684
 3442 Fit      -0.003812
 3443 Fit      -0.002928
 3444 Fit      -0.002344
 3445 Fit      -0.002514
 3446 Fit      -0.003890
 3447 Fit      -0.006631
 3448 Fit      -0.013804
 3449 Fit      -0.010879
 3450 Fit      -0.008553
 3451 Fit      -0.007262
 3452 Fit      -0.006853
 3453 Fit      -0.006953
 3454 Fit      -0.007224
 3455 Fit      -0.007455
 3456 Fit      -0.007552
 3457 Fit      -0.007500
 3458 Fit      -0.007330
 3459 Fit      -0.007093
 3460 Fit      -0.006846
 3461 Fit      -0.006635
 3462 Fit      -0.006042
 3463 Fit      -0.005976
 3464 Fit      -0.005956
 3465 Fit      -0.005941
 3466 Fit      -0.005870
 3467 Fit      -0.005675
 3468 Fit      -0.005289
 3469 Fit      -0.004650
 3470 Fit      -0.003724
 3471 Fit      -0.002526
 3472 Fit      -0.001166
 3473 Fit       0.000083
 3474 Fit       0.000730
 3475 Fit      -0.006038
 3476 Fit      -0.005296
 3477 Fit      -0.005454
 3478 Fit      -0.005989
 3479 Fit      -0.006556
 3480 Fit      -0.006983
 3481 Fit      -0.007213
 3482 Fit      -0.007249
 3483 Fit      -0.007130
 3484 Fit      -0.006908
 3485 Fit      -0.006643
 3486 Fit      -0.006387
 3487 Fit      -0.006179
 3488 Fit      -0.005663
 3489 Fit      -0.005610
 3490 Fit      -0.005611
 3491 Fit      -0.005628
 3492 Fit      -0.005605
 3493 Fit      -0.005477
 3494 Fit      -0.005170
 3495 Fit      -0.004613
 3496 Fit      -0.003736
 3497 Fit      -0.002487
 3498 Fit      -0.000846
 3499 Fit       0.001119
 3500 Fit       0.003166
 3501 Fit      -0.002899
 3502 Fit      -0.003713
 3503 Fit      -0.004764
 3504 Fit      -0.005705
 3505 Fit      -0.006401
 3506 Fit      -0.006826
 3507 Fit      -0.007002
 3508 Fit      -0.006975
 3509 Fit      -0.006803
 3510 Fit      -0.006546
 3511 Fit      -0.006261
 3512 Fit      -0.005997
 3513 Fit      -0.005792
 3514 Fit      -0.005387
 3515 Fit      -0.005342
 3516 Fit      -0.005359
 3517 Fit      -0.005397
 3518 Fit      -0.005399
 3519 Fit      -0.005296
 3520 Fit      -0.005009
 3521 Fit      -0.004454
 3522 Fit      -0.003543
 3523 Fit      -0.002186
 3524 Fit      -0.000301
 3525 Fit       0.002163
 3526 Fit       0.005139
 3527 Fit      -0.000825
 3528 Fit      -0.002601
 3529 Fit      -0.004180
 3530 Fit      -0.005382
 3531 Fit      -0.006194
 3532 Fit      -0.006657
 3533 Fit      -0.006833
 3534 Fit      -0.006787
 3535 Fit      -0.006590
 3536 Fit      -0.006308
 3537 Fit      -0.006003
 3538 Fit      -0.005726
 3539 Fit      -0.005515
 3540 Fit      -0.005241
 3541 Fit      -0.005201
 3542 Fit      -0.005225
 3543 Fit      -0.005273
 3544 Fit      -0.005291
 3545 Fit      -0.005211
 3546 Fit      -0.004953
 3547 Fit      -0.004432
 3548 Fit      -0.003555
 3549 Fit      -0.002219
 3550 Fit      -0.000310
 3551 Fit       0.002291
 3552 Fit       0.005658
 3553 Fit      -0.000073
 3554 Fit      -0.002334
 3555 Fit      -0.004101
 3556 Fit      -0.005355
 3557 Fit      -0.006162
 3558 Fit      -0.006601
 3559 Fit      -0.006748
 3560 Fit      -0.006678
 3561 Fit      -0.006462
 3562 Fit      -0.006168
 3563 Fit      -0.005856
 3564 Fit      -0.005577
 3565 Fit      -0.005366
 3566 Fit      -0.005241
 3567 Fit      -0.005201
 3568 Fit      -0.005225
 3569 Fit      -0.005273
 3570 Fit      -0.005291
 3571 Fit      -0.005210
 3572 Fit      -0.004952
 3573 Fit      -0.004431
 3574 Fit      -0.003554
 3575 Fit      -0.002217
 3576 Fit      -0.000307
 3577 Fit       0.002296
 3578 Fit       0.005667
 3579 Fit      -0.000083
 3580 Fit      -0.002341
 3581 Fit      -0.004105
 3582 Fit      -0.005358
 3583 Fit      -0.006164
 3584 Fit      -0.006602
 3585 Fit      -0.006749
 3586 Fit      -0.006679
 3587 Fit      -0.006463
 3588 Fit      -0.006168
 3589 Fit      -0.005857
 3590 Fit      -0.005578
 3591 Fit      -0.005366
 3592 Fit      -0.005387
 3593 Fit      -0.005342
 3594 Fit      -0.005359
 3595 Fit      -0.005397
 3596 Fit      -0.005399
 3597 Fit      -0.005295
 3598 Fit      -0.005007
 3599 Fit      -0.004451
 3600 Fit      -0.003538
 3601 Fit      -0.002180
 3602 Fit      -0.000291
 3603 Fit       0.002180
 3604 Fit       0.005166
 3605 Fit      -0.000855
 3606 Fit      -0.002620
 3607 Fit      -0.004192
 3608 Fit      -0.005391
 3609 Fit      -0.006200
 3610 Fit      -0.006661
 3611 Fit      -0.006836
 3612 Fit      -0.006790
 3613 Fit      -0.006592
 3614 Fit      -0.006310
 3615 Fit      -0.006004
 3616 Fit      -0.005727
 3617 Fit      -0.005515
 3618 Fit      -0.005664
 3619 Fit      -0.005611
 3620 Fit      -0.005612
 3621 Fit      -0.005628
 3622 Fit      -0.005604
 3623 Fit      -0.005475
 3624 Fit      -0.005168
 3625 Fit      -0.004609
 3626 Fit      -0.003730
 3627 Fit      -0.002477
 3628 Fit      -0.000831
 3629 Fit       0.001143
 3630 Fit       0.003201
 3631 Fit      -0.002939
 3632 Fit      -0.003741
 3633 Fit      -0.004783
 3634 Fit      -0.005718
 3635 Fit      -0.006410
 3636 Fit      -0.006833
 3637 Fit      -0.007007
 3638 Fit      -0.006979
 3639 Fit      -0.006806
 3640 Fit      -0.006548
 3641 Fit      -0.006263
 3642 Fit      -0.005999
 3643 Fit      -0.005793
 3644 Fit      -0.006044
 3645 Fit      -0.005976
 3646 Fit      -0.005956
 3647 Fit      -0.005940
 3648 Fit      -0.005868
 3649 Fit      -0.005673
 3650 Fit      -0.005284
 3651 Fit      -0.004643
 3652 Fit      -0.003714
 3653 Fit      -0.002512
 3654 Fit      -0.001145
 3655 Fit       0.000113
 3656 Fit       0.000768
 3657 Fit      -0.006085
 3658 Fit      -0.005333
 3659 Fit      -0.005482
 3660 Fit      -0.006009
 3661 Fit      -0.006570
 3662 Fit      -0.006993
 3663 Fit      -0.007220
 3664 Fit      -0.007255
 3665 Fit      -0.007134
 3666 Fit      -0.006912
 3667 Fit      -0.006646
 3668 Fit      -0.006389
 3669 Fit      -0.006181
 3670 Fit      -0.006488
 3671 Fit      -0.006402
 3672 Fit      -0.006352
 3673 Fit      -0.006290
 3674 Fit      -0.006150
 3675 Fit      -0.005865
 3676 Fit      -0.005380
 3677 Fit      -0.004675
 3678 Fit      -0.003799
 3679 Fit      -0.002910
 3680 Fit      -0.002321
 3681 Fit      -0.002488
 3682 Fit      -0.003866
 3683 Fit      -0.006617
 3684 Fit      -0.013841
 3685 Fit      -0.010919
 3686 Fit      -0.008592
 3687 Fit      -0.007295
 3688 Fit      -0.006879
 3689 Fit      -0.006973
 3690 Fit      -0.007239
 3691 Fit      -0.007466
 3692 Fit      -0.007560
 3693 Fit      -0.007506
 3694 Fit      -0.007334
 3695 Fit      -0.007096
 3696 Fit      -0.006849
 3697 Fit      -0.006637
 3698 Fit      -0.006954
 3699 Fit      -0.006846
 3700 Fit      -0.006761
 3701 Fit      -0.006646
 3702 Fit      -0.006439
 3703 Fit      -0.006091
 3704 Fit      -0.005592
 3705 Fit      -0.005009
 3706 Fit      -0.004520
 3707 Fit      -0.004419
 3708 Fit      -0.005047
 3709 Fit      -0.006588
 3710 Fit      -0.008831
 3711 Fit      -0.011140
 3712 Fit      -0.012863
 3713 Fit      -0.013606
 3714 Fit      -0.013155
 3715 Fit      -0.011718
 3716 Fit      -0.010014
 3717 Fit      -0.008708
 3718 Fit      -0.008020
 3719 Fit      -0.007813
 3720 Fit      -0.007838
 3721 Fit      -0.007894
 3722 Fit      -0.007873
 3723 Fit      -0.007750
 3724 Fit      -0.007551
 3725 Fit      -0.007322
 3726 Fit      -0.007114
 3727 Fit      -0.007404
 3728 Fit      -0.007268
 3729 Fit      -0.007140
 3730 Fit      -0.006966
 3731 Fit      -0.006700
 3732 Fit      -0.006348
 3733 Fit      -0.006009
 3734 Fit      -0.005897
 3735 Fit      -0.006285
 3736 Fit      -0.007328
 3737 Fit      -0.008859
 3738 Fit      -0.010381
 3739 Fit      -0.011363
 3740 Fit      -0.011494
 3741 Fit      -0.010832
 3742 Fit      -0.009831
 3743 Fit      -0.008995
 3744 Fit      -0.008525
 3745 Fit      -0.008339
 3746 Fit      -0.008260
 3747 Fit      -0.008160
 3748 Fit      -0.007996
 3749 Fit      -0.007787
 3750 Fit      -0.007578
 3751 Fit      -0.007804
 3752 Fit      -0.007634
 3753 Fit      -0.007459
 3754 Fit      -0.007244
 3755 Fit      -0.007024
 3756 Fit      -0.006971
 3757 Fit      -0.007335
 3758 Fit      -0.008215
 3759 Fit      -0.009324
 3760 Fit      -0.010120
 3761 Fit      -0.010239
 3762 Fit      -0.009790
 3763 Fit      -0.009212
 3764 Fit      -0.008815
 3765 Fit      -0.008594
 3766 Fit      -0.008421
 3767 Fit      -0.008221
 3768 Fit      -0.008003
 3769 Fit      -0.008138
 3770 Fit      -0.007938
 3771 Fit      -0.007766
 3772 Fit      -0.007718
 3773 Fit      -0.008028
 3774 Fit      -0.008738
 3775 Fit      -0.009383
 3776 Fit      -0.009485
 3777 Fit      -0.009183
 3778 Fit      -0.008862
 3779 Fit      -0.008612
 3780 Fit      -0.008369
 3781 Fit      -0.008412
 3782 Fit      -0.008246
 3783 Fit      -0.008449
 3784 Fit      -0.008947
 3785 Fit      -0.008983
 3786 Fit      -0.008702
 3787 Fit      -0.008660
 3788 Fit       0.008887
 3789 Fit       0.010367
 3790 Fit       0.009487
 3791 Fit       0.012105
 3792 Fit       0.015118
 3793 Fit       0.012439
 3794 Fit       0.014726
 3795 Fit       0.018120
 3796 Fit       0.013448
 3797 Fit       0.015350
 3798 Fit       0.018707
 3799 Fit       0.013448
 3800 Fit       0.015348
 3801 Fit       0.018698
 3802 Fit       0.012438
 3803 Fit       0.014716
 3804 Fit       0.018093
 3805 Fit       0.009489
 3806 Fit       0.012092
 3807 Fit       0.015079
 3808 Fit       0.008870
 3809 Fit       0.010319
 3810 Fit       0.005155
 3811 Fit       0.007497
 3812 Fit       0.009700
 3813 Fit       0.008101
 3814 Fit       0.010596
 3815 Fit       0.008104
 3816 Fit       0.010599
 3817 Fit       0.007506
 3818 Fit       0.009709
 3819 Fit       0.005170
 3820 Fit      -0.002706
 3821 Fit      -0.000641
 3822 Fit      -0.000573
 3823 Fit       0.000322
 3824 Fit       0.000368
 3825 Fit       0.000176
 3826 Fit       0.000315
 3827 Fit       0.000362
 3828 Fit       0.000171
 3829 Fit      -0.000659
 3830 Fit      -0.000588
 3831 Fit      -0.002736
 3832 Fit      -0.015666
 3833 Fit      -0.010539
 3834 Fit      -0.011156
 3835 Fit      -0.007160
 3836 Fit      -0.015079
 3837 Fit      -0.009067
 3838 Fit      -0.005325
 3839 Fit      -0.002648
 3840 Fit      -0.012548
 3841 Fit      -0.007137
 3842 Fit      -0.003596
 3843 Fit      -0.000570
 3844 Fit      -0.012563
 3845 Fit      -0.007148
 3846 Fit      -0.003605
 3847 Fit      -0.000578
 3848 Fit      -0.015131
 3849 Fit      -0.009101
 3850 Fit      -0.005352
 3851 Fit      -0.002672
 3852 Fit      -0.011215
 3853 Fit      -0.007204
 3854 Fit      -0.015759
 3855 Fit      -0.010603
 3856 Fit       0.014142
 3857 Fit       0.016285
 3858 Fit       0.018092
 3859 Fit       0.019571
 3860 Fit       0.021600
 3861 Fit       0.020980
 3862 Fit       0.022041
 3863 Fit       0.024139
 3864 Fit       0.027877
 3865 Fit       0.022346
 3866 Fit       0.022926
 3867 Fit       0.024811
 3868 Fit       0.028593
 3869 Fit       0.022352
 3870 Fit       0.022927
 3871 Fit       0.024810
 3872 Fit       0.028590
 3873 Fit       0.020991
 3874 Fit       0.022041
 3875 Fit       0.024133
 3876 Fit       0.027865
 3877 Fit       0.018106
 3878 Fit       0.019569
 3879 Fit       0.021588
 3880 Fit       0.014148
 3881 Fit       0.016275
 3882 Fit       0.020827
 3883 Fit       0.019928
 3884 Fit       0.024286
 3885 Fit       0.023473
 3886 Fit       0.022810
 3887 Fit       0.022219
 3888 Fit       0.028467
 3889 Fit       0.026335
 3890 Fit       0.025153
 3891 Fit       0.024440
 3892 Fit       0.024003
 3893 Fit       0.023900
 3894 Fit       0.027976
 3895 Fit       0.026275
 3896 Fit       0.025367
 3897 Fit       0.024867
 3898 Fit       0.024760
 3899 Fit       0.025383
 3900 Fit       0.027975
 3901 Fit       0.026273
 3902 Fit       0.025365
 3903 Fit       0.024865
 3904 Fit       0.024758
 3905 Fit       0.025381
 3906 Fit       0.028464
 3907 Fit       0.026330
 3908 Fit       0.025148
 3909 Fit       0.024434
 3910 Fit       0.023997
 3911 Fit       0.023894
 3912 Fit       0.024277
 3913 Fit       0.023463
 3914 Fit       0.022799
 3915 Fit       0.022208
 3916 Fit       0.020812
 3917 Fit       0.019911
 3918 Fit       0.016041
 3919 Fit       0.014996
 3920 Fit       0.019300
 3921 Fit       0.018692
 3922 Fit       0.017998
 3923 Fit       0.017034
 3924 Fit       0.022034
 3925 Fit       0.020898
 3926 Fit       0.020180
 3927 Fit       0.019531
 3928 Fit       0.018809
 3929 Fit       0.018026
 3930 Fit       0.024127
 3931 Fit       0.022267
 3932 Fit       0.021294
 3933 Fit       0.020608
 3934 Fit       0.019955
 3935 Fit       0.019290
 3936 Fit       0.024121
 3937 Fit       0.022264
 3938 Fit       0.021291
 3939 Fit       0.020607
 3940 Fit       0.019954
 3941 Fit       0.019290
 3942 Fit       0.022021
 3943 Fit       0.020890
 3944 Fit       0.020174
 3945 Fit       0.019527
 3946 Fit       0.018808
 3947 Fit       0.018028
 3948 Fit       0.019285
 3949 Fit       0.018682
 3950 Fit       0.017993
 3951 Fit       0.017031
 3952 Fit       0.016029
 3953 Fit       0.014989
 -----------------------------------------------------------------
 Leave Link  602 at Thu Jan 16 22:40:27 2014, MaxMem=   235929600 cpu:         1.6

 Test job not archived.
 1\1\GINC-G59\SP\RHF\Gen\C11H7Br1N2S1\KOLAR\16-Jan-2014\0\\# hf/gen pop
 =mk iop(6/33=2,6/41=5,6/42=2)\\na resp\\0,1\C,0,-0.949247,1.323997,0.0
 01567\C,0,-2.339326,1.247659,0.001453\C,0,-2.951422,-0.004739,0.000013
 \C,0,-2.192059,-1.173011,-0.00126\C,0,-0.802459,-1.083312,-0.001175\C,
 0,-0.156987,0.163997,0.000174\C,0,1.309423,0.22801,0.000113\C,0,2.1230
 87,1.349793,-0.000803\N,0,3.417004,0.8619,-0.000654\C,0,4.72222,1.3395
 88,-0.001441\C,0,5.631485,0.340126,-0.000742\S,0,4.894219,-1.263863,0.
 000932\C,0,3.306546,-0.516098,0.000584\N,0,2.068464,-0.936239,0.001104
 \Br,0,-4.861285,-0.118212,-0.000132\H,0,-0.481734,2.304858,0.00292\H,0
 ,-2.941629,2.14969,0.002556\H,0,-2.681151,-2.141227,-0.002333\H,0,-0.1
 97405,-1.983402,-0.002154\H,0,1.913157,2.407444,-0.001864\H,0,4.913602
 ,2.403779,-0.002416\H,0,6.706804,0.442386,-0.001046\\Version=AM64L-G09
 RevD.01\State=1-A\HF=-3496.5990618\RMSD=5.689e-09\Dipole=1.9297035,1.4
 056196,-0.001535\Quadrupole=7.0395599,2.7538816,-9.7934415,8.2741583,-
 0.0110302,0.0038047\PG=C01 [X(C11H7Br1N2S1)]\\@


  THE LARGE PRINT GIVETH,
  AND THE SMALL PRINT TAKETH AWAY.

                     -- TOM WAITS
 Job cpu time:       0 days  0 hours  3 minutes 39.7 seconds.
 File lengths (MBytes):  RWF=     33 Int=      0 D2E=      0 Chk=      3 Scr=      1
 Normal termination of Gaussian 09 at Thu Jan 16 22:40:27 2014.
219.33user 0.35system 3:40.09elapsed 99%CPU (0avgtext+0avgdata 603392maxresident)k
8inputs+158000outputs (0major+172011minor)pagefaults 0swaps
