Linux g25 2.6.38.6-client #1 SMP Tue Jun 12 11:27:21 CEST 2012 x86_64 GNU/Linux
Thu Jan 16 21:46:46 CET 2014

 Entering Gaussian System, Link 0=/usr/local/programs/common/gaussian/gaussian09_d01/arch/amd64-pgi_10.4.0-acml/g09/g09
 Initial command:
 /usr/local/programs/common/gaussian/gaussian09_d01/arch/amd64-pgi_10.4.0-acml/g09/l1.exe "/scratch/kolar/g09_17854/Gau-15201.inp" -scrdir="/scratch/kolar/g09_17854/"
 Entering Link 1 = /usr/local/programs/common/gaussian/gaussian09_d01/arch/amd64-pgi_10.4.0-acml/g09/l1.exe PID=     15205.
  
 Copyright (c) 1988,1990,1992,1993,1995,1998,2003,2009,2013,
            Gaussian, Inc.  All Rights Reserved.
  
 This is part of the Gaussian(R) 09 program.  It is based on
 the Gaussian(R) 03 system (copyright 2003, Gaussian, Inc.),
 the Gaussian(R) 98 system (copyright 1998, Gaussian, Inc.),
 the Gaussian(R) 94 system (copyright 1995, Gaussian, Inc.),
 the Gaussian 92(TM) system (copyright 1992, Gaussian, Inc.),
 the Gaussian 90(TM) system (copyright 1990, Gaussian, Inc.),
 the Gaussian 88(TM) system (copyright 1988, Gaussian, Inc.),
 the Gaussian 86(TM) system (copyright 1986, Carnegie Mellon
 University), and the Gaussian 82(TM) system (copyright 1983,
 Carnegie Mellon University). Gaussian is a federally registered
 trademark of Gaussian, Inc.
  
 This software contains proprietary and confidential information,
 including trade secrets, belonging to Gaussian, Inc.
  
 This software is provided under written license and may be
 used, copied, transmitted, or stored only in accord with that
 written license.
  
 The following legend is applicable only to US Government
 contracts under FAR:
  
                    RESTRICTED RIGHTS LEGEND
  
 Use, reproduction and disclosure by the US Government is
 subject to restrictions as set forth in subparagraphs (a)
 and (c) of the Commercial Computer Software - Restricted
 Rights clause in FAR 52.227-19.
  
 Gaussian, Inc.
 340 Quinnipiac St., Bldg. 40, Wallingford CT 06492
  
  
 ---------------------------------------------------------------
 Warning -- This program may not be used in any manner that
 competes with the business of Gaussian, Inc. or will provide
 assistance to any competitor of Gaussian, Inc.  The licensee
 of this program is prohibited from giving any competitor of
 Gaussian, Inc. access to this program.  By using this program,
 the user acknowledges that Gaussian, Inc. is engaged in the
 business of creating and licensing software in the field of
 computational chemistry and represents and warrants to the
 licensee that it is not a competitor of Gaussian, Inc. and that
 it will not use this program in any manner prohibited above.
 ---------------------------------------------------------------
  

 Cite this work as:
 Gaussian 09, Revision D.01,
 M. J. Frisch, G. W. Trucks, H. B. Schlegel, G. E. Scuseria, 
 M. A. Robb, J. R. Cheeseman, G. Scalmani, V. Barone, B. Mennucci, 
 G. A. Petersson, H. Nakatsuji, M. Caricato, X. Li, H. P. Hratchian, 
 A. F. Izmaylov, J. Bloino, G. Zheng, J. L. Sonnenberg, M. Hada, 
 M. Ehara, K. Toyota, R. Fukuda, J. Hasegawa, M. Ishida, T. Nakajima, 
 Y. Honda, O. Kitao, H. Nakai, T. Vreven, J. A. Montgomery, Jr., 
 J. E. Peralta, F. Ogliaro, M. Bearpark, J. J. Heyd, E. Brothers, 
 K. N. Kudin, V. N. Staroverov, T. Keith, R. Kobayashi, J. Normand, 
 K. Raghavachari, A. Rendell, J. C. Burant, S. S. Iyengar, J. Tomasi, 
 M. Cossi, N. Rega, J. M. Millam, M. Klene, J. E. Knox, J. B. Cross, 
 V. Bakken, C. Adamo, J. Jaramillo, R. Gomperts, R. E. Stratmann, 
 O. Yazyev, A. J. Austin, R. Cammi, C. Pomelli, J. W. Ochterski, 
 R. L. Martin, K. Morokuma, V. G. Zakrzewski, G. A. Voth, 
 P. Salvador, J. J. Dannenberg, S. Dapprich, A. D. Daniels, 
 O. Farkas, J. B. Foresman, J. V. Ortiz, J. Cioslowski, 
 and D. J. Fox, Gaussian, Inc., Wallingford CT, 2013.
 
 ******************************************
 Gaussian 09:  AM64L-G09RevD.01 24-Apr-2013
                16-Jan-2014 
 ******************************************
 %mem=1800mb
 -----------------------------------------
 # hf/gen pop=mk iop(6/33=2,6/41=5,6/42=2)
 -----------------------------------------
 1/38=1/1;
 2/12=2,17=6,18=5,40=1/2;
 3/5=7,11=9,16=1,25=1,30=1/1,2,3;
 4//1;
 5/5=2,38=5/2;
 6/7=2,8=2,9=2,10=2,15=8,20=1,28=1,33=2,41=5,42=2/1,2;
 99/5=1,9=1/99;
 -------
 na resp
 -------
 Symbolic Z-matrix:
 Charge =  0 Multiplicity = 1
 6                    -2.57554   2.14505   0.47889 
 6                    -2.68606   0.6898    0.13948 
 6                    -1.67887  -0.24266  -0.07221 
 7                    -2.35246  -1.43827  -0.29529 
 1                    -1.92283  -2.31119  -0.56565 
 6                    -3.68716  -1.1758   -0.23386 
 7                    -3.9231    0.08935   0.03672 
 6                    -0.2188   -0.16427  -0.04865 
 6                     0.45388   0.99972  -0.46376 
 6                     1.8439    1.08045  -0.43761 
 6                     2.58615  -0.01834  -0.00718 
 6                     1.95176  -1.19035   0.40256 
 6                     0.56101  -1.25336   0.3853 
 17                    4.34196   0.07369   0.01822 
 1                    -3.42211   2.43743   1.10697 
 1                    -1.64794   2.36777   1.01609 
 1                    -2.60303   2.77937  -0.41757 
 1                    -4.4364   -1.94081  -0.38956 
 1                    -0.11633   1.84478  -0.83461 
 1                     2.34888   1.98361  -0.76362 
 1                     2.53873  -2.03643   0.7442 
 1                     0.07486  -2.15616   0.74616 
 
                          Input orientation:                          
 ---------------------------------------------------------------------
 Center     Atomic      Atomic             Coordinates (Angstroms)
 Number     Number       Type             X           Y           Z
 ---------------------------------------------------------------------
      1          6           0       -2.575535    2.145046    0.478893
      2          6           0       -2.686061    0.689798    0.139481
      3          6           0       -1.678871   -0.242662   -0.072206
      4          7           0       -2.352463   -1.438273   -0.295285
      5          1           0       -1.922828   -2.311192   -0.565647
      6          6           0       -3.687156   -1.175803   -0.233861
      7          7           0       -3.923097    0.089347    0.036717
      8          6           0       -0.218796   -0.164270   -0.048647
      9          6           0        0.453875    0.999719   -0.463762
     10          6           0        1.843902    1.080455   -0.437609
     11          6           0        2.586154   -0.018340   -0.007184
     12          6           0        1.951763   -1.190353    0.402559
     13          6           0        0.561010   -1.253362    0.385295
     14         17           0        4.341963    0.073691    0.018224
     15          1           0       -3.422106    2.437427    1.106972
     16          1           0       -1.647941    2.367774    1.016092
     17          1           0       -2.603027    2.779368   -0.417570
     18          1           0       -4.436402   -1.940812   -0.389558
     19          1           0       -0.116328    1.844784   -0.834610
     20          1           0        2.348880    1.983605   -0.763620
     21          1           0        2.538727   -2.036426    0.744195
     22          1           0        0.074862   -2.156160    0.746155
 ---------------------------------------------------------------------
                    Distance matrix (angstroms):
                    1          2          3          4          5
     1  C    0.000000
     2  C    1.498387   0.000000
     3  C    2.609380   1.388785   0.000000
     4  N    3.672777   2.197498   1.390315   0.000000
     5  H    4.623326   3.175795   2.140518   1.009787   0.000000
     6  C    3.573760   2.149894   2.220381   1.361642   2.124157
     7  N    2.497467   1.378898   2.271265   2.216019   3.182217
     8  C    3.341475   2.617675   1.462368   2.497288   2.789317
     9  C    3.373084   3.212344   2.499086   3.721253   4.076914
    10  C    4.637322   4.583253   3.780752   4.896297   5.070298
    11  C    5.617788   5.321581   4.271415   5.146761   5.089201
    12  C    5.623801   5.011346   3.782198   4.367472   4.148031
    13  C    4.625565   3.792066   2.499578   2.997617   2.862297
    14  Cl   7.235641   7.056020   6.029817   6.870201   6.728758
    15  H    1.093916   2.128851   3.407669   4.258111   5.253082
    16  H    1.094816   2.159107   2.828379   4.086815   4.946735
    17  H    1.098529   2.164140   3.178994   4.226847   5.137937
    18  H    4.572884   3.203699   3.253983   2.145748   2.546810
    19  H    2.804130   2.981002   2.716658   4.008695   4.539595
    20  H    5.081315   5.276377   4.653719   5.833628   6.060690
    21  H    6.611412   5.924220   4.655345   5.036074   4.657967
    22  H    5.059289   4.011262   2.721538   2.737127   2.394916
                    6          7          8          9         10
     6  C    0.000000
     7  N    1.315099   0.000000
     8  C    3.617599   3.713954   0.000000
     9  C    4.683363   4.498571   1.407010   0.000000
    10  C    5.977024   5.870737   2.440360   1.392615   0.000000
    11  C    6.383222   6.510290   2.809050   2.406558   1.394114
    12  C    5.674738   6.023741   2.442900   2.791164   2.423651
    13  C    4.293749   4.693782   1.408021   2.410135   2.787415
    14  Cl   8.129670   8.265096   4.567452   4.025800   2.731605
    15  H    3.863097   2.628672   4.285496   4.422379   5.653136
    16  H    4.275245   3.365522   3.096348   2.911902   3.995423
    17  H    4.105175   3.030705   3.806004   3.537504   4.760450
    18  H    1.082058   2.136993   4.589174   5.706754   6.969403
    19  H    4.715470   4.281619   2.159754   1.084802   2.141100
    20  H    6.833464   6.600488   3.423085   2.156152   1.084881
    21  H    6.360730   6.839196   3.426003   3.876073   3.405054
    22  H    4.009278   4.639966   2.164618   3.401047   3.873819
                   11         12         13         14         15
    11  C    0.000000
    12  C    1.394258   0.000000
    13  C    2.404273   1.392287   0.000000
    14  Cl   1.758403   2.731039   4.023856   0.000000
    15  H    6.585691   6.521921   5.477952   8.188613   0.000000
    16  H    4.966709   5.098486   4.288356   6.491341   1.777856
    17  H    5.909584   6.097328   5.188317   7.466156   1.764098
    18  H    7.290981   6.480686   5.103637   9.015775   4.736811
    19  H    3.385155   3.875519   3.397862   4.872418   3.879321
    20  H    2.153202   3.404656   3.872266   2.869047   6.083531
    21  H    2.153948   1.084934   2.157165   2.869022   7.461803
    22  H    3.382955   2.138597   1.087016   4.869319   5.784463
                   16         17         18         19         20
    16  H    0.000000
    17  H    1.771154   0.000000
    18  H    5.321210   5.063808   0.000000
    19  H    2.458547   2.689060   5.761237   0.000000
    20  H    4.391986   5.027362   7.847358   2.470134   0.000000
    21  H    6.082688   7.139972   7.067316   4.960417   4.297697
    22  H    4.848391   5.734525   4.657008   4.306150   4.958652
                   21         22
    21  H    0.000000
    22  H    2.466773   0.000000
 Stoichiometry    C10H9ClN2
 Framework group  C1[X(C10H9ClN2)]
 Deg. of freedom    60
 Full point group                 C1      NOp   1
 Largest Abelian subgroup         C1      NOp   1
 Largest concise Abelian subgroup C1      NOp   1
                         Standard orientation:                         
 ---------------------------------------------------------------------
 Center     Atomic      Atomic             Coordinates (Angstroms)
 Number     Number       Type             X           Y           Z
 ---------------------------------------------------------------------
      1          6           0       -2.575535    2.145046    0.478893
      2          6           0       -2.686061    0.689798    0.139481
      3          6           0       -1.678871   -0.242662   -0.072206
      4          7           0       -2.352463   -1.438273   -0.295285
      5          1           0       -1.922828   -2.311192   -0.565647
      6          6           0       -3.687156   -1.175803   -0.233861
      7          7           0       -3.923097    0.089347    0.036717
      8          6           0       -0.218796   -0.164270   -0.048647
      9          6           0        0.453875    0.999719   -0.463762
     10          6           0        1.843902    1.080455   -0.437609
     11          6           0        2.586154   -0.018340   -0.007184
     12          6           0        1.951763   -1.190353    0.402559
     13          6           0        0.561010   -1.253362    0.385295
     14         17           0        4.341963    0.073691    0.018224
     15          1           0       -3.422106    2.437427    1.106972
     16          1           0       -1.647941    2.367774    1.016092
     17          1           0       -2.603027    2.779368   -0.417570
     18          1           0       -4.436402   -1.940812   -0.389558
     19          1           0       -0.116328    1.844784   -0.834610
     20          1           0        2.348880    1.983605   -0.763620
     21          1           0        2.538727   -2.036426    0.744195
     22          1           0        0.074862   -2.156160    0.746155
 ---------------------------------------------------------------------
 Rotational constants (GHZ):      2.1655634      0.3231205      0.2872150
 General basis read from cards:  (5D, 7F)
 There are   217 symmetry adapted cartesian basis functions of A   symmetry.
 There are   204 symmetry adapted basis functions of A   symmetry.
   204 basis functions,   424 primitive gaussians,   217 cartesian basis functions
    50 alpha electrons       50 beta electrons
       nuclear repulsion energy       796.9645818126 Hartrees.
 NAtoms=   22 NActive=   22 NUniq=   22 SFac= 1.00D+00 NAtFMM=   60 NAOKFM=F Big=F
 Integral buffers will be    131072 words long.
 Raffenetti 1 integral format.
 Two-electron integral symmetry is turned on.
 One-electron integrals computed using PRISM.
 NBasis=   204 RedAO= T EigKep=  4.44D-04  NBF=   204
 NBsUse=   204 1.00D-06 EigRej= -1.00D+00 NBFU=   204
 ExpMin= 1.43D-01 ExpMax= 2.52D+04 ExpMxC= 3.78D+03 IAcc=1 IRadAn=         1 AccDes= 0.00D+00
 Harris functional with IExCor=  205 and IRadAn=       1 diagonalized for initial guess.
 HarFok:  IExCor=  205 AccDes= 0.00D+00 IRadAn=         1 IDoV= 1 UseB2=F ITyADJ=14
 ICtDFT=  3500011 ScaDFX=  1.000000  1.000000  1.000000  1.000000
 FoFCou: FMM=F IPFlag=           0 FMFlag=      100000 FMFlg1=           0
         NFxFlg=           0 DoJE=T BraDBF=F KetDBF=T FulRan=T
         wScrn=  0.000000 ICntrl=     500 IOpCl=  0 I1Cent=   200000004 NGrid=           0
         NMat0=    1 NMatS0=      1 NMatT0=    0 NMatD0=    1 NMtDS0=    0 NMtDT0=    0
 Petite list used in FoFCou.
 Keep R1 ints in memory in canonical form, NReq=223967252.
 Requested convergence on RMS density matrix=1.00D-08 within 128 cycles.
 Requested convergence on MAX density matrix=1.00D-06.
 Requested convergence on             energy=1.00D-06.
 No special actions if energy rises.
 SCF Done:  E(RHF) =  -952.300552030     A.U. after   15 cycles
            NFock= 15  Conv=0.68D-08     -V/T= 2.0005

 **********************************************************************

            Population analysis using the SCF density.

 **********************************************************************

 Orbital symmetries:
 BldTbl:  Degeneracy threshold= 1.00D-02
       Occupied  (A) (A) (A) (A) (A) (A) (A) (A) (A) (A) (A) (A)
                 (A) (A) (A) (A) (A) (A) (A) (A) (A) (A) (A) (A)
                 (A) (A) (A) (A) (A) (A) (A) (A) (A) (A) (A) (A)
                 (A) (A) (A) (A) (A) (A) (A) (A) (A) (A) (A) (A)
                 (A) (A)
       Virtual   (A) (A) (A) (A) (A) (A) (A) (A) (A) (A) (A) (A)
                 (A) (A) (A) (A) (A) (A) (A) (A) (A) (A) (A) (A)
                 (A) (A) (A) (A) (A) (A) (A) (A) (A) (A) (A) (A)
                 (A) (A) (A) (A) (A) (A) (A) (A) (A) (A) (A) (A)
                 (A) (A) (A) (A) (A) (A) (A) (A) (A) (A) (A) (A)
                 (A) (A) (A) (A) (A) (A) (A) (A) (A) (A) (A) (A)
                 (A) (A) (A) (A) (A) (A) (A) (A) (A) (A) (A) (A)
                 (A) (A) (A) (A) (A) (A) (A) (A) (A) (A) (A) (A)
                 (A) (A) (A) (A) (A) (A) (A) (A) (A) (A) (A) (A)
                 (A) (A) (A) (A) (A) (A) (A) (A) (A) (A) (A) (A)
                 (A) (A) (A) (A) (A) (A) (A) (A) (A) (A) (A) (A)
                 (A) (A) (A) (A) (A) (A) (A) (A) (A) (A) (A) (A)
                 (A) (A) (A) (A) (A) (A) (A) (A) (A) (A)
 The electronic state is 1-A.
 Alpha  occ. eigenvalues -- -104.82333 -15.62476 -15.54716 -11.30874 -11.30124
 Alpha  occ. eigenvalues --  -11.26905 -11.26800 -11.25899 -11.25748 -11.25676
 Alpha  occ. eigenvalues --  -11.25507 -11.25363 -11.21884 -10.56173  -8.03030
 Alpha  occ. eigenvalues --   -8.02700  -8.02696  -1.34145  -1.19318  -1.17118
 Alpha  occ. eigenvalues --   -1.12633  -1.05207  -1.03621  -0.99693  -0.93724
 Alpha  occ. eigenvalues --   -0.85744  -0.83890  -0.82046  -0.76498  -0.74291
 Alpha  occ. eigenvalues --   -0.67759  -0.65824  -0.65329  -0.61700  -0.61123
 Alpha  occ. eigenvalues --   -0.60311  -0.58810  -0.55380  -0.54612  -0.54352
 Alpha  occ. eigenvalues --   -0.53487  -0.52059  -0.51445  -0.47435  -0.45577
 Alpha  occ. eigenvalues --   -0.43360  -0.39538  -0.36450  -0.35608  -0.28414
 Alpha virt. eigenvalues --    0.10041   0.11997   0.18628   0.19613   0.21731
 Alpha virt. eigenvalues --    0.23802   0.25233   0.27237   0.28528   0.29017
 Alpha virt. eigenvalues --    0.30775   0.32418   0.32916   0.35040   0.35873
 Alpha virt. eigenvalues --    0.39749   0.41956   0.42480   0.42818   0.44950
 Alpha virt. eigenvalues --    0.45848   0.49920   0.50915   0.53841   0.58656
 Alpha virt. eigenvalues --    0.60101   0.60811   0.61394   0.63558   0.66310
 Alpha virt. eigenvalues --    0.69262   0.72671   0.73308   0.74593   0.76536
 Alpha virt. eigenvalues --    0.77823   0.78836   0.79126   0.80100   0.80797
 Alpha virt. eigenvalues --    0.81459   0.82333   0.82535   0.83788   0.85593
 Alpha virt. eigenvalues --    0.88607   0.88787   0.90252   0.92420   0.94615
 Alpha virt. eigenvalues --    0.96154   0.96664   0.98572   1.01617   1.02652
 Alpha virt. eigenvalues --    1.04109   1.05217   1.07067   1.09236   1.09613
 Alpha virt. eigenvalues --    1.10246   1.10828   1.12095   1.13253   1.13465
 Alpha virt. eigenvalues --    1.15004   1.16458   1.17698   1.18688   1.19144
 Alpha virt. eigenvalues --    1.19332   1.21554   1.22453   1.25879   1.26199
 Alpha virt. eigenvalues --    1.26744   1.28328   1.32452   1.33050   1.37857
 Alpha virt. eigenvalues --    1.38340   1.41036   1.46275   1.47586   1.49482
 Alpha virt. eigenvalues --    1.52903   1.55331   1.61140   1.61983   1.62497
 Alpha virt. eigenvalues --    1.66339   1.68992   1.69915   1.70358   1.71815
 Alpha virt. eigenvalues --    1.74229   1.75373   1.76282   1.78125   1.82911
 Alpha virt. eigenvalues --    1.83059   1.85156   1.89374   2.03250   2.05876
 Alpha virt. eigenvalues --    2.08870   2.09212   2.12963   2.14328   2.18644
 Alpha virt. eigenvalues --    2.22909   2.23306   2.26546   2.28401   2.29766
 Alpha virt. eigenvalues --    2.34501   2.38002   2.41499   2.42224   2.43887
 Alpha virt. eigenvalues --    2.45109   2.47123   2.50446   2.51523   2.54781
 Alpha virt. eigenvalues --    2.55507   2.57104   2.58373   2.61715   2.61817
 Alpha virt. eigenvalues --    2.62985   2.66931   2.73929   2.74938   2.78664
 Alpha virt. eigenvalues --    2.85988   2.86869   2.92731   2.93258   2.96555
 Alpha virt. eigenvalues --    2.96768   2.99659   3.01702   3.04955   3.10378
 Alpha virt. eigenvalues --    3.12396   3.13882   3.15034   3.23785   3.35051
 Alpha virt. eigenvalues --    3.42412   3.53303   3.60240   3.78279
          Condensed to atoms (all electrons):
               1          2          3          4          5          6
     1  C    5.134857   0.334732  -0.050102   0.003102  -0.000061   0.005462
     2  C    0.334732   4.727616   0.645348  -0.079522   0.004458  -0.128366
     3  C   -0.050102   0.645348   4.800564   0.288336  -0.018341  -0.101438
     4  N    0.003102  -0.079522   0.288336   7.125242   0.317326   0.355489
     5  H   -0.000061   0.004458  -0.018341   0.317326   0.302381  -0.016895
     6  C    0.005462  -0.128366  -0.101438   0.355489  -0.016895   4.624192
     7  N   -0.051097   0.460835  -0.085457  -0.096993   0.003375   0.568265
     8  C    0.000836  -0.036154   0.360886  -0.053005  -0.000380   0.003575
     9  C   -0.002611  -0.005093  -0.036300   0.002137  -0.000045  -0.000040
    10  C   -0.000119   0.000171   0.004735  -0.000088  -0.000008   0.000002
    11  C    0.000000   0.000007  -0.000220   0.000006  -0.000002   0.000000
    12  C    0.000004  -0.000070   0.003658   0.000059  -0.000038   0.000002
    13  C   -0.000012   0.001945  -0.042746  -0.009201   0.003219   0.000169
    14  Cl   0.000000   0.000000   0.000006   0.000000   0.000000   0.000000
    15  H    0.389605  -0.037417   0.002202  -0.000042   0.000001   0.000226
    16  H    0.389118  -0.041367  -0.000082   0.000077  -0.000004  -0.000154
    17  H    0.388116  -0.040633  -0.002254   0.000039   0.000003  -0.000065
    18  H   -0.000068   0.004118   0.002578  -0.046616   0.000204   0.401230
    19  H   -0.000981   0.000565  -0.000526  -0.000016   0.000001  -0.000012
    20  H    0.000000  -0.000002  -0.000093   0.000000   0.000000   0.000000
    21  H    0.000000   0.000001  -0.000084  -0.000002   0.000000   0.000000
    22  H    0.000002  -0.000017  -0.002033   0.002556   0.000911   0.000017
               7          8          9         10         11         12
     1  C   -0.051097   0.000836  -0.002611  -0.000119   0.000000   0.000004
     2  C    0.460835  -0.036154  -0.005093   0.000171   0.000007  -0.000070
     3  C   -0.085457   0.360886  -0.036300   0.004735  -0.000220   0.003658
     4  N   -0.096993  -0.053005   0.002137  -0.000088   0.000006   0.000059
     5  H    0.003375  -0.000380  -0.000045  -0.000008  -0.000002  -0.000038
     6  C    0.568265   0.003575  -0.000040   0.000002   0.000000   0.000002
     7  N    6.768152   0.007315  -0.000062  -0.000002   0.000000   0.000000
     8  C    0.007315   4.763648   0.551605  -0.036480  -0.030284  -0.035110
     9  C   -0.000062   0.551605   4.935972   0.521618  -0.041098  -0.035076
    10  C   -0.000002  -0.036480   0.521618   4.955799   0.524785  -0.043621
    11  C    0.000000  -0.030284  -0.041098   0.524785   5.042010   0.528261
    12  C    0.000000  -0.035110  -0.035076  -0.043621   0.528261   4.937989
    13  C   -0.000121   0.538105  -0.039408  -0.035393  -0.042272   0.530492
    14  Cl   0.000000   0.000284   0.002242  -0.064035   0.216404  -0.064341
    15  H    0.000089  -0.000177   0.000183   0.000003   0.000000   0.000000
    16  H    0.002294   0.000539   0.001876   0.000139  -0.000013  -0.000006
    17  H   -0.000134   0.000468  -0.000861  -0.000044   0.000000   0.000000
    18  H   -0.027378   0.000001   0.000001   0.000000   0.000000   0.000000
    19  H    0.000002  -0.030239   0.380445  -0.028945   0.002358   0.000111
    20  H    0.000000   0.001532  -0.023924   0.380764  -0.029097   0.001989
    21  H    0.000000   0.001492   0.000204   0.001998  -0.028540   0.381178
    22  H   -0.000004  -0.034016   0.002657   0.000118   0.002389  -0.027527
              13         14         15         16         17         18
     1  C   -0.000012   0.000000   0.389605   0.389118   0.388116  -0.000068
     2  C    0.001945   0.000000  -0.037417  -0.041367  -0.040633   0.004118
     3  C   -0.042746   0.000006   0.002202  -0.000082  -0.002254   0.002578
     4  N   -0.009201   0.000000  -0.000042   0.000077   0.000039  -0.046616
     5  H    0.003219   0.000000   0.000001  -0.000004   0.000003   0.000204
     6  C    0.000169   0.000000   0.000226  -0.000154  -0.000065   0.401230
     7  N   -0.000121   0.000000   0.000089   0.002294  -0.000134  -0.027378
     8  C    0.538105   0.000284  -0.000177   0.000539   0.000468   0.000001
     9  C   -0.039408   0.002242   0.000183   0.001876  -0.000861   0.000001
    10  C   -0.035393  -0.064035   0.000003   0.000139  -0.000044   0.000000
    11  C   -0.042272   0.216404   0.000000  -0.000013   0.000000   0.000000
    12  C    0.530492  -0.064341   0.000000  -0.000006   0.000000   0.000000
    13  C    4.958199   0.002378   0.000003   0.000027  -0.000005  -0.000005
    14  Cl   0.002378  16.908157   0.000000   0.000000   0.000000   0.000000
    15  H    0.000003   0.000000   0.491983  -0.021479  -0.027428  -0.000007
    16  H    0.000027   0.000000  -0.021479   0.522239  -0.031118   0.000002
    17  H   -0.000005   0.000000  -0.027428  -0.031118   0.534997   0.000001
    18  H   -0.000005   0.000000  -0.000007   0.000002   0.000001   0.441100
    19  H    0.002560  -0.000086   0.000093  -0.001177   0.000420   0.000000
    20  H    0.000229   0.000392   0.000000  -0.000002   0.000000   0.000000
    21  H   -0.024929   0.000407   0.000000   0.000000   0.000000   0.000000
    22  H    0.378340  -0.000092   0.000000   0.000000   0.000000   0.000003
              19         20         21         22
     1  C   -0.000981   0.000000   0.000000   0.000002
     2  C    0.000565  -0.000002   0.000001  -0.000017
     3  C   -0.000526  -0.000093  -0.000084  -0.002033
     4  N   -0.000016   0.000000  -0.000002   0.002556
     5  H    0.000001   0.000000   0.000000   0.000911
     6  C   -0.000012   0.000000   0.000000   0.000017
     7  N    0.000002   0.000000   0.000000  -0.000004
     8  C   -0.030239   0.001532   0.001492  -0.034016
     9  C    0.380445  -0.023924   0.000204   0.002657
    10  C   -0.028945   0.380764   0.001998   0.000118
    11  C    0.002358  -0.029097  -0.028540   0.002389
    12  C    0.000111   0.001989   0.381178  -0.027527
    13  C    0.002560   0.000229  -0.024929   0.378340
    14  Cl  -0.000086   0.000392   0.000407  -0.000092
    15  H    0.000093   0.000000   0.000000   0.000000
    16  H   -0.001177  -0.000002   0.000000   0.000000
    17  H    0.000420   0.000000   0.000000   0.000000
    18  H    0.000000   0.000000   0.000000   0.000003
    19  H    0.443026  -0.001456   0.000008  -0.000108
    20  H   -0.001456   0.433140  -0.000096   0.000009
    21  H    0.000008  -0.000096   0.434886  -0.001596
    22  H   -0.000108   0.000009  -0.001596   0.466134
 Mulliken charges:
               1
     1  C   -0.540782
     2  C    0.188845
     3  C    0.231365
     4  N   -0.808883
     5  H    0.403897
     6  C    0.288341
     7  N   -0.549078
     8  C    0.025559
     9  C   -0.214422
    10  C   -0.181397
    11  C   -0.144694
    12  C   -0.177952
    13  C   -0.221576
    14  Cl  -0.001716
    15  H    0.202162
    16  H    0.179092
    17  H    0.178496
    18  H    0.224836
    19  H    0.233959
    20  H    0.236615
    21  H    0.235074
    22  H    0.212258
 Sum of Mulliken charges =   0.00000
 Mulliken charges with hydrogens summed into heavy atoms:
               1
     1  C    0.018969
     2  C    0.188845
     3  C    0.231365
     4  N   -0.404986
     6  C    0.513177
     7  N   -0.549078
     8  C    0.025559
     9  C    0.019537
    10  C    0.055218
    11  C   -0.144694
    12  C    0.057122
    13  C   -0.009318
    14  Cl  -0.001716
 DipInt: DoE/N= T F RetVal/Mat= T F Init=T NMatP=  1 IDeriv=0 Min/MaxMlt=  0  4
 Entering OneElI...
 OneElI was handed   235806453 working-precision words.
 Multipole integrals L=0 to 4 MinM= 0 MaxM= 0.
 Requested accuracy = 0.1000D-12
 ShPair: Thresh= 1.00D-13 NBox=     0 BxSize= 0.00D+00 RnKept= 1.70D+01
         NSMCal=                 2556 NSMKep=                2244
 PrsmSu:  NPrtUS=   1 ThrOK=F IAlg=1 NPAlg=1 LenDen=           0.
 Prism:   IPart=     0 DynPar=F LinDyn=F Incr=          22.
 PRISM was handed   235594068 working-precision words and  2244 shell-pairs
 IPart=  0 NShTot=        2244 NBatch=          83 AvBLen=        27.0
 PrSmSu:  NxtVal=             23.
 Electronic moments (au):
       -100.00000000          0.02447211         -0.93977169         -0.27199168
      -2903.32970805       -512.75387043       -106.89015289          5.69058523
          1.54265856         -0.41900357      -2584.56667762       -346.91669106
        -13.49065747       1080.59391694         15.54883910        -56.17821791
         46.49531002        -47.40971057        -99.97922526        441.20572080
    -148222.86948109      -7345.01014304       -469.97197364      -2931.23644034
       -469.17896337       2141.45370824       -360.48353936         89.09619443
        -23.18118555     -11203.95375425      -2535.72233274       -865.93917780
      -1175.69323998        362.34855246        225.74095452
 Electronic spatial extent (au):  <R**2>=           3522.9737
 DipInt: DoE/N= F T RetVal/Mat= T F Init=T NMatP=  1 IDeriv=0 Min/MaxMlt=  0  4
 Nuclear    moments (au):
        100.00000000          0.00000000          0.00000000          0.00000000
       2827.92676547        461.90246807         43.16988706          0.00000000
         -0.00003889         -0.00002553       2632.66294410        319.33468842
         13.10968255      -1101.88924782        -63.69679060         47.20887274
        -42.98463282         47.32602840         93.46699897       -457.53727658
     136920.73221649       5685.76823131         68.12195865       3343.06422251
        554.80868227      -2016.60508767        354.20029828        -86.01652487
         27.63940288       9439.29990941        709.20124392        507.03454147
       1208.47685058       -329.93222304       -223.14109004
 Total      moments (au):
          0.00000000          0.02447211         -0.93977169         -0.27199168
        -75.40294258        -50.85140236        -63.72026583          5.69058523
          1.54261967         -0.41902910         48.09626648        -27.58200264
         -0.38097492        -21.29533088        -48.14795149         -8.96934517
          3.51067719         -0.08368217         -6.51222629        -16.33155578
     -11302.13726460      -1659.24191173       -401.85001499        411.82778218
         85.62971889        124.84862056         -6.28324108          3.07966956
          4.45821733      -1764.65384484      -1826.52108882       -358.90463632
         32.78361060         32.41632942          2.59986448
 Traceless Quadrup. (au):
        -12.07807232         12.47346789         -0.39539557          5.69058523
          1.54261967         -0.41902910
 Charge=              0.0000 electrons
 Dipole moment (field-independent basis, Debye):
    X=              0.0622    Y=             -2.3887    Z=             -0.6913  Tot=              2.4875
 Quadrupole moment (field-independent basis, Debye-Ang):
   XX=           -101.4195   YY=            -68.3969   ZZ=            -85.7059
   XY=              7.6540   XZ=              2.0749   YZ=             -0.5636
 Traceless Quadrupole moment (field-independent basis, Debye-Ang):
   XX=            -16.2454   YY=             16.7772   ZZ=             -0.5318
   XY=              7.6540   XZ=              2.0749   YZ=             -0.5636
 Octapole moment (field-independent basis, Debye-Ang**2):
  XXX=             34.2331  YYY=            -19.6318  ZZZ=             -0.2712  XYY=            -15.1572
  XXY=            -34.2699  XXZ=             -6.3840  XZZ=              2.4988  YZZ=             -0.0596
  YYZ=             -4.6352  XYZ=            -11.6242
 Hexadecapole moment (field-independent basis, Debye-Ang**3):
 XXXX=          -4256.9266 YYYY=           -624.9500 ZZZZ=           -151.3560 XXXY=            155.1141
 XXXZ=             32.2523 YYYX=             47.0240 YYYZ=             -2.3666 ZZZX=              1.1600
 ZZZY=              1.6792 XXYY=           -664.6532 XXZZ=           -687.9554 YYZZ=           -135.1807
 XXYZ=             12.3479 YYXZ=             12.2095 ZZXY=              0.9792
 N-N= 7.969645818126D+02 E-N=-3.837243964017D+03  KE= 9.518218027423D+02
 Entering OneElI...
 OneElI was handed   235834825 working-precision words.
 Calculate electrostatic properties
    NBasis =   204  MinDer = 0  MaxDer = 0
    NGrid  =    22  NMatD  =   1
 Requested accuracy = 0.1000D-12
 PrtBox:  NBox=     1 Levels=  1 BoxLen=   32.45 SMaxX=       16.59
          Shift=            8.383585            4.367520            1.577184
 Box      1 Number                   0 centers from      1 to     71:
 ShPair: Thresh= 1.00D-13 NBox=     1 BxSize= 3.24D+01 RnKept= 1.70D+01
         NSMCal=                 2556 NSMKep=                2070
 PrsmSu:  NPrtUS=   1 ThrOK=F IAlg=1 NPAlg=1 LenDen=           0.
 Prism:   IPart=     0 DynPar=F LinDyn=F Incr=         455.
 PRISM was handed   235639398 working-precision words and  2070 shell-pairs
 IPart=  0 NShTot=       45540 NBatch=        2071 AvBLen=        22.0
 PrSmSu:  NxtVal=            456.
 --------------------------------------------------------
       Center         ----      EFG at Nuclei      ----
                      3XX-RR        3YY-RR        3ZZ-RR
 --------------------------------------------------------
     1   Atom        0.044674     -0.056898      0.012224
     2   Atom        0.036080      0.145896     -0.181977
     3   Atom        0.116955     -0.103593     -0.013361
     4   Atom       -0.296398     -0.292521      0.588919
     5   Atom        0.067133     -0.253449      0.186316
     6   Atom       -0.026879      0.227998     -0.201119
     7   Atom        0.621911     -0.157113     -0.464798
     8   Atom        0.104967      0.142400     -0.247367
     9   Atom        0.169859      0.089184     -0.259043
    10   Atom        0.186129      0.072638     -0.258767
    11   Atom       -0.291217      0.323410     -0.032193
    12   Atom        0.184180      0.070995     -0.255175
    13   Atom        0.168209      0.073655     -0.241863
    14   Atom       -3.632191      1.855078      1.777113
    15   Atom       -0.114499      0.110808      0.003691
    16   Atom       -0.171024      0.124987      0.046037
    17   Atom        0.150676     -0.002694     -0.147982
    18   Atom       -0.072748     -0.084872      0.157620
    19   Atom        0.017626     -0.128379      0.110753
    20   Atom        0.046139     -0.168526      0.122387
    21   Atom        0.012249     -0.130926      0.118676
    22   Atom        0.049608     -0.164894      0.115286
 --------------------------------------------------------
                        XY            XZ            YZ
 --------------------------------------------------------
     1   Atom       -0.000171     -0.011779     -0.018329
     2   Atom       -0.043704     -0.012052      0.077878
     3   Atom       -0.172519     -0.036540     -0.000960
     4   Atom        0.009687      0.035300     -0.248087
     5   Atom        0.208184      0.065227     -0.146787
     6   Atom        0.096374      0.011893      0.100124
     7   Atom       -0.531223     -0.140605      0.094085
     8   Atom        0.006660      0.015904     -0.169971
     9   Atom        0.016922      0.024233     -0.152171
    10   Atom        0.021121      0.010072     -0.144971
    11   Atom       -0.031369      0.004631     -0.155217
    12   Atom       -0.003212      0.016671     -0.143139
    13   Atom       -0.019269      0.008246     -0.139150
    14   Atom       -0.287280     -0.076315     -0.041078
    15   Atom        0.092003      0.200593     -0.071064
    16   Atom       -0.075221     -0.185744     -0.047377
    17   Atom        0.005309     -0.007484      0.205347
    18   Atom       -0.222092     -0.045093     -0.051987
    19   Atom        0.183981     -0.080712      0.128976
    20   Atom       -0.173761      0.061885      0.121308
    21   Atom        0.188900     -0.077058      0.119222
    22   Atom       -0.169339      0.062060      0.131326
 --------------------------------------------------------


 ---------------------------------------------------------------------------------
              Nuclear Quadrupole Coupling Constant in Principal Axis System
 ---------------------------------------------------------------------------------

       Atom             a.u.   MegaHertz   Gauss  10(-4) cm-1        Axes

              Baa    -0.3627     1.742     0.622     0.581 -0.2701  0.9292  0.2523
     4 N(14)  Bbb    -0.2923     1.404     0.501     0.468  0.9623  0.2696  0.0373
              Bcc     0.6550    -3.146    -1.122    -1.049  0.0333 -0.2528  0.9669
 
              Baa    -0.4916     2.361     0.842     0.787 -0.0311 -0.3161  0.9482
     7 N(14)  Bbb    -0.4201     2.017     0.720     0.673  0.4653  0.8350  0.2936
              Bcc     0.9116    -4.378    -1.562    -1.460  0.8846 -0.4504 -0.1211
 
              Baa    -3.6483   -69.993   -24.975   -23.347  0.9985  0.0522  0.0144
    14 Cl(35) Bbb     1.7652    33.865    12.084    11.296 -0.0310  0.3318  0.9429
              Bcc     1.8832    36.128    12.891    12.051 -0.0445  0.9419 -0.3329
 

 ---------------------------------------------------------------------------------

 No NMR shielding tensors so no spin-rotation constants.
 Leave Link  601 at Thu Jan 16 21:48:38 2014, MaxMem=   235929600 cpu:         1.2
 FitSet:  NAtFit=    22 NAtPot=    22 NAtFrz=     0 MDM=    26 TotChg=   0.00000
 Merz-Kollman atomic radii used.
 Atom Element Radius
    1     6    1.50
    2     6    1.50
    3     6    1.50
    4     7    1.50
    5     1    1.20
    6     6    1.50
    7     7    1.50
    8     6    1.50
    9     6    1.50
   10     6    1.50
   11     6    1.50
   12     6    1.50
   13     6    1.50
   14    17    1.70
   15     1    1.20
   16     1    1.20
   17     1    1.20
   18     1    1.20
   19     1    1.20
   20     1    1.20
   21     1    1.20
   22     1    1.20
 Generate VDW surfaces: Layer= 5 Dens= 2 Start= 1.400 Inc= 0.179

 **********************************************************************

            Electrostatic Properties Using The SCF Density

 **********************************************************************

       Atomic Center    1 is at  -2.575535  2.145046  0.478893
       Atomic Center    2 is at  -2.686061  0.689798  0.139481
       Atomic Center    3 is at  -1.678871 -0.242662 -0.072206
       Atomic Center    4 is at  -2.352463 -1.438273 -0.295285
       Atomic Center    5 is at  -1.922828 -2.311192 -0.565647
       Atomic Center    6 is at  -3.687156 -1.175803 -0.233861
       Atomic Center    7 is at  -3.923097  0.089347  0.036717
       Atomic Center    8 is at  -0.218796 -0.164270 -0.048647
       Atomic Center    9 is at   0.453875  0.999719 -0.463762
       Atomic Center   10 is at   1.843902  1.080455 -0.437609
       Atomic Center   11 is at   2.586154 -0.018340 -0.007184
       Atomic Center   12 is at   1.951763 -1.190353  0.402559
       Atomic Center   13 is at   0.561010 -1.253362  0.385295
       Atomic Center   14 is at   4.341963  0.073691  0.018224
       Atomic Center   15 is at  -3.422106  2.437427  1.106972
       Atomic Center   16 is at  -1.647941  2.367774  1.016092
       Atomic Center   17 is at  -2.603027  2.779368 -0.417570
       Atomic Center   18 is at  -4.436402 -1.940812 -0.389558
       Atomic Center   19 is at  -0.116328  1.844784 -0.834610
       Atomic Center   20 is at   2.348880  1.983605 -0.763620
       Atomic Center   21 is at   2.538727 -2.036426  0.744195
       Atomic Center   22 is at   0.074862 -2.156160  0.746155
      ESP Fit Center   23 is at  -2.575535  2.145046  2.578893
      ESP Fit Center   24 is at  -2.934656  1.523030  2.452248
      ESP Fit Center   25 is at  -2.216414  1.523030  2.452248
      ESP Fit Center   26 is at  -2.765636  3.953737  1.528893
      ESP Fit Center   27 is at  -2.384715  4.204320  0.843554
      ESP Fit Center   28 is at  -3.141496  4.134194  0.843554
      ESP Fit Center   29 is at  -4.354446  2.523165 -0.571107
      ESP Fit Center   30 is at  -2.686061  0.689798  2.239481
      ESP Fit Center   31 is at  -1.967819  0.689798  2.112836
      ESP Fit Center   32 is at  -3.404303  0.689798  2.112836
      ESP Fit Center   33 is at  -3.045182  0.067782  2.112836
      ESP Fit Center   34 is at  -2.326940  0.067782  2.112836
      ESP Fit Center   35 is at  -2.878165 -0.646316  1.748174
      ESP Fit Center   36 is at  -3.570027  1.709950 -1.469212
      ESP Fit Center   37 is at  -2.326940  1.311814 -1.833873
      ESP Fit Center   38 is at  -3.045182  1.311814 -1.833873
      ESP Fit Center   39 is at  -2.686061  0.689798 -1.960519
      ESP Fit Center   40 is at  -1.678871 -0.242662  2.027794
      ESP Fit Center   41 is at  -1.319750  0.379354  1.901149
      ESP Fit Center   42 is at  -2.037992 -0.864678  1.901149
      ESP Fit Center   43 is at  -1.319750 -0.864678  1.901149
      ESP Fit Center   44 is at  -0.960629 -0.242662 -2.045560
      ESP Fit Center   45 is at  -1.319750  0.379354 -2.045560
      ESP Fit Center   46 is at  -2.037992  0.379354 -2.045560
      ESP Fit Center   47 is at  -2.397113 -0.242662 -2.045560
      ESP Fit Center   48 is at  -1.319750 -0.864678 -2.045560
      ESP Fit Center   49 is at  -1.678871 -0.242662 -2.172206
      ESP Fit Center   50 is at  -2.352463 -1.438273  1.804715
      ESP Fit Center   51 is at  -1.634221 -1.438273  1.678070
      ESP Fit Center   52 is at  -2.711584 -0.816257  1.678070
      ESP Fit Center   53 is at  -2.711584 -2.060289  1.678070
      ESP Fit Center   54 is at  -1.993342 -2.060289  1.678070
      ESP Fit Center   55 is at  -2.544567 -2.774387  1.313408
      ESP Fit Center   56 is at  -1.791713 -2.666143  1.313408
      ESP Fit Center   57 is at  -3.261790 -3.013273  0.754715
      ESP Fit Center   58 is at  -2.542564 -3.246963  0.754715
      ESP Fit Center   59 is at  -3.261790 -3.013273 -1.345285
      ESP Fit Center   60 is at  -1.002609 -1.438273 -1.903978
      ESP Fit Center   61 is at  -3.236429 -2.458424 -1.903978
      ESP Fit Center   62 is at  -1.634221 -1.438273 -2.268639
      ESP Fit Center   63 is at  -1.993342 -0.816257 -2.268639
      ESP Fit Center   64 is at  -2.711584 -0.816257 -2.268639
      ESP Fit Center   65 is at  -3.070705 -1.438273 -2.268639
      ESP Fit Center   66 is at  -2.711584 -2.060289 -2.268639
      ESP Fit Center   67 is at  -1.993342 -2.060289 -2.268639
      ESP Fit Center   68 is at  -2.352463 -1.438273 -2.395285
      ESP Fit Center   69 is at  -1.558366 -2.942459  0.947981
      ESP Fit Center   70 is at  -2.328715 -3.560383  0.481816
      ESP Fit Center   71 is at  -1.516941 -3.560383  0.481816
      ESP Fit Center   72 is at  -3.148798 -3.397307 -0.191812
      ESP Fit Center   73 is at  -2.503628 -3.842635 -0.191812
      ESP Fit Center   74 is at  -1.725404 -3.937129 -0.191812
      ESP Fit Center   75 is at  -0.992407 -3.659140 -0.191812
      ESP Fit Center   76 is at  -3.148798 -3.397307 -0.939482
      ESP Fit Center   77 is at  -2.503628 -3.842635 -0.939482
      ESP Fit Center   78 is at  -1.725404 -3.937129 -0.939482
      ESP Fit Center   79 is at  -0.992407 -3.659140 -0.939482
      ESP Fit Center   80 is at  -0.472558 -3.072352 -0.939482
      ESP Fit Center   81 is at  -0.609351 -2.311192 -1.613110
      ESP Fit Center   82 is at  -2.985453 -3.083234 -1.613110
      ESP Fit Center   83 is at  -2.328715 -3.560383 -1.613110
      ESP Fit Center   84 is at  -1.516941 -3.560383 -1.613110
      ESP Fit Center   85 is at  -0.860203 -3.083234 -1.613110
      ESP Fit Center   86 is at  -1.193903 -2.311192 -2.079275
      ESP Fit Center   87 is at  -2.287290 -2.942459 -2.079275
      ESP Fit Center   88 is at  -1.558366 -2.942459 -2.079275
      ESP Fit Center   89 is at  -1.922828 -2.311192 -2.245647
      ESP Fit Center   90 is at  -3.687156 -1.175803  1.866139
      ESP Fit Center   91 is at  -2.968914 -1.175803  1.739494
      ESP Fit Center   92 is at  -4.405398 -1.175803  1.739494
      ESP Fit Center   93 is at  -4.046277 -1.797819  1.739494
      ESP Fit Center   94 is at  -3.328035 -1.797819  1.739494
      ESP Fit Center   95 is at  -4.982331 -1.556101  1.374832
      ESP Fit Center   96 is at  -4.571122 -2.195954  1.374832
      ESP Fit Center   97 is at  -3.879260 -2.511917  1.374832
      ESP Fit Center   98 is at  -3.877257 -2.984493  0.816139
      ESP Fit Center   99 is at  -3.496336 -3.235077  0.130800
      ESP Fit Center  100 is at  -5.720039 -0.795791 -0.598522
      ESP Fit Center  101 is at  -5.466067 -0.797684 -1.283861
      ESP Fit Center  102 is at  -4.982331 -0.795505 -1.842554
      ESP Fit Center  103 is at  -3.328035 -0.553787 -2.207215
      ESP Fit Center  104 is at  -4.046277 -0.553787 -2.207215
      ESP Fit Center  105 is at  -4.405398 -1.175803 -2.207215
      ESP Fit Center  106 is at  -4.046277 -1.797819 -2.207215
      ESP Fit Center  107 is at  -3.328035 -1.797819 -2.207215
      ESP Fit Center  108 is at  -3.687156 -1.175803 -2.333861
      ESP Fit Center  109 is at  -3.923097  0.089347  2.136717
      ESP Fit Center  110 is at  -4.282218  0.711363  2.010072
      ESP Fit Center  111 is at  -4.641339  0.089347  2.010072
      ESP Fit Center  112 is at  -4.282218 -0.532669  2.010072
      ESP Fit Center  113 is at  -3.563976 -0.532669  2.010072
      ESP Fit Center  114 is at  -4.807063  1.109499  1.645410
      ESP Fit Center  115 is at  -5.218272  0.469645  1.645410
      ESP Fit Center  116 is at  -5.218272 -0.290951  1.645410
      ESP Fit Center  117 is at  -4.807063 -0.930804  1.645410
      ESP Fit Center  118 is at  -5.394418  1.158325  1.086717
      ESP Fit Center  119 is at  -5.702008  0.467466  1.086717
      ESP Fit Center  120 is at  -5.702008 -0.288772  1.086717
      ESP Fit Center  121 is at  -5.394418 -0.979630  1.086717
      ESP Fit Center  122 is at  -5.169403  1.739724  0.401378
      ESP Fit Center  123 is at  -5.681428  1.178060  0.401378
      ESP Fit Center  124 is at  -5.955980  0.469359  0.401378
      ESP Fit Center  125 is at  -5.955980 -0.290665  0.401378
      ESP Fit Center  126 is at  -5.681428 -0.999365  0.401378
      ESP Fit Center  127 is at  -5.169403  1.739724 -0.327944
      ESP Fit Center  128 is at  -5.681428  1.178060 -0.327944
      ESP Fit Center  129 is at  -5.955980  0.469359 -0.327944
      ESP Fit Center  130 is at  -5.955980 -0.290665 -0.327944
      ESP Fit Center  131 is at  -4.113198  1.898038 -1.013283
      ESP Fit Center  132 is at  -4.832424  1.664347 -1.013283
      ESP Fit Center  133 is at  -5.394418  1.158325 -1.013283
      ESP Fit Center  134 is at  -5.702008  0.467466 -1.013283
      ESP Fit Center  135 is at  -5.702008 -0.288772 -1.013283
      ESP Fit Center  136 is at  -4.115201  1.425462 -1.571976
      ESP Fit Center  137 is at  -4.807063  1.109499 -1.571976
      ESP Fit Center  138 is at  -5.218272  0.469645 -1.571976
      ESP Fit Center  139 is at  -5.218272 -0.290951 -1.571976
      ESP Fit Center  140 is at  -3.204855  0.089347 -1.936637
      ESP Fit Center  141 is at  -3.563976  0.711363 -1.936637
      ESP Fit Center  142 is at  -4.282218  0.711363 -1.936637
      ESP Fit Center  143 is at  -4.641339  0.089347 -1.936637
      ESP Fit Center  144 is at  -3.923097  0.089347 -2.063283
      ESP Fit Center  145 is at  -0.218796 -0.164270  2.051353
      ESP Fit Center  146 is at   0.140325  0.457746  1.924708
      ESP Fit Center  147 is at  -0.577917  0.457746  1.924708
      ESP Fit Center  148 is at  -0.937038 -0.164270  1.924708
      ESP Fit Center  149 is at   0.916773  0.565516  1.560046
      ESP Fit Center  150 is at  -0.410900  1.171844  1.560046
      ESP Fit Center  151 is at  -0.410900 -1.500384 -1.657340
      ESP Fit Center  152 is at   0.916773 -0.894056 -1.657340
      ESP Fit Center  153 is at  -0.577917 -0.786286 -2.022001
      ESP Fit Center  154 is at   0.140325 -0.786286 -2.022001
      ESP Fit Center  155 is at  -0.218796 -0.164270 -2.148647
      ESP Fit Center  156 is at   0.453875  0.999719  1.636238
      ESP Fit Center  157 is at   0.812996  1.621735  1.509593
      ESP Fit Center  158 is at   0.094754  1.621735  1.509593
      ESP Fit Center  159 is at   1.014625  2.227589  1.144931
      ESP Fit Center  160 is at   0.261771  2.335833  1.144931
      ESP Fit Center  161 is at   1.015870  2.729361  0.586238
      ESP Fit Center  162 is at   0.263774  2.808410  0.586238
      ESP Fit Center  163 is at   1.014625  2.227589 -2.072455
      ESP Fit Center  164 is at  -0.841300  0.619421 -2.072455
      ESP Fit Center  165 is at   1.014625 -0.228151 -2.072455
      ESP Fit Center  166 is at   1.172117  0.999719 -2.437116
      ESP Fit Center  167 is at   0.812996  1.621735 -2.437116
      ESP Fit Center  168 is at  -0.264367  0.999719 -2.437116
      ESP Fit Center  169 is at   0.094754  0.377703 -2.437116
      ESP Fit Center  170 is at   0.812996  0.377703 -2.437116
      ESP Fit Center  171 is at   0.453875  0.999719 -2.563762
      ESP Fit Center  172 is at   1.843902  1.080455  1.662391
      ESP Fit Center  173 is at   2.203023  1.702471  1.535746
      ESP Fit Center  174 is at   1.484781  1.702471  1.535746
      ESP Fit Center  175 is at   1.125660  1.080455  1.535746
      ESP Fit Center  176 is at   2.979471  1.810241  1.171084
      ESP Fit Center  177 is at   2.404652  2.308325  1.171084
      ESP Fit Center  178 is at   1.651798  2.416569  1.171084
      ESP Fit Center  179 is at   1.653801  2.889145  0.612391
      ESP Fit Center  180 is at   3.193756  1.080455 -2.046302
      ESP Fit Center  181 is at   1.651798 -0.255660 -2.046302
      ESP Fit Center  182 is at   2.979471  0.350669 -2.046302
      ESP Fit Center  183 is at   2.562144  1.080455 -2.410963
      ESP Fit Center  184 is at   1.484781  1.702471 -2.410963
      ESP Fit Center  185 is at   1.484781  0.458439 -2.410963
      ESP Fit Center  186 is at   2.203023  0.458439 -2.410963
      ESP Fit Center  187 is at   1.843902  1.080455 -2.537609
      ESP Fit Center  188 is at   2.586154 -0.018340  2.092816
      ESP Fit Center  189 is at   2.945275  0.603676  1.966171
      ESP Fit Center  190 is at   2.227033  0.603676  1.966171
      ESP Fit Center  191 is at   2.394050  1.317774  1.601509
      ESP Fit Center  192 is at   3.146904 -1.246210 -1.615877
      ESP Fit Center  193 is at   2.227033 -0.640356 -1.980538
      ESP Fit Center  194 is at   2.945275 -0.640356 -1.980538
      ESP Fit Center  195 is at   2.586154 -0.018340 -2.107184
      ESP Fit Center  196 is at   1.951763 -1.190353  2.502559
      ESP Fit Center  197 is at   2.670005 -1.190353  2.375914
      ESP Fit Center  198 is at   2.310884 -0.568337  2.375914
      ESP Fit Center  199 is at   1.592642 -0.568337  2.375914
      ESP Fit Center  200 is at   1.233521 -1.190353  2.375914
      ESP Fit Center  201 is at   1.592642 -1.812369  2.375914
      ESP Fit Center  202 is at   3.301617 -1.190353  2.011252
      ESP Fit Center  203 is at   3.087332 -0.460567  2.011252
      ESP Fit Center  204 is at   1.759659  0.145761  2.011252
      ESP Fit Center  205 is at   1.385802 -3.179501  0.037898
      ESP Fit Center  206 is at   1.761662 -2.999044 -0.647441
      ESP Fit Center  207 is at   1.759659 -2.526468 -1.206134
      ESP Fit Center  208 is at   2.512513 -2.418223 -1.206134
      ESP Fit Center  209 is at   3.087332 -1.920139 -1.206134
      ESP Fit Center  210 is at   1.592642 -1.812369 -1.570795
      ESP Fit Center  211 is at   2.310884 -1.812369 -1.570795
      ESP Fit Center  212 is at   1.951763 -1.190353 -1.697441
      ESP Fit Center  213 is at   0.561010 -1.253362  2.485295
      ESP Fit Center  214 is at   0.920131 -0.631346  2.358650
      ESP Fit Center  215 is at   0.201889 -0.631346  2.358650
      ESP Fit Center  216 is at  -0.157232 -1.253362  2.358650
      ESP Fit Center  217 is at   0.920131 -1.875378  2.358650
      ESP Fit Center  218 is at   1.121760 -0.025492  1.993988
      ESP Fit Center  219 is at   0.368906  0.082752  1.993988
      ESP Fit Center  220 is at  -0.734165 -0.873064  1.993988
      ESP Fit Center  221 is at   0.370909 -3.062053 -0.664705
      ESP Fit Center  222 is at   1.123005 -2.983004 -0.664705
      ESP Fit Center  223 is at  -0.322956 -2.273514 -1.223398
      ESP Fit Center  224 is at   0.368906 -2.589476 -1.223398
      ESP Fit Center  225 is at   1.121760 -2.481232 -1.223398
      ESP Fit Center  226 is at   1.279252 -1.253362 -1.588059
      ESP Fit Center  227 is at   0.201889 -1.875378 -1.588059
      ESP Fit Center  228 is at   0.920131 -1.875378 -1.588059
      ESP Fit Center  229 is at   0.561010 -1.253362 -1.714705
      ESP Fit Center  230 is at   4.341963  0.073691  2.398224
      ESP Fit Center  231 is at   5.077423  0.073691  2.281739
      ESP Fit Center  232 is at   4.709693  0.710618  2.281739
      ESP Fit Center  233 is at   3.974233  0.710618  2.281739
      ESP Fit Center  234 is at   3.606503  0.073691  2.281739
      ESP Fit Center  235 is at   3.974233 -0.563237  2.281739
      ESP Fit Center  236 is at   4.709693 -0.563237  2.281739
      ESP Fit Center  237 is at   5.740892  0.073691  1.943684
      ESP Fit Center  238 is at   5.553471  0.773155  1.943684
      ESP Fit Center  239 is at   5.041427  1.285199  1.943684
      ESP Fit Center  240 is at   4.341963  1.472620  1.943684
      ESP Fit Center  241 is at   3.642499  1.285199  1.943684
      ESP Fit Center  242 is at   3.130455  0.773155  1.943684
      ESP Fit Center  243 is at   3.642499 -1.137817  1.943684
      ESP Fit Center  244 is at   4.341963 -1.325238  1.943684
      ESP Fit Center  245 is at   5.041427 -1.137817  1.943684
      ESP Fit Center  246 is at   5.553471 -0.625774  1.943684
      ESP Fit Center  247 is at   6.267423  0.073691  1.417153
      ESP Fit Center  248 is at   6.120857  0.810533  1.417153
      ESP Fit Center  249 is at   5.703469  1.435197  1.417153
      ESP Fit Center  250 is at   5.078805  1.852584  1.417153
      ESP Fit Center  251 is at   4.341963  1.999151  1.417153
      ESP Fit Center  252 is at   3.605121  1.852584  1.417153
      ESP Fit Center  253 is at   4.341963 -1.851770  1.417153
      ESP Fit Center  254 is at   5.078805 -1.705203  1.417153
      ESP Fit Center  255 is at   5.703469 -1.287815  1.417153
      ESP Fit Center  256 is at   6.120857 -0.663151  1.417153
      ESP Fit Center  257 is at   6.605478  0.073691  0.753684
      ESP Fit Center  258 is at   6.482834  0.808653  0.753684
      ESP Fit Center  259 is at   6.128194  1.463970  0.753684
      ESP Fit Center  260 is at   5.579988  1.968629  0.753684
      ESP Fit Center  261 is at   4.897623  2.267942  0.753684
      ESP Fit Center  262 is at   4.155043  2.329474  0.753684
      ESP Fit Center  263 is at   3.432720  2.146557  0.753684
      ESP Fit Center  264 is at   4.897623 -2.120561  0.753684
      ESP Fit Center  265 is at   5.579988 -1.821248  0.753684
      ESP Fit Center  266 is at   6.128194 -1.316589  0.753684
      ESP Fit Center  267 is at   6.482834 -0.661271  0.753684
      ESP Fit Center  268 is at   6.721963  0.073691  0.018224
      ESP Fit Center  269 is at   6.616226  0.775208  0.018224
      ESP Fit Center  270 is at   6.308411  1.414393  0.018224
      ESP Fit Center  271 is at   5.825869  1.934450  0.018224
      ESP Fit Center  272 is at   5.211475  2.289170  0.018224
      ESP Fit Center  273 is at   4.519821  2.447036  0.018224
      ESP Fit Center  274 is at   3.812363  2.394019  0.018224
      ESP Fit Center  275 is at   4.519821 -2.299654  0.018224
      ESP Fit Center  276 is at   5.211475 -2.141789  0.018224
      ESP Fit Center  277 is at   5.825869 -1.787068  0.018224
      ESP Fit Center  278 is at   6.308411 -1.267011  0.018224
      ESP Fit Center  279 is at   6.616226 -0.627827  0.018224
      ESP Fit Center  280 is at   6.605478  0.073691 -0.717236
      ESP Fit Center  281 is at   6.482834  0.808653 -0.717236
      ESP Fit Center  282 is at   6.128194  1.463970 -0.717236
      ESP Fit Center  283 is at   5.579988  1.968629 -0.717236
      ESP Fit Center  284 is at   4.897623  2.267942 -0.717236
      ESP Fit Center  285 is at   4.155043  2.329474 -0.717236
      ESP Fit Center  286 is at   4.155043 -2.182093 -0.717236
      ESP Fit Center  287 is at   4.897623 -2.120561 -0.717236
      ESP Fit Center  288 is at   5.579988 -1.821248 -0.717236
      ESP Fit Center  289 is at   6.128194 -1.316589 -0.717236
      ESP Fit Center  290 is at   6.482834 -0.661271 -0.717236
      ESP Fit Center  291 is at   6.267423  0.073691 -1.380705
      ESP Fit Center  292 is at   6.120857  0.810533 -1.380705
      ESP Fit Center  293 is at   5.703469  1.435197 -1.380705
      ESP Fit Center  294 is at   5.078805  1.852584 -1.380705
      ESP Fit Center  295 is at   4.341963  1.999151 -1.380705
      ESP Fit Center  296 is at   3.605121 -1.705203 -1.380705
      ESP Fit Center  297 is at   4.341963 -1.851770 -1.380705
      ESP Fit Center  298 is at   5.078805 -1.705203 -1.380705
      ESP Fit Center  299 is at   5.703469 -1.287815 -1.380705
      ESP Fit Center  300 is at   6.120857 -0.663151 -1.380705
      ESP Fit Center  301 is at   5.740892  0.073691 -1.907236
      ESP Fit Center  302 is at   5.553471  0.773155 -1.907236
      ESP Fit Center  303 is at   5.041427  1.285199 -1.907236
      ESP Fit Center  304 is at   4.341963  1.472620 -1.907236
      ESP Fit Center  305 is at   3.642499  1.285199 -1.907236
      ESP Fit Center  306 is at   3.642499 -1.137817 -1.907236
      ESP Fit Center  307 is at   4.341963 -1.325238 -1.907236
      ESP Fit Center  308 is at   5.041427 -1.137817 -1.907236
      ESP Fit Center  309 is at   5.553471 -0.625774 -1.907236
      ESP Fit Center  310 is at   5.077423  0.073691 -2.245290
      ESP Fit Center  311 is at   4.709693  0.710618 -2.245290
      ESP Fit Center  312 is at   3.974233  0.710618 -2.245290
      ESP Fit Center  313 is at   3.606503  0.073691 -2.245290
      ESP Fit Center  314 is at   3.974233 -0.563237 -2.245290
      ESP Fit Center  315 is at   4.709693 -0.563237 -2.245290
      ESP Fit Center  316 is at   4.341963  0.073691 -2.361776
      ESP Fit Center  317 is at  -3.422106  2.437427  2.786972
      ESP Fit Center  318 is at  -2.693181  2.437427  2.620600
      ESP Fit Center  319 is at  -3.057644  3.068694  2.620600
      ESP Fit Center  320 is at  -3.786568  3.068694  2.620600
      ESP Fit Center  321 is at  -4.151031  2.437427  2.620600
      ESP Fit Center  322 is at  -3.786568  1.806160  2.620600
      ESP Fit Center  323 is at  -3.057644  1.806160  2.620600
      ESP Fit Center  324 is at  -3.016219  3.686618  2.154435
      ESP Fit Center  325 is at  -3.827993  3.686618  2.154435
      ESP Fit Center  326 is at  -4.484731  3.209469  2.154435
      ESP Fit Center  327 is at  -4.735583  2.437427  2.154435
      ESP Fit Center  328 is at  -4.484731  1.665385  2.154435
      ESP Fit Center  329 is at  -3.827993  1.188236  2.154435
      ESP Fit Center  330 is at  -3.224681  4.063364  1.480807
      ESP Fit Center  331 is at  -4.002906  3.968871  1.480807
      ESP Fit Center  332 is at  -4.648076  3.523542  1.480807
      ESP Fit Center  333 is at  -5.012391  2.829397  1.480807
      ESP Fit Center  334 is at  -5.012391  2.045457  1.480807
      ESP Fit Center  335 is at  -4.002906  3.968871  0.733137
      ESP Fit Center  336 is at  -4.648076  3.523542  0.733137
      ESP Fit Center  337 is at  -5.012391  2.829397  0.733137
      ESP Fit Center  338 is at  -5.012391  2.045457  0.733137
      ESP Fit Center  339 is at  -4.484731  3.209469  0.059509
      ESP Fit Center  340 is at  -4.735583  2.437427  0.059509
      ESP Fit Center  341 is at  -1.647941  2.367774  2.696092
      ESP Fit Center  342 is at  -0.919016  2.367774  2.529720
      ESP Fit Center  343 is at  -1.283479  2.999041  2.529720
      ESP Fit Center  344 is at  -2.012403  2.999041  2.529720
      ESP Fit Center  345 is at  -2.012403  1.736507  2.529720
      ESP Fit Center  346 is at  -1.283479  1.736507  2.529720
      ESP Fit Center  347 is at  -0.334464  2.367774  2.063555
      ESP Fit Center  348 is at  -0.585316  3.139816  2.063555
      ESP Fit Center  349 is at  -1.242054  3.616965  2.063555
      ESP Fit Center  350 is at  -2.053828  3.616965  2.063555
      ESP Fit Center  351 is at  -1.242054  1.118583  2.063555
      ESP Fit Center  352 is at  -0.585316  1.595732  2.063555
      ESP Fit Center  353 is at  -0.010062  2.367774  1.389927
      ESP Fit Center  354 is at  -0.197671  3.128934  1.389927
      ESP Fit Center  355 is at  -0.717520  3.715722  1.389927
      ESP Fit Center  356 is at  -1.450516  3.993711  1.389927
      ESP Fit Center  357 is at  -0.197671  3.128934  0.642257
      ESP Fit Center  358 is at  -0.717520  3.715722  0.642257
      ESP Fit Center  359 is at  -1.450516  3.993711  0.642257
      ESP Fit Center  360 is at  -1.672606  4.127316 -0.043735
      ESP Fit Center  361 is at  -2.405602  4.405305 -0.043735
      ESP Fit Center  362 is at  -3.183827  4.310811 -0.043735
      ESP Fit Center  363 is at  -3.828997  3.865483 -0.043735
      ESP Fit Center  364 is at  -1.152757  3.540528 -0.791405
      ESP Fit Center  365 is at  -1.672606  4.127316 -0.791405
      ESP Fit Center  366 is at  -2.405602  4.405305 -0.791405
      ESP Fit Center  367 is at  -3.183827  4.310811 -0.791405
      ESP Fit Center  368 is at  -3.828997  3.865483 -0.791405
      ESP Fit Center  369 is at  -4.193312  3.171338 -0.791405
      ESP Fit Center  370 is at  -1.540402  3.551410 -1.465033
      ESP Fit Center  371 is at  -2.197140  4.028559 -1.465033
      ESP Fit Center  372 is at  -3.008914  4.028559 -1.465033
      ESP Fit Center  373 is at  -3.665652  3.551410 -1.465033
      ESP Fit Center  374 is at  -3.916504  2.779368 -1.465033
      ESP Fit Center  375 is at  -3.665652  2.007326 -1.465033
      ESP Fit Center  376 is at  -1.874102  2.779368 -1.931198
      ESP Fit Center  377 is at  -2.238565  3.410635 -1.931198
      ESP Fit Center  378 is at  -2.967489  3.410635 -1.931198
      ESP Fit Center  379 is at  -3.331952  2.779368 -1.931198
      ESP Fit Center  380 is at  -2.967489  2.148101 -1.931198
      ESP Fit Center  381 is at  -2.238565  2.148101 -1.931198
      ESP Fit Center  382 is at  -2.603027  2.779368 -2.097570
      ESP Fit Center  383 is at  -5.165327 -1.940812  1.124070
      ESP Fit Center  384 is at  -4.800864 -2.572079  1.124070
      ESP Fit Center  385 is at  -5.749879 -1.940812  0.657905
      ESP Fit Center  386 is at  -5.499027 -2.712854  0.657905
      ESP Fit Center  387 is at  -4.842289 -3.190003  0.657905
      ESP Fit Center  388 is at  -4.030515 -3.190003  0.657905
      ESP Fit Center  389 is at  -6.026687 -1.548842 -0.015723
      ESP Fit Center  390 is at  -6.026687 -2.332782 -0.015723
      ESP Fit Center  391 is at  -5.662372 -3.026926 -0.015723
      ESP Fit Center  392 is at  -5.017202 -3.472255 -0.015723
      ESP Fit Center  393 is at  -4.238978 -3.566749 -0.015723
      ESP Fit Center  394 is at  -3.505981 -3.288760 -0.015723
      ESP Fit Center  395 is at  -6.026687 -1.548842 -0.763393
      ESP Fit Center  396 is at  -6.026687 -2.332782 -0.763393
      ESP Fit Center  397 is at  -5.662372 -3.026926 -0.763393
      ESP Fit Center  398 is at  -5.017202 -3.472255 -0.763393
      ESP Fit Center  399 is at  -4.238978 -3.566749 -0.763393
      ESP Fit Center  400 is at  -3.505981 -3.288760 -0.763393
      ESP Fit Center  401 is at  -5.499027 -1.168769 -1.437021
      ESP Fit Center  402 is at  -5.749879 -1.940812 -1.437021
      ESP Fit Center  403 is at  -5.499027 -2.712854 -1.437021
      ESP Fit Center  404 is at  -4.842289 -3.190003 -1.437021
      ESP Fit Center  405 is at  -4.030515 -3.190003 -1.437021
      ESP Fit Center  406 is at  -5.165327 -1.940812 -1.903186
      ESP Fit Center  407 is at  -4.800864 -2.572079 -1.903186
      ESP Fit Center  408 is at  -4.071940 -2.572079 -1.903186
      ESP Fit Center  409 is at  -4.436402 -1.940812 -2.069558
      ESP Fit Center  410 is at   0.289559  3.093975  0.212853
      ESP Fit Center  411 is at   0.814093  3.192732 -0.460775
      ESP Fit Center  412 is at   0.081097  3.470721 -0.460775
      ESP Fit Center  413 is at  -0.697128  3.376227 -0.460775
      ESP Fit Center  414 is at   0.814093  3.192732 -1.208445
      ESP Fit Center  415 is at   0.081097  3.470721 -1.208445
      ESP Fit Center  416 is at  -0.697128  3.376227 -1.208445
      ESP Fit Center  417 is at   0.946297  2.616826 -1.882073
      ESP Fit Center  418 is at   0.289559  3.093975 -1.882073
      ESP Fit Center  419 is at  -0.522215  3.093975 -1.882073
      ESP Fit Center  420 is at  -1.178953  2.616826 -1.882073
      ESP Fit Center  421 is at  -1.429805  1.844784 -1.882073
      ESP Fit Center  422 is at  -1.178953  1.072742 -1.882073
      ESP Fit Center  423 is at   0.248134  2.476051 -2.348238
      ESP Fit Center  424 is at  -0.480790  2.476051 -2.348238
      ESP Fit Center  425 is at  -0.845253  1.844784 -2.348238
      ESP Fit Center  426 is at  -0.480790  1.213517 -2.348238
      ESP Fit Center  427 is at  -0.116328  1.844784 -2.514610
      ESP Fit Center  428 is at   2.713342  2.614872  0.750008
      ESP Fit Center  429 is at   3.411505  2.755647  0.283843
      ESP Fit Center  430 is at   2.754767  3.232796  0.283843
      ESP Fit Center  431 is at   1.942993  3.232796  0.283843
      ESP Fit Center  432 is at   3.799150  2.744765 -0.389785
      ESP Fit Center  433 is at   3.279301  3.331553 -0.389785
      ESP Fit Center  434 is at   2.546305  3.609542 -0.389785
      ESP Fit Center  435 is at   1.768080  3.515048 -0.389785
      ESP Fit Center  436 is at   1.122910  3.069719 -0.389785
      ESP Fit Center  437 is at   3.799150  2.744765 -1.137455
      ESP Fit Center  438 is at   3.279301  3.331553 -1.137455
      ESP Fit Center  439 is at   2.546305  3.609542 -1.137455
      ESP Fit Center  440 is at   1.768080  3.515048 -1.137455
      ESP Fit Center  441 is at   1.122910  3.069719 -1.137455
      ESP Fit Center  442 is at   3.662357  1.983605 -1.811083
      ESP Fit Center  443 is at   3.411505  2.755647 -1.811083
      ESP Fit Center  444 is at   2.754767  3.232796 -1.811083
      ESP Fit Center  445 is at   1.942993  3.232796 -1.811083
      ESP Fit Center  446 is at   1.286255  2.755647 -1.811083
      ESP Fit Center  447 is at   3.077805  1.983605 -2.277248
      ESP Fit Center  448 is at   2.713342  2.614872 -2.277248
      ESP Fit Center  449 is at   1.984418  2.614872 -2.277248
      ESP Fit Center  450 is at   2.348880  1.983605 -2.443620
      ESP Fit Center  451 is at   2.538727 -2.036426  2.424195
      ESP Fit Center  452 is at   3.267652 -2.036426  2.257823
      ESP Fit Center  453 is at   2.174265 -2.667693  2.257823
      ESP Fit Center  454 is at   2.903189 -2.667693  2.257823
      ESP Fit Center  455 is at   3.852204 -2.036426  1.791658
      ESP Fit Center  456 is at   1.476102 -2.808468  1.791658
      ESP Fit Center  457 is at   2.132840 -3.285617  1.791658
      ESP Fit Center  458 is at   2.944614 -3.285617  1.791658
      ESP Fit Center  459 is at   3.601352 -2.808468  1.791658
      ESP Fit Center  460 is at   4.176606 -2.036426  1.118030
      ESP Fit Center  461 is at   1.957927 -3.567869  1.118030
      ESP Fit Center  462 is at   2.736151 -3.662363  1.118030
      ESP Fit Center  463 is at   3.469148 -3.384374  1.118030
      ESP Fit Center  464 is at   3.988997 -2.797586  1.118030
      ESP Fit Center  465 is at   1.957927 -3.567869  0.370360
      ESP Fit Center  466 is at   2.736151 -3.662363  0.370360
      ESP Fit Center  467 is at   3.469148 -3.384374  0.370360
      ESP Fit Center  468 is at   3.988997 -2.797586  0.370360
      ESP Fit Center  469 is at   2.132840 -3.285617 -0.303268
      ESP Fit Center  470 is at   2.944614 -3.285617 -0.303268
      ESP Fit Center  471 is at   3.601352 -2.808468 -0.303268
      ESP Fit Center  472 is at   2.903189 -2.667693 -0.769433
      ESP Fit Center  473 is at   0.074862 -2.156160  2.426155
      ESP Fit Center  474 is at  -0.654063 -2.156160  2.259783
      ESP Fit Center  475 is at  -0.289600 -2.787427  2.259783
      ESP Fit Center  476 is at   0.439324 -2.787427  2.259783
      ESP Fit Center  477 is at  -1.238615 -2.156160  1.793618
      ESP Fit Center  478 is at  -0.987763 -2.928202  1.793618
      ESP Fit Center  479 is at  -0.331025 -3.405351  1.793618
      ESP Fit Center  480 is at   0.480749 -3.405351  1.793618
      ESP Fit Center  481 is at   1.137487 -2.928202  1.793618
      ESP Fit Center  482 is at  -1.151108 -3.242275  1.119990
      ESP Fit Center  483 is at  -0.505938 -3.687603  1.119990
      ESP Fit Center  484 is at   0.272286 -3.782097  1.119990
      ESP Fit Center  485 is at   1.005283 -3.504108  1.119990
      ESP Fit Center  486 is at  -0.505938 -3.687603  0.372320
      ESP Fit Center  487 is at   0.272286 -3.782097  0.372320
      ESP Fit Center  488 is at   1.005283 -3.504108  0.372320
      ESP Fit Center  489 is at  -0.331025 -3.405351 -0.301308
      ESP Fit Center  490 is at   0.480749 -3.405351 -0.301308
      ESP Fit Center  491 is at  -2.575535  2.145046  2.847221
      ESP Fit Center  492 is at  -2.941462  1.511242  2.731307
      ESP Fit Center  493 is at  -2.209608  1.511242  2.731307
      ESP Fit Center  494 is at  -2.575535  4.061064  1.870961
      ESP Fit Center  495 is at  -2.022600  4.328537  1.210747
      ESP Fit Center  496 is at  -2.761538  4.389767  1.210747
      ESP Fit Center  497 is at  -1.843681  4.397460  0.478893
      ESP Fit Center  498 is at  -2.575535  4.513374  0.478893
      ESP Fit Center  499 is at  -3.307389  4.397460  0.478893
      ESP Fit Center  500 is at  -0.798064  3.528507 -0.252961
      ESP Fit Center  501 is at  -4.556474  3.217077 -0.252961
      ESP Fit Center  502 is at  -4.797229  2.515781 -0.252961
      ESP Fit Center  503 is at  -2.686061  0.689798  2.507809
      ESP Fit Center  504 is at  -1.954207  0.689798  2.391895
      ESP Fit Center  505 is at  -3.417915  0.689798  2.391895
      ESP Fit Center  506 is at  -3.051988  0.055994  2.391895
      ESP Fit Center  507 is at  -2.320134  0.055994  2.391895
      ESP Fit Center  508 is at  -2.884173 -0.688101  2.055499
      ESP Fit Center  509 is at  -3.597672  1.741853 -1.776537
      ESP Fit Center  510 is at  -2.320134  1.323602 -2.112933
      ESP Fit Center  511 is at  -3.051988  1.323602 -2.112933
      ESP Fit Center  512 is at  -2.686061  0.689798 -2.228847
      ESP Fit Center  513 is at  -1.678871 -0.242662  2.296122
      ESP Fit Center  514 is at  -1.312944  0.391142  2.180208
      ESP Fit Center  515 is at  -2.044798 -0.876466  2.180208
      ESP Fit Center  516 is at  -1.312944 -0.876466  2.180208
      ESP Fit Center  517 is at  -0.947017 -0.242662 -2.324620
      ESP Fit Center  518 is at  -1.312944  0.391142 -2.324620
      ESP Fit Center  519 is at  -2.044798  0.391142 -2.324620
      ESP Fit Center  520 is at  -1.678871 -0.242662 -2.440534
      ESP Fit Center  521 is at  -2.352463 -1.438273  2.073043
      ESP Fit Center  522 is at  -2.718390 -2.072077  1.957129
      ESP Fit Center  523 is at  -1.986536 -2.072077  1.957129
      ESP Fit Center  524 is at  -2.550575 -2.816172  1.620733
      ESP Fit Center  525 is at  -1.774177 -2.704543  1.620733
      ESP Fit Center  526 is at  -3.085691 -3.208442  1.096783
      ESP Fit Center  527 is at  -2.352463 -3.354291  1.096783
      ESP Fit Center  528 is at  -1.619235 -3.208442  1.096783
      ESP Fit Center  529 is at  -3.257247 -3.500974  0.436569
      ESP Fit Center  530 is at  -0.960395 -1.438273 -2.211303
      ESP Fit Center  531 is at  -3.264074 -2.490328 -2.211303
      ESP Fit Center  532 is at  -1.620609 -1.438273 -2.547699
      ESP Fit Center  533 is at  -1.986536 -0.804469 -2.547699
      ESP Fit Center  534 is at  -2.718390 -0.804469 -2.547699
      ESP Fit Center  535 is at  -3.084317 -1.438273 -2.547699
      ESP Fit Center  536 is at  -2.718390 -2.072077 -2.547699
      ESP Fit Center  537 is at  -1.986536 -2.072077 -2.547699
      ESP Fit Center  538 is at  -2.352463 -1.438273 -2.663613
      ESP Fit Center  539 is at  -2.113491 -3.637284  0.774082
      ESP Fit Center  540 is at  -1.366285 -3.529852  0.774082
      ESP Fit Center  541 is at  -3.014210 -3.679741  0.159409
      ESP Fit Center  542 is at  -2.312338 -4.017745  0.159409
      ESP Fit Center  543 is at  -1.533319 -4.017745  0.159409
      ESP Fit Center  544 is at  -3.262557 -3.650921 -0.565647
      ESP Fit Center  545 is at  -2.647884 -4.061632 -0.565647
      ESP Fit Center  546 is at  -1.922828 -4.205854 -0.565647
      ESP Fit Center  547 is at  -1.197772 -4.061632 -0.565647
      ESP Fit Center  548 is at  -0.583099 -3.650921 -0.565647
      ESP Fit Center  549 is at  -3.014210 -3.679741 -1.290703
      ESP Fit Center  550 is at  -2.312338 -4.017745 -1.290703
      ESP Fit Center  551 is at  -1.533319 -4.017745 -1.290703
      ESP Fit Center  552 is at  -0.831447 -3.679741 -1.290703
      ESP Fit Center  553 is at  -0.345736 -3.070679 -1.290703
      ESP Fit Center  554 is at  -0.583099 -2.311192 -1.905376
      ESP Fit Center  555 is at  -2.800164 -3.323691 -1.905376
      ESP Fit Center  556 is at  -2.113491 -3.637284 -1.905376
      ESP Fit Center  557 is at  -1.366285 -3.529852 -1.905376
      ESP Fit Center  558 is at  -0.795777 -3.035504 -1.905376
      ESP Fit Center  559 is at  -1.197772 -2.311192 -2.316087
      ESP Fit Center  560 is at  -2.285356 -2.939109 -2.316087
      ESP Fit Center  561 is at  -1.560300 -2.939109 -2.316087
      ESP Fit Center  562 is at  -1.922828 -2.311192 -2.460309
      ESP Fit Center  563 is at  -3.687156 -1.175803  2.134467
      ESP Fit Center  564 is at  -2.955302 -1.175803  2.018553
      ESP Fit Center  565 is at  -4.419010 -1.175803  2.018553
      ESP Fit Center  566 is at  -4.053083 -1.809607  2.018553
      ESP Fit Center  567 is at  -3.321229 -1.809607  2.018553
      ESP Fit Center  568 is at  -5.022836 -1.567994  1.682157
      ESP Fit Center  569 is at  -4.598767 -2.227858  1.682157
      ESP Fit Center  570 is at  -3.885268 -2.553702  1.682157
      ESP Fit Center  571 is at  -5.603174 -1.175803  1.158207
      ESP Fit Center  572 is at  -3.687156 -3.091821  1.158207
      ESP Fit Center  573 is at  -5.908850 -0.805068 -0.965715
      ESP Fit Center  574 is at  -5.022836 -0.783612 -2.149879
      ESP Fit Center  575 is at  -3.885268 -2.553702 -2.149879
      ESP Fit Center  576 is at  -3.321229 -0.541999 -2.486275
      ESP Fit Center  577 is at  -4.053083 -0.541999 -2.486275
      ESP Fit Center  578 is at  -4.419010 -1.175803 -2.486275
      ESP Fit Center  579 is at  -4.053083 -1.809607 -2.486275
      ESP Fit Center  580 is at  -3.321229 -1.809607 -2.486275
      ESP Fit Center  581 is at  -3.687156 -1.175803 -2.602189
      ESP Fit Center  582 is at  -3.923097  0.089347  2.405045
      ESP Fit Center  583 is at  -4.289024  0.723151  2.289131
      ESP Fit Center  584 is at  -4.654951  0.089347  2.289131
      ESP Fit Center  585 is at  -4.289024 -0.544457  2.289131
      ESP Fit Center  586 is at  -3.557170 -0.544457  2.289131
      ESP Fit Center  587 is at  -4.834708  1.141402  1.952735
      ESP Fit Center  588 is at  -5.258777  0.481538  1.952735
      ESP Fit Center  589 is at  -5.258777 -0.302844  1.952735
      ESP Fit Center  590 is at  -4.834708 -0.962708  1.952735
      ESP Fit Center  591 is at  -5.277926  1.444176  1.428785
      ESP Fit Center  592 is at  -5.693267  0.822575  1.428785
      ESP Fit Center  593 is at  -5.839115  0.089347  1.428785
      ESP Fit Center  594 is at  -5.693267 -0.643881  1.428785
      ESP Fit Center  595 is at  -5.448615  1.746502  0.768571
      ESP Fit Center  596 is at  -5.904036  1.161378  0.768571
      ESP Fit Center  597 is at  -6.144791  0.460082  0.768571
      ESP Fit Center  598 is at  -6.144791 -0.281388  0.768571
      ESP Fit Center  599 is at  -5.904036 -0.982683  0.768571
      ESP Fit Center  600 is at  -5.315165  2.005365  0.036717
      ESP Fit Center  601 is at  -5.839115  1.481416  0.036717
      ESP Fit Center  602 is at  -6.175511  0.821201  0.036717
      ESP Fit Center  603 is at  -6.291425  0.089347  0.036717
      ESP Fit Center  604 is at  -6.175511 -0.642506  0.036717
      ESP Fit Center  605 is at  -4.827881  2.152048 -0.695137
      ESP Fit Center  606 is at  -5.448615  1.746502 -0.695137
      ESP Fit Center  607 is at  -5.904036  1.161378 -0.695137
      ESP Fit Center  608 is at  -6.144791  0.460082 -0.695137
      ESP Fit Center  609 is at  -6.144791 -0.281388 -0.695137
      ESP Fit Center  610 is at  -4.656325  1.859517 -1.355351
      ESP Fit Center  611 is at  -5.277926  1.444176 -1.355351
      ESP Fit Center  612 is at  -5.693267  0.822575 -1.355351
      ESP Fit Center  613 is at  -5.839115  0.089347 -1.355351
      ESP Fit Center  614 is at  -4.121209  1.467246 -1.879301
      ESP Fit Center  615 is at  -4.834708  1.141402 -1.879301
      ESP Fit Center  616 is at  -5.258777  0.481538 -1.879301
      ESP Fit Center  617 is at  -5.258777 -0.302844 -1.879301
      ESP Fit Center  618 is at  -3.191243  0.089347 -2.215697
      ESP Fit Center  619 is at  -3.557170  0.723151 -2.215697
      ESP Fit Center  620 is at  -4.289024  0.723151 -2.215697
      ESP Fit Center  621 is at  -4.654951  0.089347 -2.215697
      ESP Fit Center  622 is at  -3.923097  0.089347 -2.331611
      ESP Fit Center  623 is at   0.147131  0.469534  2.203767
      ESP Fit Center  624 is at  -0.584723  0.469534  2.203767
      ESP Fit Center  625 is at  -0.950650 -0.164270  2.203767
      ESP Fit Center  626 is at   0.952286  0.588339  1.867371
      ESP Fit Center  627 is at  -0.416908 -1.542169 -1.964665
      ESP Fit Center  628 is at   0.952286 -0.916879 -1.964665
      ESP Fit Center  629 is at  -0.584723 -0.798074 -2.301061
      ESP Fit Center  630 is at   0.147131 -0.798074 -2.301061
      ESP Fit Center  631 is at  -0.218796 -0.164270 -2.416975
      ESP Fit Center  632 is at   0.453875  0.999719  1.904566
      ESP Fit Center  633 is at   0.819802  1.633523  1.788652
      ESP Fit Center  634 is at   0.087948  1.633523  1.788652
      ESP Fit Center  635 is at   1.032161  2.265989  1.452256
      ESP Fit Center  636 is at   0.255763  2.377618  1.452256
      ESP Fit Center  637 is at   0.453875  2.915737  0.928306
      ESP Fit Center  638 is at   1.006810  3.183210  0.268092
      ESP Fit Center  639 is at   1.187103 -0.770451 -1.855830
      ESP Fit Center  640 is at   1.032161  2.265989 -2.379780
      ESP Fit Center  641 is at  -0.881805  0.607528 -2.379780
      ESP Fit Center  642 is at   0.255763 -0.378180 -2.379780
      ESP Fit Center  643 is at   1.032161 -0.266551 -2.379780
      ESP Fit Center  644 is at   1.185729  0.999719 -2.716176
      ESP Fit Center  645 is at   0.819802  1.633523 -2.716176
      ESP Fit Center  646 is at   0.087948  1.633523 -2.716176
      ESP Fit Center  647 is at  -0.277979  0.999719 -2.716176
      ESP Fit Center  648 is at   0.087948  0.365915 -2.716176
      ESP Fit Center  649 is at   0.819802  0.365915 -2.716176
      ESP Fit Center  650 is at   0.453875  0.999719 -2.832090
      ESP Fit Center  651 is at   2.209829  1.714259  1.814805
      ESP Fit Center  652 is at   1.477975  1.714259  1.814805
      ESP Fit Center  653 is at   1.112048  1.080455  1.814805
      ESP Fit Center  654 is at   2.422188  2.346725  1.478409
      ESP Fit Center  655 is at   1.645790  2.458354  1.478409
      ESP Fit Center  656 is at   3.198731  2.435284  0.954459
      ESP Fit Center  657 is at   2.577130  2.850624  0.954459
      ESP Fit Center  658 is at   1.843902  2.996473  0.954459
      ESP Fit Center  659 is at   1.110674  2.850624  0.954459
      ESP Fit Center  660 is at   3.235970  1.080455 -2.353627
      ESP Fit Center  661 is at   1.645790 -0.297444 -2.353627
      ESP Fit Center  662 is at   3.014984  0.327846 -2.353627
[...]
 2296 Fit      -0.000304
 2297 Fit      -0.001118
 2298 Fit       0.002006
 2299 Fit       0.000763
 2300 Fit      -0.000332
 2301 Fit      -0.001374
 2302 Fit       0.005100
 2303 Fit       0.003313
 2304 Fit       0.001855
 2305 Fit       0.000549
 2306 Fit      -0.000783
 2307 Fit      -0.002274
 2308 Fit      -0.004104
 2309 Fit       0.006541
 2310 Fit       0.004314
 2311 Fit      -0.002783
 2312 Fit      -0.005458
 2313 Fit      -0.009149
 2314 Fit      -0.014775
 2315 Fit      -0.008349
 2316 Fit      -0.013993
 2317 Fit      -0.010080
 2318 Fit      -0.012497
 2319 Fit      -0.012074
 2320 Fit      -0.010034
 2321 Fit      -0.007860
 2322 Fit      -0.010473
 2323 Fit      -0.000507
 2324 Fit      -0.008479
 2325 Fit      -0.005063
 2326 Fit      -0.008354
 2327 Fit      -0.007677
 2328 Fit      -0.008446
 2329 Fit      -0.008380
 2330 Fit      -0.007407
 2331 Fit      -0.005270
 2332 Fit      -0.002803
 2333 Fit      -0.001496
 2334 Fit      -0.002802
 2335 Fit      -0.004685
 2336 Fit      -0.002163
 2337 Fit      -0.005145
 2338 Fit      -0.001592
 2339 Fit       0.000906
 2340 Fit       0.002490
 2341 Fit       0.005965
 2342 Fit       0.007908
 2343 Fit       0.009580
 2344 Fit       0.012645
 2345 Fit       0.015668
 2346 Fit       0.018704
 2347 Fit       0.021616
 2348 Fit       0.024506
 2349 Fit       0.025550
 2350 Fit       0.028017
 2351 Fit       0.021082
 2352 Fit       0.012098
 2353 Fit       0.005679
 2354 Fit       0.013792
 2355 Fit       0.016348
 2356 Fit       0.015763
 2357 Fit       0.011580
 2358 Fit       0.005223
 2359 Fit       0.000563
 2360 Fit      -0.000577
 2361 Fit       0.003424
 2362 Fit       0.008790
 2363 Fit       0.009700
 2364 Fit       0.004327
 2365 Fit       0.027127
 2366 Fit       0.028357
 2367 Fit       0.030039
 2368 Fit       0.029233
 2369 Fit       0.029851
 2370 Fit       0.030596
 2371 Fit       0.029925
 2372 Fit       0.029707
 2373 Fit       0.029879
 2374 Fit       0.029853
 2375 Fit       0.029107
 2376 Fit       0.029061
 2377 Fit       0.028905
 2378 Fit       0.028918
 2379 Fit       0.028554
 2380 Fit       0.027281
 2381 Fit       0.024281
 2382 Fit       0.026757
 2383 Fit       0.026926
 2384 Fit       0.026166
 2385 Fit       0.023875
 2386 Fit       0.019358
 2387 Fit       0.023799
 2388 Fit       0.023072
 2389 Fit       0.019882
 2390 Fit       0.018961
 2391 Fit      -0.010535
 2392 Fit      -0.009099
 2393 Fit      -0.006210
 2394 Fit      -0.005095
 2395 Fit      -0.006300
 2396 Fit      -0.001564
 2397 Fit       0.000655
 2398 Fit      -0.009479
 2399 Fit      -0.002629
 2400 Fit       0.002123
 2401 Fit       0.005087
 2402 Fit       0.006636
 2403 Fit      -0.008481
 2404 Fit      -0.000904
 2405 Fit       0.004572
 2406 Fit       0.008267
 2407 Fit       0.010791
 2408 Fit       0.012752
 2409 Fit      -0.006891
 2410 Fit       0.016340
 2411 Fit       0.018937
 2412 Fit       0.022672
 2413 Fit      -0.007317
 2414 Fit      -0.008409
 2415 Fit      -0.007004
 2416 Fit      -0.005605
 2417 Fit       0.001419
 2418 Fit       0.015898
 2419 Fit       0.018986
 2420 Fit      -0.007116
 2421 Fit      -0.007004
 2422 Fit      -0.001223
 2423 Fit       0.004722
 2424 Fit       0.009321
 2425 Fit       0.012156
 2426 Fit      -0.003465
 2427 Fit      -0.004551
 2428 Fit      -0.000319
 2429 Fit       0.004925
 2430 Fit       0.005972
 2431 Fit       0.000603
 2432 Fit      -0.014781
 2433 Fit      -0.015651
 2434 Fit      -0.016560
 2435 Fit      -0.014373
 2436 Fit      -0.012971
 2437 Fit      -0.018426
 2438 Fit      -0.018368
 2439 Fit      -0.015812
 2440 Fit      -0.012506
 2441 Fit      -0.020211
 2442 Fit      -0.020695
 2443 Fit      -0.018529
 2444 Fit      -0.014626
 2445 Fit      -0.020114
 2446 Fit      -0.022591
 2447 Fit      -0.022119
 2448 Fit      -0.019196
 2449 Fit      -0.014445
 2450 Fit      -0.023136
 2451 Fit      -0.024202
 2452 Fit      -0.022854
 2453 Fit      -0.019339
 2454 Fit      -0.013967
 2455 Fit      -0.022080
 2456 Fit      -0.024657
 2457 Fit      -0.024923
 2458 Fit      -0.022945
 2459 Fit      -0.018804
 2460 Fit      -0.012592
 2461 Fit      -0.021732
 2462 Fit      -0.024455
 2463 Fit      -0.025213
 2464 Fit      -0.023868
 2465 Fit      -0.020371
 2466 Fit      -0.014672
 2467 Fit      -0.019639
 2468 Fit      -0.022916
 2469 Fit      -0.024484
 2470 Fit      -0.024023
 2471 Fit      -0.021368
 2472 Fit      -0.016407
 2473 Fit      -0.008933
 2474 Fit      -0.017977
 2475 Fit      -0.021383
 2476 Fit      -0.023030
 2477 Fit      -0.022623
 2478 Fit      -0.019959
 2479 Fit      -0.014905
 2480 Fit      -0.018343
 2481 Fit      -0.020700
 2482 Fit      -0.020807
 2483 Fit      -0.018377
 2484 Fit      -0.013292
 2485 Fit      -0.014829
 2486 Fit      -0.017723
 2487 Fit      -0.018470
 2488 Fit      -0.016546
 2489 Fit      -0.011876
 2490 Fit      -0.012633
 2491 Fit      -0.015108
 2492 Fit      -0.015531
 2493 Fit      -0.012863
 2494 Fit      -0.010755
 2495 Fit      -0.012670
 2496 Fit      -0.011149
 2497 Fit      -0.009509
 2498 Fit      -0.007753
 2499 Fit      -0.007346
 2500 Fit      -0.007248
 2501 Fit      -0.007989
 2502 Fit      -0.006220
 2503 Fit       0.004672
 2504 Fit       0.000014
 2505 Fit       0.000502
 2506 Fit      -0.001289
 2507 Fit      -0.007172
 2508 Fit      -0.000781
 2509 Fit       0.002148
 2510 Fit       0.005091
 2511 Fit      -0.000875
 2512 Fit       0.004919
 2513 Fit       0.002010
 2514 Fit      -0.000729
 2515 Fit      -0.001801
 2516 Fit      -0.001799
 2517 Fit      -0.002772
 2518 Fit      -0.004257
 2519 Fit      -0.001522
 2520 Fit       0.001136
 2521 Fit       0.001541
 2522 Fit      -0.000371
 2523 Fit      -0.001812
 2524 Fit      -0.002698
 2525 Fit      -0.000782
 2526 Fit      -0.007986
 2527 Fit      -0.007663
 2528 Fit      -0.009315
 2529 Fit      -0.006481
 2530 Fit      -0.005344
 2531 Fit      -0.005415
 2532 Fit      -0.004206
 2533 Fit      -0.002850
 2534 Fit      -0.002382
 2535 Fit      -0.001010
 2536 Fit       0.000218
 2537 Fit       0.000805
 2538 Fit       0.003614
 2539 Fit       0.004168
 2540 Fit       0.008232
 2541 Fit      -0.002848
 2542 Fit       0.000495
 2543 Fit       0.003411
 2544 Fit       0.004695
 2545 Fit       0.004340
 2546 Fit      -0.004965
 2547 Fit      -0.005306
 2548 Fit      -0.001832
 2549 Fit       0.000822
 2550 Fit       0.001143
 2551 Fit      -0.003253
 2552 Fit      -0.003511
 2553 Fit      -0.001429
 2554 Fit      -0.008265
 2555 Fit      -0.008584
 2556 Fit      -0.004960
 2557 Fit      -0.005175
 2558 Fit      -0.005769
 2559 Fit      -0.001810
 2560 Fit      -0.001818
 2561 Fit      -0.004516
 2562 Fit      -0.004756
 2563 Fit      -0.002069
 2564 Fit       0.001485
 2565 Fit       0.001452
 2566 Fit      -0.002447
 2567 Fit      -0.006914
 2568 Fit      -0.007362
 2569 Fit      -0.007262
 2570 Fit       0.006321
 2571 Fit       0.004961
 2572 Fit       0.001684
 2573 Fit      -0.009124
 2574 Fit       0.011046
 2575 Fit       0.015535
 2576 Fit       0.015142
 2577 Fit       0.013667
 2578 Fit       0.010532
 2579 Fit       0.008056
 2580 Fit       0.009974
 2581 Fit       0.006967
 2582 Fit       0.004294
 2583 Fit       0.001033
 2584 Fit       0.005849
 2585 Fit       0.003404
 2586 Fit       0.000756
 2587 Fit       0.000510
 2588 Fit      -0.001900
 2589 Fit      -0.002343
 2590 Fit      -0.003769
 2591 Fit      -0.001469
 2592 Fit      -0.004609
 2593 Fit      -0.004301
 2594 Fit      -0.001316
 2595 Fit       0.002214
 2596 Fit       0.001981
 2597 Fit      -0.007196
 2598 Fit      -0.006542
 2599 Fit      -0.005100
 2600 Fit      -0.001661
 2601 Fit       0.003070
 2602 Fit       0.007410
 2603 Fit       0.006071
 2604 Fit      -0.008808
 2605 Fit      -0.000120
 2606 Fit       0.018353
 2607 Fit       0.026034
 2608 Fit       0.018294
 2609 Fit       0.023603
 2610 Fit       0.015069
 2611 Fit       0.018756
 2612 Fit       0.011120
 2613 Fit       0.013500
 2614 Fit       0.008125
 2615 Fit       0.002396
 2616 Fit      -0.004196
 2617 Fit       0.004919
 2618 Fit       0.000667
 2619 Fit      -0.007323
 2620 Fit      -0.007678
 2621 Fit      -0.008183
 2622 Fit      -0.007879
 2623 Fit      -0.006872
 2624 Fit      -0.005700
 2625 Fit      -0.006483
 2626 Fit      -0.007625
 2627 Fit      -0.008188
 2628 Fit      -0.008475
 2629 Fit      -0.008335
 2630 Fit      -0.008026
 2631 Fit      -0.007811
 2632 Fit      -0.006982
 2633 Fit      -0.002953
 2634 Fit      -0.003692
 2635 Fit      -0.005501
 2636 Fit      -0.006832
 2637 Fit      -0.007113
 2638 Fit      -0.007597
 2639 Fit      -0.008076
 2640 Fit      -0.008335
 2641 Fit      -0.008198
 2642 Fit      -0.007798
 2643 Fit      -0.007632
 2644 Fit      -0.008111
 2645 Fit       0.000631
 2646 Fit      -0.002183
 2647 Fit      -0.004541
 2648 Fit      -0.005934
 2649 Fit      -0.006647
 2650 Fit      -0.006269
 2651 Fit      -0.006672
 2652 Fit      -0.007210
 2653 Fit      -0.007699
 2654 Fit      -0.007888
 2655 Fit      -0.007611
 2656 Fit      -0.006961
 2657 Fit      -0.006418
 2658 Fit      -0.006756
 2659 Fit      -0.000489
 2660 Fit      -0.003424
 2661 Fit      -0.005013
 2662 Fit      -0.005720
 2663 Fit      -0.006016
 2664 Fit      -0.005319
 2665 Fit      -0.005665
 2666 Fit      -0.006235
 2667 Fit      -0.006848
 2668 Fit      -0.007224
 2669 Fit      -0.007092
 2670 Fit      -0.006317
 2671 Fit      -0.005079
 2672 Fit      -0.004091
 2673 Fit       0.002692
 2674 Fit      -0.001622
 2675 Fit      -0.003913
 2676 Fit      -0.004913
 2677 Fit      -0.005193
 2678 Fit      -0.005217
 2679 Fit      -0.004514
 2680 Fit      -0.004786
 2681 Fit      -0.005323
 2682 Fit      -0.005966
 2683 Fit      -0.006458
 2684 Fit      -0.006498
 2685 Fit      -0.005820
 2686 Fit      -0.004290
 2687 Fit      -0.002081
 2688 Fit      -0.000022
 2689 Fit      -0.002942
 2690 Fit      -0.004323
 2691 Fit      -0.004752
 2692 Fit      -0.004694
 2693 Fit      -0.004526
 2694 Fit      -0.004060
 2695 Fit      -0.004275
 2696 Fit      -0.004776
 2697 Fit      -0.005398
 2698 Fit      -0.005870
 2699 Fit      -0.005855
 2700 Fit      -0.005001
 2701 Fit      -0.002982
 2702 Fit       0.000435
 2703 Fit       0.002905
 2704 Fit      -0.001288
 2705 Fit      -0.003558
 2706 Fit      -0.004531
 2707 Fit      -0.004689
 2708 Fit      -0.004448
 2709 Fit      -0.004156
 2710 Fit      -0.004069
 2711 Fit      -0.004226
 2712 Fit      -0.004657
 2713 Fit      -0.005188
 2714 Fit      -0.005526
 2715 Fit      -0.005301
 2716 Fit      -0.004080
 2717 Fit      -0.001346
 2718 Fit       0.000959
 2719 Fit      -0.002293
 2720 Fit      -0.004128
 2721 Fit      -0.004875
 2722 Fit      -0.004903
 2723 Fit      -0.004578
 2724 Fit      -0.004222
 2725 Fit      -0.004529
 2726 Fit      -0.004623
 2727 Fit      -0.004947
 2728 Fit      -0.005308
 2729 Fit      -0.005389
 2730 Fit      -0.004776
 2731 Fit      -0.002954
 2732 Fit       0.000797
 2733 Fit      -0.000574
 2734 Fit      -0.003100
 2735 Fit      -0.004683
 2736 Fit      -0.005367
 2737 Fit      -0.005395
 2738 Fit      -0.005077
 2739 Fit      -0.004714
 2740 Fit      -0.005309
 2741 Fit      -0.005335
 2742 Fit      -0.005517
 2743 Fit      -0.005599
 2744 Fit      -0.005175
 2745 Fit      -0.003722
 2746 Fit      -0.000571
 2747 Fit      -0.001400
 2748 Fit      -0.003332
 2749 Fit      -0.004941
 2750 Fit      -0.005836
 2751 Fit      -0.006055
 2752 Fit      -0.005846
 2753 Fit      -0.005515
 2754 Fit      -0.006186
 2755 Fit      -0.006118
 2756 Fit      -0.006075
 2757 Fit      -0.005759
 2758 Fit      -0.004726
 2759 Fit      -0.002479
 2760 Fit       0.001399
 2761 Fit      -0.003121
 2762 Fit      -0.003965
 2763 Fit      -0.005231
 2764 Fit      -0.006205
 2765 Fit      -0.006636
 2766 Fit      -0.006613
 2767 Fit      -0.006385
 2768 Fit      -0.006900
 2769 Fit      -0.006695
 2770 Fit      -0.006297
 2771 Fit      -0.005302
 2772 Fit      -0.003318
 2773 Fit      -0.000490
 2774 Fit      -0.004882
 2775 Fit      -0.005196
 2776 Fit      -0.006082
 2777 Fit      -0.006839
 2778 Fit      -0.007143
 2779 Fit      -0.007085
 2780 Fit      -0.007222
 2781 Fit      -0.006770
 2782 Fit      -0.005736
 2783 Fit      -0.003987
 2784 Fit      -0.002728
 2785 Fit      -0.005451
 2786 Fit      -0.005838
 2787 Fit      -0.005858
 2788 Fit      -0.006412
 2789 Fit      -0.007094
 2790 Fit      -0.007360
 2791 Fit      -0.007028
 2792 Fit      -0.006141
 2793 Fit      -0.005089
 2794 Fit      -0.005612
 2795 Fit      -0.006323
 2796 Fit      -0.006982
 2797 Fit      -0.006380
 2798 Fit      -0.005300
 2799 Fit      -0.003622
 2800 Fit      -0.004116
 2801 Fit      -0.006163
 2802 Fit      -0.007868
 2803 Fit      -0.002391
 2804 Fit      -0.002693
 2805 Fit      -0.003832
 2806 Fit      -0.006106
 2807 Fit      -0.009267
 2808 Fit      -0.011816
 2809 Fit      -0.001870
 2810 Fit      -0.002598
 2811 Fit      -0.003996
 2812 Fit      -0.006362
 2813 Fit      -0.009898
 2814 Fit      -0.014405
 2815 Fit      -0.001511
 2816 Fit      -0.002279
 2817 Fit      -0.003498
 2818 Fit      -0.005459
 2819 Fit      -0.008504
 2820 Fit      -0.013046
 2821 Fit      -0.002125
 2822 Fit      -0.003445
 2823 Fit      -0.005443
 2824 Fit      -0.008569
 2825 Fit      -0.013505
 2826 Fit      -0.004142
 2827 Fit      -0.006609
 2828 Fit      -0.010416
 2829 Fit      -0.016633
 2830 Fit      -0.009453
 2831 Fit      -0.015055
 2832 Fit      -0.003374
 2833 Fit      -0.002501
 2834 Fit      -0.001746
 2835 Fit      -0.004260
 2836 Fit      -0.002219
 2837 Fit      -0.000699
 2838 Fit      -0.000444
 2839 Fit      -0.001266
 2840 Fit      -0.005946
 2841 Fit      -0.004197
 2842 Fit      -0.002696
 2843 Fit      -0.000351
 2844 Fit       0.000754
 2845 Fit       0.000677
 2846 Fit      -0.000136
 2847 Fit      -0.005356
 2848 Fit      -0.000197
 2849 Fit       0.001723
 2850 Fit       0.002105
 2851 Fit       0.001582
 2852 Fit       0.003528
 2853 Fit       0.003700
 2854 Fit       0.002888
 2855 Fit       0.005859
 2856 Fit       0.001529
 2857 Fit      -0.000080
 2858 Fit       0.006475
 2859 Fit       0.004110
 2860 Fit       0.002318
 2861 Fit       0.000568
 2862 Fit      -0.001488
 2863 Fit      -0.004207
 2864 Fit       0.006686
 2865 Fit       0.004341
 2866 Fit       0.002469
 2867 Fit       0.000561
 2868 Fit      -0.001733
 2869 Fit      -0.004779
 2870 Fit      -0.009110
 2871 Fit       0.007665
 2872 Fit       0.004899
 2873 Fit       0.002712
 2874 Fit       0.000456
 2875 Fit      -0.002330
 2876 Fit      -0.006067
 2877 Fit      -0.011154
 2878 Fit       0.006853
 2879 Fit       0.004343
 2880 Fit       0.001831
 2881 Fit      -0.001110
 2882 Fit      -0.004849
 2883 Fit      -0.008953
 2884 Fit       0.003404
 2885 Fit       0.002865
 2886 Fit       0.000074
 2887 Fit      -0.003313
 2888 Fit      -0.004313
 2889 Fit      -0.000562
 2890 Fit      -0.000055
 2891 Fit       0.004044
 2892 Fit       0.008484
 2893 Fit       0.011784
 2894 Fit      -0.000836
 2895 Fit       0.005017
 2896 Fit       0.009205
 2897 Fit       0.012468
 2898 Fit       0.015359
 2899 Fit       0.018461
 2900 Fit      -0.002984
 2901 Fit       0.003779
 2902 Fit       0.008522
 2903 Fit       0.012131
 2904 Fit       0.015186
 2905 Fit       0.018263
 2906 Fit       0.022179
 2907 Fit      -0.001345
 2908 Fit       0.004940
 2909 Fit       0.009471
 2910 Fit       0.013000
 2911 Fit       0.016069
 2912 Fit       0.019263
 2913 Fit       0.023485
 2914 Fit      -0.003615
 2915 Fit       0.003181
 2916 Fit       0.008114
 2917 Fit       0.011914
 2918 Fit       0.015109
 2919 Fit       0.018223
 2920 Fit       0.021992
 2921 Fit       0.027692
 2922 Fit       0.004067
 2923 Fit       0.009094
 2924 Fit       0.013027
 2925 Fit       0.016491
 2926 Fit       0.020247
 2927 Fit       0.007677
 2928 Fit       0.012329
 2929 Fit       0.016185
 2930 Fit       0.010812
 2931 Fit       0.009571
 2932 Fit       0.011934
 2933 Fit       0.010457
 2934 Fit       0.009774
 2935 Fit       0.011380
 2936 Fit       0.010303
 2937 Fit       0.009740
 2938 Fit       0.010342
 2939 Fit       0.009504
 2940 Fit       0.008712
 2941 Fit       0.008161
 2942 Fit       0.007715
 2943 Fit       0.006278
 2944 Fit       0.003357
 2945 Fit       0.005123
 2946 Fit       0.002617
 2947 Fit       0.001959
 2948 Fit       0.002449
 2949 Fit       0.004714
 2950 Fit       0.006117
 2951 Fit       0.007172
 2952 Fit       0.003701
 2953 Fit       0.006070
 2954 Fit       0.007645
 2955 Fit       0.008970
 2956 Fit       0.004904
 2957 Fit       0.007140
 2958 Fit       0.008712
 2959 Fit       0.010139
 2960 Fit       0.012193
 2961 Fit       0.003018
 2962 Fit       0.005913
 2963 Fit       0.007879
 2964 Fit       0.009343
 2965 Fit       0.010783
 2966 Fit       0.001516
 2967 Fit       0.004914
 2968 Fit       0.007225
 2969 Fit       0.008816
 2970 Fit       0.010145
 2971 Fit       0.003543
 2972 Fit       0.006211
 2973 Fit       0.007778
 2974 Fit       0.004511
 2975 Fit       0.002548
 2976 Fit       0.006026
 2977 Fit       0.010390
 2978 Fit       0.008456
 2979 Fit       0.005344
 2980 Fit       0.014236
 2981 Fit       0.012286
 2982 Fit       0.010120
 2983 Fit       0.007381
 2984 Fit       0.003673
 2985 Fit       0.016199
 2986 Fit       0.013693
 2987 Fit       0.011462
 2988 Fit       0.008995
 2989 Fit       0.005831
 2990 Fit       0.016342
 2991 Fit       0.013533
 2992 Fit       0.011079
 2993 Fit       0.008339
 2994 Fit       0.004712
 2995 Fit       0.015955
 2996 Fit       0.012983
 2997 Fit       0.010401
 2998 Fit       0.007497
 2999 Fit       0.012080
 3000 Fit       0.009495
 3001 Fit       0.006593
 3002 Fit       0.006679
 3003 Fit       0.003069
 3004 Fit       0.004709
 3005 Fit       0.008493
 3006 Fit       0.008534
 3007 Fit       0.007305
 3008 Fit       0.011441
 3009 Fit       0.012814
 3010 Fit       0.012397
 3011 Fit       0.014909
 3012 Fit       0.016279
 3013 Fit       0.016120
 3014 Fit       0.015605
 3015 Fit       0.020658
 3016 Fit       0.020095
 3017 Fit       0.018934
 3018 Fit       0.018068
 3019 Fit       0.026347
 3020 Fit       0.023280
 3021 Fit       0.020812
 3022 Fit       0.019440
 3023 Fit       0.026864
 3024 Fit       0.022480
 3025 Fit       0.019904
 3026 Fit       0.025006
 3027 Fit       0.020209
 -----------------------------------------------------------------
 Leave Link  602 at Thu Jan 16 21:48:42 2014, MaxMem=   235929600 cpu:         4.2

 Test job not archived.
 1\1\GINC-G25\SP\RHF\Gen\C10H9Cl1N2\KOLAR\16-Jan-2014\0\\# hf/gen pop=m
 k iop(6/33=2,6/41=5,6/42=2)\\na resp\\0,1\C,0,-2.575535,2.145046,0.478
 893\C,0,-2.686061,0.689798,0.139481\C,0,-1.678871,-0.242662,-0.072206\
 N,0,-2.352463,-1.438273,-0.295285\H,0,-1.922828,-2.311192,-0.565647\C,
 0,-3.687156,-1.175803,-0.233861\N,0,-3.923097,0.089347,0.036717\C,0,-0
 .218796,-0.16427,-0.048647\C,0,0.453875,0.999719,-0.463762\C,0,1.84390
 2,1.080455,-0.437609\C,0,2.586154,-0.01834,-0.007184\C,0,1.951763,-1.1
 90353,0.402559\C,0,0.56101,-1.253362,0.385295\Cl,0,4.341963,0.073691,0
 .018224\H,0,-3.422106,2.437427,1.106972\H,0,-1.647941,2.367774,1.01609
 2\H,0,-2.603027,2.779368,-0.41757\H,0,-4.436402,-1.940812,-0.389558\H,
 0,-0.116328,1.844784,-0.83461\H,0,2.34888,1.983605,-0.76362\H,0,2.5387
 27,-2.036426,0.744195\H,0,0.074862,-2.15616,0.746155\\Version=AM64L-G0
 9RevD.01\State=1-A\HF=-952.300552\RMSD=6.847e-09\Dipole=0.0244722,-0.9
 397717,-0.2719917\Quadrupole=-12.0780728,12.4734684,-0.3953956,5.69058
 42,1.5426197,-0.419029\PG=C01 [X(C10H9Cl1N2)]\\@


 NATURE WILL TELL YOU A DIRECT LIE IF SHE CAN.

                                -- CHARLES DARWIN
 Job cpu time:       0 days  0 hours  1 minutes 53.1 seconds.
 File lengths (MBytes):  RWF=     17 Int=      0 D2E=      0 Chk=      3 Scr=      1
 Normal termination of Gaussian 09 at Thu Jan 16 21:48:43 2014.
110.44user 2.72system 1:56.25elapsed 97%CPU (0avgtext+0avgdata 7183776maxresident)k
41816inputs+56232outputs (3major+603514minor)pagefaults 0swaps
