Linux g42 2.6.38.6-client #1 SMP Tue Jun 12 11:27:21 CEST 2012 x86_64 GNU/Linux
Thu Jan 16 21:46:47 CET 2014

 Entering Gaussian System, Link 0=/usr/local/programs/common/gaussian/gaussian09_d01/arch/amd64-pgi_10.4.0-acml/g09/g09
 Initial command:
 /usr/local/programs/common/gaussian/gaussian09_d01/arch/amd64-pgi_10.4.0-acml/g09/l1.exe "/scratch/kolar/g09_17686/Gau-2220.inp" -scrdir="/scratch/kolar/g09_17686/"
 Entering Link 1 = /usr/local/programs/common/gaussian/gaussian09_d01/arch/amd64-pgi_10.4.0-acml/g09/l1.exe PID=      2225.
  
 Copyright (c) 1988,1990,1992,1993,1995,1998,2003,2009,2013,
            Gaussian, Inc.  All Rights Reserved.
  
 This is part of the Gaussian(R) 09 program.  It is based on
 the Gaussian(R) 03 system (copyright 2003, Gaussian, Inc.),
 the Gaussian(R) 98 system (copyright 1998, Gaussian, Inc.),
 the Gaussian(R) 94 system (copyright 1995, Gaussian, Inc.),
 the Gaussian 92(TM) system (copyright 1992, Gaussian, Inc.),
 the Gaussian 90(TM) system (copyright 1990, Gaussian, Inc.),
 the Gaussian 88(TM) system (copyright 1988, Gaussian, Inc.),
 the Gaussian 86(TM) system (copyright 1986, Carnegie Mellon
 University), and the Gaussian 82(TM) system (copyright 1983,
 Carnegie Mellon University). Gaussian is a federally registered
 trademark of Gaussian, Inc.
  
 This software contains proprietary and confidential information,
 including trade secrets, belonging to Gaussian, Inc.
  
 This software is provided under written license and may be
 used, copied, transmitted, or stored only in accord with that
 written license.
  
 The following legend is applicable only to US Government
 contracts under FAR:
  
                    RESTRICTED RIGHTS LEGEND
  
 Use, reproduction and disclosure by the US Government is
 subject to restrictions as set forth in subparagraphs (a)
 and (c) of the Commercial Computer Software - Restricted
 Rights clause in FAR 52.227-19.
  
 Gaussian, Inc.
 340 Quinnipiac St., Bldg. 40, Wallingford CT 06492
  
  
 ---------------------------------------------------------------
 Warning -- This program may not be used in any manner that
 competes with the business of Gaussian, Inc. or will provide
 assistance to any competitor of Gaussian, Inc.  The licensee
 of this program is prohibited from giving any competitor of
 Gaussian, Inc. access to this program.  By using this program,
 the user acknowledges that Gaussian, Inc. is engaged in the
 business of creating and licensing software in the field of
 computational chemistry and represents and warrants to the
 licensee that it is not a competitor of Gaussian, Inc. and that
 it will not use this program in any manner prohibited above.
 ---------------------------------------------------------------
  

 Cite this work as:
 Gaussian 09, Revision D.01,
 M. J. Frisch, G. W. Trucks, H. B. Schlegel, G. E. Scuseria, 
 M. A. Robb, J. R. Cheeseman, G. Scalmani, V. Barone, B. Mennucci, 
 G. A. Petersson, H. Nakatsuji, M. Caricato, X. Li, H. P. Hratchian, 
 A. F. Izmaylov, J. Bloino, G. Zheng, J. L. Sonnenberg, M. Hada, 
 M. Ehara, K. Toyota, R. Fukuda, J. Hasegawa, M. Ishida, T. Nakajima, 
 Y. Honda, O. Kitao, H. Nakai, T. Vreven, J. A. Montgomery, Jr., 
 J. E. Peralta, F. Ogliaro, M. Bearpark, J. J. Heyd, E. Brothers, 
 K. N. Kudin, V. N. Staroverov, T. Keith, R. Kobayashi, J. Normand, 
 K. Raghavachari, A. Rendell, J. C. Burant, S. S. Iyengar, J. Tomasi, 
 M. Cossi, N. Rega, J. M. Millam, M. Klene, J. E. Knox, J. B. Cross, 
 V. Bakken, C. Adamo, J. Jaramillo, R. Gomperts, R. E. Stratmann, 
 O. Yazyev, A. J. Austin, R. Cammi, C. Pomelli, J. W. Ochterski, 
 R. L. Martin, K. Morokuma, V. G. Zakrzewski, G. A. Voth, 
 P. Salvador, J. J. Dannenberg, S. Dapprich, A. D. Daniels, 
 O. Farkas, J. B. Foresman, J. V. Ortiz, J. Cioslowski, 
 and D. J. Fox, Gaussian, Inc., Wallingford CT, 2013.
 
 ******************************************
 Gaussian 09:  AM64L-G09RevD.01 24-Apr-2013
                16-Jan-2014 
 ******************************************
 %mem=1800mb
 -----------------------------------------
 # hf/gen pop=mk iop(6/33=2,6/41=5,6/42=2)
 -----------------------------------------
 1/38=1/1;
 2/12=2,17=6,18=5,40=1/2;
 3/5=7,11=9,16=1,25=1,30=1/1,2,3;
 4//1;
 5/5=2,38=5/2;
 6/7=2,8=2,9=2,10=2,15=8,20=1,28=1,33=2,41=5,42=2/1,2;
 99/5=1,9=1/99;
 -------
 na resp
 -------
 Symbolic Z-matrix:
 Charge =  0 Multiplicity = 1
 6                     0.80071  -2.54773  -0.00631 
 6                     0.06082  -1.23342  -0.00495 
 6                    -1.33851  -1.20761  -0.01345 
 6                    -2.03318   0.00012  -0.01359 
 6                    -1.33841   1.20777  -0.01336 
 6                     0.06094   1.23345  -0.00493 
 6                     0.7299   -0.00002   0.00244 
 17                    2.49943  -0.0001    0.01467 
 6                     0.80094   2.54769  -0.00627 
 8                    -3.42043   0.00032  -0.07649 
 1                     1.44288  -2.64674   0.8765 
 1                     0.09793  -3.3857   -0.01513 
 1                     1.45312  -2.63788  -0.88241 
 1                    -1.89927  -2.13772  -0.02936 
 1                    -1.89911   2.13791  -0.0291 
 1                     1.44353   2.64641   0.87626 
 1                     1.45296   2.638    -0.88266 
 1                     0.09824   3.38572  -0.01457 
 1                    -3.77634  -0.00232   0.82548 
 
                          Input orientation:                          
 ---------------------------------------------------------------------
 Center     Atomic      Atomic             Coordinates (Angstroms)
 Number     Number       Type             X           Y           Z
 ---------------------------------------------------------------------
      1          6           0        0.800708   -2.547734   -0.006305
      2          6           0        0.060820   -1.233424   -0.004948
      3          6           0       -1.338514   -1.207612   -0.013453
      4          6           0       -2.033183    0.000119   -0.013590
      5          6           0       -1.338407    1.207773   -0.013360
      6          6           0        0.060935    1.233448   -0.004934
      7          6           0        0.729899   -0.000017    0.002436
      8         17           0        2.499426   -0.000099    0.014673
      9          6           0        0.800944    2.547688   -0.006266
     10          8           0       -3.420425    0.000320   -0.076491
     11          1           0        1.442878   -2.646740    0.876498
     12          1           0        0.097926   -3.385702   -0.015127
     13          1           0        1.453120   -2.637882   -0.882414
     14          1           0       -1.899266   -2.137722   -0.029364
     15          1           0       -1.899109    2.137909   -0.029099
     16          1           0        1.443529    2.646407    0.876260
     17          1           0        1.452961    2.638000   -0.882659
     18          1           0        0.098235    3.385722   -0.014567
     19          1           0       -3.776335   -0.002315    0.825476
 ---------------------------------------------------------------------
                    Distance matrix (angstroms):
                    1          2          3          4          5
     1  C    0.000000
     2  C    1.508260   0.000000
     3  C    2.524331   1.399598   0.000000
     4  C    3.810846   2.430340   1.393262   0.000000
     5  C    4.322001   2.813779   2.415385   1.393249   0.000000
     6  C    3.852869   2.466872   2.813770   2.430330   1.399603
     7  C    2.548716   1.403216   2.395177   2.763128   2.395182
     8  Cl   3.062112   2.732814   4.023514   4.532697   4.023519
     9  C    5.095422   3.852868   4.321991   3.810832   2.524331
    10  O    4.931072   3.694091   2.407785   1.388667   2.407639
    11  H    1.096141   2.164369   3.255648   4.458825   4.835769
    12  H    1.093696   2.152622   2.609107   4.000676   4.812803
    13  H    1.096054   2.163550   3.254840   4.457377   4.830832
    14  H    2.731026   2.158770   1.086186   2.142089   3.392220
    15  H    5.407844   3.899717   3.392200   2.142046   1.086180
    16  H    5.307659   4.212066   4.835785   4.458946   3.255804
    17  H    5.299554   4.206704   4.830795   4.457230   3.254684
    18  H    5.974901   4.619308   4.812792   4.000656   2.609100
    19  H    5.302862   4.114486   2.845965   1.934584   2.848061
                    6          7          8          9         10
     6  C    0.000000
     7  C    1.403212   0.000000
     8  Cl   2.732812   1.769569   0.000000
     9  C    1.508258   2.548710   3.062107   0.000000
    10  O    3.693994   4.151074   5.920553   4.930920   0.000000
    11  H    4.212190   2.877059   2.977204   5.307865   5.618437
    12  H    4.619309   3.444207   4.150951   5.974900   4.883411
    13  H    4.206584   2.874776   2.976142   5.299349   5.600095
    14  H    3.899714   3.388702   4.890794   5.407840   2.624380
    15  H    2.158797   3.388717   4.890818   2.731067   2.624107
    16  H    2.164376   2.876873   2.976784   1.096136   5.618502
    17  H    2.163540   2.874951   2.976552   1.096060   5.599746
    18  H    2.152619   3.444201   4.150947   1.093695   4.883211
    19  H    4.115985   4.580780   6.327921   5.305261   0.969651
                   11         12         13         14         15
    11  H    0.000000
    12  H    1.774811   0.000000
    13  H    1.758964   1.774253   0.000000
    14  H    3.499945   2.355087   3.495189   0.000000
    15  H    5.906086   5.873553   5.896928   4.275631   0.000000
    16  H    5.293147   6.244322   5.569267   5.906126   3.500211
    17  H    5.569848   6.234879   5.275882   5.896869   3.495001
    18  H    6.244410   6.771424   6.234796   5.873556   2.355129
    19  H    5.851134   5.211892   6.100025   2.968855   2.972345
                   16         17         18         19
    16  H    0.000000
    17  H    1.758964   0.000000
    18  H    1.774817   1.774248   0.000000
    19  H    5.853656   6.102010   5.215051   0.000000
 Stoichiometry    C8H9ClO
 Framework group  C1[X(C8H9ClO)]
 Deg. of freedom    51
 Full point group                 C1      NOp   1
 Largest Abelian subgroup         C1      NOp   1
 Largest concise Abelian subgroup C1      NOp   1
                         Standard orientation:                         
 ---------------------------------------------------------------------
 Center     Atomic      Atomic             Coordinates (Angstroms)
 Number     Number       Type             X           Y           Z
 ---------------------------------------------------------------------
      1          6           0       -0.800708    2.547734   -0.006305
      2          6           0       -0.060820    1.233424   -0.004948
      3          6           0        1.338514    1.207612   -0.013453
      4          6           0        2.033183   -0.000119   -0.013590
      5          6           0        1.338407   -1.207773   -0.013360
      6          6           0       -0.060935   -1.233448   -0.004934
      7          6           0       -0.729899    0.000017    0.002436
      8         17           0       -2.499426    0.000099    0.014673
      9          6           0       -0.800944   -2.547688   -0.006266
     10          8           0        3.420425   -0.000320   -0.076491
     11          1           0       -1.442878    2.646740    0.876498
     12          1           0       -0.097926    3.385702   -0.015127
     13          1           0       -1.453120    2.637882   -0.882414
     14          1           0        1.899266    2.137722   -0.029364
     15          1           0        1.899109   -2.137909   -0.029099
     16          1           0       -1.443529   -2.646407    0.876260
     17          1           0       -1.452961   -2.638000   -0.882659
     18          1           0       -0.098235   -3.385722   -0.014567
     19          1           0        3.776335    0.002315    0.825476
 ---------------------------------------------------------------------
 Rotational constants (GHZ):      1.7327965      0.9122607      0.6031863
 General basis read from cards:  (5D, 7F)
 There are   172 symmetry adapted cartesian basis functions of A   symmetry.
 There are   162 symmetry adapted basis functions of A   symmetry.
   162 basis functions,   340 primitive gaussians,   172 cartesian basis functions
    41 alpha electrons       41 beta electrons
       nuclear repulsion energy       584.8849925486 Hartrees.
 NAtoms=   19 NActive=   19 NUniq=   19 SFac= 1.00D+00 NAtFMM=   60 NAOKFM=F Big=F
 Integral buffers will be    131072 words long.
 Raffenetti 1 integral format.
 Two-electron integral symmetry is turned on.
 One-electron integrals computed using PRISM.
 NBasis=   162 RedAO= T EigKep=  3.86D-04  NBF=   162
 NBsUse=   162 1.00D-06 EigRej= -1.00D+00 NBFU=   162
 ExpMin= 1.43D-01 ExpMax= 2.52D+04 ExpMxC= 3.78D+03 IAcc=1 IRadAn=         1 AccDes= 0.00D+00
 Harris functional with IExCor=  205 and IRadAn=       1 diagonalized for initial guess.
 HarFok:  IExCor=  205 AccDes= 0.00D+00 IRadAn=         1 IDoV= 1 UseB2=F ITyADJ=14
 ICtDFT=  3500011 ScaDFX=  1.000000  1.000000  1.000000  1.000000
 FoFCou: FMM=F IPFlag=           0 FMFlag=      100000 FMFlg1=           0
         NFxFlg=           0 DoJE=T BraDBF=F KetDBF=T FulRan=T
         wScrn=  0.000000 ICntrl=     500 IOpCl=  0 I1Cent=   200000004 NGrid=           0
         NMat0=    1 NMatS0=      1 NMatT0=    0 NMatD0=    1 NMtDS0=    0 NMtDT0=    0
 Petite list used in FoFCou.
 Keep R1 ints in memory in canonical form, NReq=89864603.
 Requested convergence on RMS density matrix=1.00D-08 within 128 cycles.
 Requested convergence on MAX density matrix=1.00D-06.
 Requested convergence on             energy=1.00D-06.
 No special actions if energy rises.
 SCF Done:  E(RHF) =  -842.521694208     A.U. after   14 cycles
            NFock= 14  Conv=0.37D-08     -V/T= 2.0003

 **********************************************************************

            Population analysis using the SCF density.

 **********************************************************************

 Orbital symmetries:
 BldTbl:  Degeneracy threshold= 1.00D-02
       Occupied  (A) (A) (A) (A) (A) (A) (A) (A) (A) (A) (A) (A)
                 (A) (A) (A) (A) (A) (A) (A) (A) (A) (A) (A) (A)
                 (A) (A) (A) (A) (A) (A) (A) (A) (A) (A) (A) (A)
                 (A) (A) (A) (A) (A)
       Virtual   (A) (A) (A) (A) (A) (A) (A) (A) (A) (A) (A) (A)
                 (A) (A) (A) (A) (A) (A) (A) (A) (A) (A) (A) (A)
                 (A) (A) (A) (A) (A) (A) (A) (A) (A) (A) (A) (A)
                 (A) (A) (A) (A) (A) (A) (A) (A) (A) (A) (A) (A)
                 (A) (A) (A) (A) (A) (A) (A) (A) (A) (A) (A) (A)
                 (A) (A) (A) (A) (A) (A) (A) (A) (A) (A) (A) (A)
                 (A) (A) (A) (A) (A) (A) (A) (A) (A) (A) (A) (A)
                 (A) (A) (A) (A) (A) (A) (A) (A) (A) (A) (A) (A)
                 (A) (A) (A) (A) (A) (A) (A) (A) (A) (A) (A) (A)
                 (A) (A) (A) (A) (A) (A) (A) (A) (A) (A) (A) (A)
                 (A)
 The electronic state is 1-A.
 Alpha  occ. eigenvalues -- -104.81520 -20.58300 -11.30138 -11.29457 -11.26224
 Alpha  occ. eigenvalues --  -11.26221 -11.23594 -11.23591 -11.22810 -11.22809
 Alpha  occ. eigenvalues --  -10.55348  -8.02200  -8.01886  -8.01881  -1.38769
 Alpha  occ. eigenvalues --   -1.18619  -1.10552  -1.07064  -1.00570  -0.93909
 Alpha  occ. eigenvalues --   -0.93791  -0.80724  -0.80629  -0.71060  -0.68329
 Alpha  occ. eigenvalues --   -0.65727  -0.61373  -0.59147  -0.57853  -0.57249
 Alpha  occ. eigenvalues --   -0.57177  -0.56130  -0.55420  -0.51855  -0.50536
 Alpha  occ. eigenvalues --   -0.49999  -0.47491  -0.45595  -0.44599  -0.33343
 Alpha  occ. eigenvalues --   -0.32122
 Alpha virt. eigenvalues --    0.13290   0.13466   0.20445   0.22322   0.24719
 Alpha virt. eigenvalues --    0.26518   0.27970   0.29009   0.31274   0.32376
 Alpha virt. eigenvalues --    0.32485   0.34154   0.38053   0.39456   0.42529
 Alpha virt. eigenvalues --    0.46127   0.47503   0.48908   0.55061   0.57553
 Alpha virt. eigenvalues --    0.59698   0.61416   0.63710   0.66093   0.66716
 Alpha virt. eigenvalues --    0.71813   0.73437   0.74409   0.76515   0.77523
 Alpha virt. eigenvalues --    0.78125   0.79411   0.84677   0.85038   0.86855
 Alpha virt. eigenvalues --    0.88302   0.89874   0.91918   0.95400   0.95791
 Alpha virt. eigenvalues --    0.96577   0.99658   1.00278   1.00711   1.02726
 Alpha virt. eigenvalues --    1.07317   1.10392   1.10695   1.12711   1.14189
 Alpha virt. eigenvalues --    1.15112   1.15602   1.17850   1.18903   1.18930
 Alpha virt. eigenvalues --    1.22448   1.24705   1.24713   1.25438   1.25718
 Alpha virt. eigenvalues --    1.26295   1.31386   1.32895   1.37414   1.38223
 Alpha virt. eigenvalues --    1.41249   1.41798   1.45653   1.48156   1.48964
 Alpha virt. eigenvalues --    1.60433   1.63227   1.63242   1.65360   1.68266
 Alpha virt. eigenvalues --    1.69822   1.74575   1.76620   1.83688   1.83978
 Alpha virt. eigenvalues --    1.97765   2.03167   2.07221   2.08050   2.13808
 Alpha virt. eigenvalues --    2.15906   2.16249   2.17719   2.18121   2.20474
 Alpha virt. eigenvalues --    2.23432   2.25254   2.29231   2.35002   2.41538
 Alpha virt. eigenvalues --    2.42202   2.44397   2.48142   2.50186   2.53540
 Alpha virt. eigenvalues --    2.57058   2.59015   2.64859   2.66280   2.68188
 Alpha virt. eigenvalues --    2.68712   2.70812   2.74221   2.78124   2.83918
 Alpha virt. eigenvalues --    2.87272   2.99043   3.01857   3.07285   3.15787
 Alpha virt. eigenvalues --    3.16139   3.22473   3.23840   3.34540   3.51851
 Alpha virt. eigenvalues --    3.76808
          Condensed to atoms (all electrons):
               1          2          3          4          5          6
     1  C    5.112424   0.323324  -0.031759   0.002437   0.000270   0.001467
     2  C    0.323324   4.874337   0.526913  -0.035005  -0.028713  -0.051883
     3  C   -0.031759   0.526913   5.032376   0.558045  -0.068785  -0.028717
     4  C    0.002437  -0.035005   0.558045   4.455109   0.558219  -0.035018
     5  C    0.000270  -0.028713  -0.068785   0.558219   5.031935   0.527002
     6  C    0.001467  -0.051883  -0.028717  -0.035018   0.527002   4.874296
     7  C   -0.049259   0.513979  -0.042229  -0.040637  -0.042214   0.513977
     8  Cl  -0.003948  -0.075318   0.001348   0.000435   0.001346  -0.075320
     9  C   -0.000079   0.001467   0.000270   0.002440  -0.031772   0.323336
    10  O   -0.000048   0.003455  -0.045032   0.192896  -0.044977   0.003449
    11  H    0.390044  -0.035630   0.000365  -0.000062   0.000013  -0.000047
    12  H    0.393252  -0.043516  -0.003095   0.000273  -0.000017   0.000022
    13  H    0.390371  -0.035387   0.000324  -0.000044   0.000013  -0.000049
    14  H   -0.003341  -0.029625   0.375662  -0.027818   0.003304   0.000009
    15  H    0.000005   0.000008   0.003308  -0.027793   0.375656  -0.029649
    16  H    0.000001  -0.000047   0.000013  -0.000062   0.000367  -0.035629
    17  H    0.000002  -0.000050   0.000013  -0.000044   0.000323  -0.035388
    18  H    0.000001   0.000022  -0.000017   0.000273  -0.003094  -0.043515
    19  H    0.000003  -0.000114  -0.001670  -0.024288  -0.001638  -0.000115
               7          8          9         10         11         12
     1  C   -0.049259  -0.003948  -0.000079  -0.000048   0.390044   0.393252
     2  C    0.513979  -0.075318   0.001467   0.003455  -0.035630  -0.043516
     3  C   -0.042229   0.001348   0.000270  -0.045032   0.000365  -0.003095
     4  C   -0.040637   0.000435   0.002440   0.192896  -0.000062   0.000273
     5  C   -0.042214   0.001346  -0.031772  -0.044977   0.000013  -0.000017
     6  C    0.513977  -0.075320   0.323336   0.003449  -0.000047   0.000022
     7  C    5.192979   0.233788  -0.049265   0.000155  -0.005091   0.004141
     8  Cl   0.233788  16.931131  -0.003948   0.000001  -0.000763   0.000577
     9  C   -0.049265  -0.003948   5.112428  -0.000048   0.000002   0.000001
    10  O    0.000155   0.000001  -0.000048   8.451955   0.000000  -0.000002
    11  H   -0.005091  -0.000763   0.000002   0.000000   0.508066  -0.025213
    12  H    0.004141   0.000577   0.000001  -0.000002  -0.025213   0.515481
    13  H   -0.005124  -0.000770   0.000002   0.000000  -0.029146  -0.024933
    14  H    0.003067  -0.000094   0.000005  -0.000133   0.000074   0.002336
    15  H    0.003067  -0.000094  -0.003341  -0.000125   0.000000   0.000000
    16  H   -0.005092  -0.000766   0.390051   0.000000  -0.000002   0.000000
    17  H   -0.005124  -0.000767   0.390362   0.000000   0.000001   0.000000
    18  H    0.004141   0.000577   0.393254  -0.000002   0.000000   0.000000
    19  H    0.000018   0.000000   0.000003   0.261944   0.000000   0.000000
              13         14         15         16         17         18
     1  C    0.390371  -0.003341   0.000005   0.000001   0.000002   0.000001
     2  C   -0.035387  -0.029625   0.000008  -0.000047  -0.000050   0.000022
     3  C    0.000324   0.375662   0.003308   0.000013   0.000013  -0.000017
     4  C   -0.000044  -0.027818  -0.027793  -0.000062  -0.000044   0.000273
     5  C    0.000013   0.003304   0.375656   0.000367   0.000323  -0.003094
     6  C   -0.000049   0.000009  -0.029649  -0.035629  -0.035388  -0.043515
     7  C   -0.005124   0.003067   0.003067  -0.005092  -0.005124   0.004141
     8  Cl  -0.000770  -0.000094  -0.000094  -0.000766  -0.000767   0.000577
     9  C    0.000002   0.000005  -0.003341   0.390051   0.390362   0.393254
    10  O    0.000000  -0.000133  -0.000125   0.000000   0.000000  -0.000002
    11  H   -0.029146   0.000074   0.000000  -0.000002   0.000001   0.000000
    12  H   -0.024933   0.002336   0.000000   0.000000   0.000000   0.000000
    13  H    0.504998   0.000076   0.000000   0.000001  -0.000002   0.000000
    14  H    0.000076   0.458100  -0.000110   0.000000   0.000000   0.000000
    15  H    0.000000  -0.000110   0.458039   0.000074   0.000076   0.002335
    16  H    0.000001   0.000000   0.000074   0.508052  -0.029146  -0.025211
    17  H   -0.000002   0.000000   0.000076  -0.029146   0.505018  -0.024934
    18  H    0.000000   0.000000   0.002335  -0.025211  -0.024934   0.515464
    19  H    0.000000   0.000206   0.000201   0.000000   0.000000   0.000000
              19
     1  C    0.000003
     2  C   -0.000114
     3  C   -0.001670
     4  C   -0.024288
     5  C   -0.001638
     6  C   -0.000115
     7  C    0.000018
     8  Cl   0.000000
     9  C    0.000003
    10  O    0.261944
    11  H    0.000000
    12  H    0.000000
    13  H    0.000000
    14  H    0.000206
    15  H    0.000201
    16  H    0.000000
    17  H    0.000000
    18  H    0.000000
    19  H    0.300711
 Mulliken charges:
               1
     1  C   -0.525165
     2  C    0.091782
     3  C   -0.277334
     4  C    0.420646
     5  C   -0.277238
     6  C    0.091774
     7  C   -0.225275
     8  Cl  -0.007414
     9  C   -0.525166
    10  O   -0.823489
    11  H    0.197390
    12  H    0.180692
    13  H    0.199672
    14  H    0.218281
    15  H    0.218342
    16  H    0.197396
    17  H    0.199660
    18  H    0.180705
    19  H    0.464740
 Sum of Mulliken charges =   0.00000
 Mulliken charges with hydrogens summed into heavy atoms:
               1
     1  C    0.052589
     2  C    0.091782
     3  C   -0.059053
     4  C    0.420646
     5  C   -0.058896
     6  C    0.091774
     7  C   -0.225275
     8  Cl  -0.007414
     9  C    0.052596
    10  O   -0.358749
 DipInt: DoE/N= T F RetVal/Mat= T F Init=T NMatP=  1 IDeriv=0 Min/MaxMlt=  0  4
 Entering OneElI...
 OneElI was handed   235851287 working-precision words.
 Multipole integrals L=0 to 4 MinM= 0 MaxM= 0.
 Requested accuracy = 0.1000D-12
 ShPair: Thresh= 1.00D-13 NBox=     0 BxSize= 0.00D+00 RnKept= 1.28D+01
         NSMCal=                 1770 NSMKep=                1649
 PrsmSu:  NPrtUS=   1 ThrOK=F IAlg=1 NPAlg=1 LenDen=           0.
 Prism:   IPart=     0 DynPar=F LinDyn=F Incr=          16.
 PRISM was handed   235696564 working-precision words and  1649 shell-pairs
 IPart=  0 NShTot=        1649 NBatch=          66 AvBLen=        25.0
 PrSmSu:  NxtVal=             17.
 Electronic moments (au):
        -82.00000000          0.41235614          0.00168575          0.64077308
      -1075.91603986       -663.91719862        -63.89733818          0.01444575
          5.11110937          0.00349865      -1203.67197292         -0.01616430
         -0.74525353        445.63616422          0.09265408          2.77372982
         17.85057675         -0.00689466          9.37576282         -0.01473788
     -30935.36385959     -15816.09038087       -262.99372728          0.71481226
         96.42877706         -0.34726180          0.14810400         -6.31715942
         -0.03331258      -3170.57244452       -797.03715206       -728.16073168
         -0.12579308          5.29834667         -0.04816992
 Electronic spatial extent (au):  <R**2>=           1803.7306
 DipInt: DoE/N= F T RetVal/Mat= T F Init=T NMatP=  1 IDeriv=0 Min/MaxMlt=  0  4
 Nuclear    moments (au):
         82.00000000          0.00000000          0.00000000          0.00000000
       1024.59330157        620.08462596         13.68402419          0.00000000
          0.00002422         -0.00001750       1220.09068383          0.01202091
          3.57852050       -441.27862753          0.01613720         35.21183918
        -11.79765841          0.01218479         -9.63478635          0.04022986
      27457.48351272      13497.50295716         36.44216840          0.10643795
        188.48453208          0.34812704         -0.15310853         27.62658010
          0.05823813       2207.80197054        214.12874272        275.69244842
          0.30825131         -3.33406664          0.08679184
 Total      moments (au):
          0.00000000          0.41235614          0.00168575          0.64077308
        -51.32273829        -43.83257266        -50.21331399          0.01444575
          5.11113359          0.00348115         16.41871091         -0.00414340
          2.83326696          4.35753669          0.10879128         37.98556900
          6.05291834          0.00529013         -0.25902353          0.02549198
      -3477.88034687      -2318.58742371       -226.55155888          0.82125021
        284.91330914          0.00086525         -0.00500453         21.30942068
          0.02492556       -962.77047398       -582.90840934       -452.46828326
          0.18245823          1.96428003          0.03862192
 Traceless Quadrup. (au):
         -2.86652998          4.62363565         -1.75710568          0.01444575
          5.11113359          0.00348115
 Charge=              0.0000 electrons
 Dipole moment (field-independent basis, Debye):
    X=              1.0481    Y=              0.0043    Z=              1.6287  Tot=              1.9368
 Quadrupole moment (field-independent basis, Debye-Ang):
   XX=            -69.0308   YY=            -58.9563   ZZ=            -67.5386
   XY=              0.0194   XZ=              6.8746   YZ=              0.0047
 Traceless Quadrupole moment (field-independent basis, Debye-Ang):
   XX=             -3.8556   YY=              6.2189   ZZ=             -2.3634
   XY=              0.0194   XZ=              6.8746   YZ=              0.0047
 Octapole moment (field-independent basis, Debye-Ang**2):
  XXX=             11.6862  YYY=             -0.0029  ZZZ=              2.0166  XYY=              3.1015
  XXY=              0.0774  XXZ=             27.0367  XZZ=              4.3082  YZZ=              0.0038
  YYZ=             -0.1844  XYZ=              0.0181
 Hexadecapole moment (field-independent basis, Debye-Ang**3):
 XXXX=          -1309.9364 YYYY=           -873.2911 ZZZZ=            -85.3302 XXXY=              0.3093
 XXXZ=            107.3120 YYYX=              0.0003 YYYZ=             -0.0019 ZZZX=              8.0261
 ZZZY=              0.0094 XXYY=           -362.6255 XXZZ=           -219.5512 YYZZ=           -170.4212
 XXYZ=              0.0687 YYXZ=              0.7398 ZZXY=              0.0145
 N-N= 5.848849925486D+02 E-N=-3.159163040828D+03  KE= 8.422618545457D+02
 Entering OneElI...
 OneElI was handed   235868868 working-precision words.
 Calculate electrostatic properties
    NBasis =   162  MinDer = 0  MaxDer = 0
    NGrid  =    19  NMatD  =   1
 Requested accuracy = 0.1000D-12
 ShPair: Thresh= 1.00D-13 NBox=     0 BxSize= 0.00D+00 RnKept= 1.28D+01
         NSMCal=                 1770 NSMKep=                1548
 PrsmSu:  NPrtUS=   1 ThrOK=F IAlg=1 NPAlg=1 LenDen=           0.
 Prism:   IPart=     0 DynPar=F LinDyn=F Incr=         294.
 PRISM was handed   235724372 working-precision words and  1548 shell-pairs
 IPart=  0 NShTot=       29412 NBatch=        1549 AvBLen=        19.0
 PrSmSu:  NxtVal=            295.
 --------------------------------------------------------
       Center         ----      EFG at Nuclei      ----
                      3XX-RR        3YY-RR        3ZZ-RR
 --------------------------------------------------------
     1   Atom        0.030460     -0.069742      0.039283
     2   Atom        0.204228      0.146134     -0.350362
     3   Atom        0.133946      0.110683     -0.244629
     4   Atom       -0.161430      0.391920     -0.230490
     5   Atom        0.133987      0.110749     -0.244736
     6   Atom        0.204250      0.146133     -0.350383
     7   Atom       -0.362559      0.347445      0.015115
     8   Atom       -3.534292      1.892434      1.641858
     9   Atom        0.030453     -0.069730      0.039277
    10   Atom       -1.383088      1.987112     -0.604024
    11   Atom        0.000441      0.137954     -0.138396
    12   Atom       -0.041717     -0.115938      0.157655
    13   Atom       -0.004667      0.138455     -0.133788
    14   Atom        0.023518     -0.191696      0.168178
    15   Atom        0.023559     -0.191731      0.168171
    16   Atom        0.000243      0.137976     -0.138219
    17   Atom       -0.004477      0.138445     -0.133968
    18   Atom       -0.041678     -0.115980      0.157658
    19   Atom        0.107215      0.256773     -0.363988
 --------------------------------------------------------
                        XY            XZ            YZ
 --------------------------------------------------------
     1   Atom        0.042729      0.000661      0.000180
     2   Atom       -0.009585     -0.004570     -0.000800
     3   Atom       -0.025022     -0.007445      0.000338
     4   Atom        0.000052      0.019055      0.000032
     5   Atom        0.024952     -0.007297     -0.000220
     6   Atom        0.009586     -0.004570      0.000781
     7   Atom        0.000027      0.001644     -0.000014
     8   Atom        0.000248      0.037788      0.000009
     9   Atom       -0.042747      0.000643     -0.000167
    10   Atom       -0.002194     -0.714101     -0.007044
    11   Atom        0.026686      0.210200     -0.030570
    12   Atom       -0.216168      0.002225      0.002672
    13   Atom        0.024907     -0.212057      0.027530
    14   Atom       -0.198233      0.001919      0.005922
    15   Atom        0.198224      0.001894     -0.005852
    16   Atom       -0.026635      0.210279      0.030469
    17   Atom       -0.024933     -0.211989     -0.027590
    18   Atom        0.216162      0.002085     -0.002508
    19   Atom       -0.000653     -0.224591     -0.001834
 --------------------------------------------------------


 ---------------------------------------------------------------------------------
              Nuclear Quadrupole Coupling Constant in Principal Axis System
 ---------------------------------------------------------------------------------

       Atom             a.u.   MegaHertz   Gauss  10(-4) cm-1        Axes

              Baa    -3.5346   -67.810   -24.196   -22.619  1.0000  0.0000 -0.0073
     8 Cl(35) Bbb     1.6421    31.504    11.241    10.509  0.0073  0.0000  1.0000
              Bcc     1.8924    36.306    12.955    12.110  0.0000  1.0000  0.0000
 

 ---------------------------------------------------------------------------------

 No NMR shielding tensors so no spin-rotation constants.
 Leave Link  601 at Thu Jan 16 21:47:09 2014, MaxMem=   235929600 cpu:         0.3
 FitSet:  NAtFit=    19 NAtPot=    19 NAtFrz=     0 MDM=    23 TotChg=   0.00000
 Merz-Kollman atomic radii used.
 Atom Element Radius
    1     6    1.50
    2     6    1.50
    3     6    1.50
    4     6    1.50
    5     6    1.50
    6     6    1.50
    7     6    1.50
    8    17    1.70
    9     6    1.50
   10     8    1.40
   11     1    1.20
   12     1    1.20
   13     1    1.20
   14     1    1.20
   15     1    1.20
   16     1    1.20
   17     1    1.20
   18     1    1.20
   19     1    1.20
 Generate VDW surfaces: Layer= 5 Dens= 2 Start= 1.400 Inc= 0.179

 **********************************************************************

            Electrostatic Properties Using The SCF Density

 **********************************************************************

       Atomic Center    1 is at  -0.800708  2.547734 -0.006305
       Atomic Center    2 is at  -0.060820  1.233424 -0.004948
       Atomic Center    3 is at   1.338514  1.207612 -0.013453
       Atomic Center    4 is at   2.033183 -0.000119 -0.013590
       Atomic Center    5 is at   1.338407 -1.207773 -0.013360
       Atomic Center    6 is at  -0.060935 -1.233448 -0.004934
       Atomic Center    7 is at  -0.729899  0.000017  0.002436
       Atomic Center    8 is at  -2.499426  0.000099  0.014673
       Atomic Center    9 is at  -0.800944 -2.547688 -0.006266
       Atomic Center   10 is at   3.420425 -0.000320 -0.076491
       Atomic Center   11 is at  -1.442878  2.646740  0.876498
       Atomic Center   12 is at  -0.097926  3.385702 -0.015127
       Atomic Center   13 is at  -1.453120  2.637882 -0.882414
       Atomic Center   14 is at   1.899266  2.137722 -0.029364
       Atomic Center   15 is at   1.899109 -2.137909 -0.029099
       Atomic Center   16 is at  -1.443529 -2.646407  0.876260
       Atomic Center   17 is at  -1.452961 -2.638000 -0.882659
       Atomic Center   18 is at  -0.098235 -3.385722 -0.014567
       Atomic Center   19 is at   3.776335  0.002315  0.825476
      ESP Fit Center   20 is at  -0.082466  2.547734  1.967050
      ESP Fit Center   21 is at   0.549146  2.547734  1.602388
      ESP Fit Center   22 is at  -0.990809  4.356425  1.043695
      ESP Fit Center   23 is at  -1.366669  4.536882  0.358356
      ESP Fit Center   24 is at  -2.047014  4.198110  0.358356
      ESP Fit Center   25 is at  -1.366669  4.536882 -0.370966
      ESP Fit Center   26 is at  -2.047014  4.198110 -0.370966
      ESP Fit Center   27 is at  -0.990809  4.356425 -1.056305
      ESP Fit Center   28 is at   0.549146  2.547734 -1.614998
      ESP Fit Center   29 is at  -0.082466  2.547734 -1.979659
      ESP Fit Center   30 is at  -0.060820  1.233424  2.095052
      ESP Fit Center   31 is at   0.298301  1.855440  1.968407
      ESP Fit Center   32 is at  -0.419941  1.855440  1.968407
      ESP Fit Center   33 is at  -0.779062  1.233424  1.968407
      ESP Fit Center   34 is at   0.298301  0.611408  1.968407
      ESP Fit Center   35 is at   0.298301  1.855440 -1.978302
      ESP Fit Center   36 is at  -0.419941  1.855440 -1.978302
      ESP Fit Center   37 is at  -0.779062  1.233424 -1.978302
      ESP Fit Center   38 is at   0.298301  0.611408 -1.978302
      ESP Fit Center   39 is at  -0.060820  1.233424 -2.104948
      ESP Fit Center   40 is at   1.338514  1.207612  2.086547
      ESP Fit Center   41 is at   2.056756  1.207612  1.959902
      ESP Fit Center   42 is at   1.697635  1.829628  1.959902
      ESP Fit Center   43 is at   0.979393  1.829628  1.959902
      ESP Fit Center   44 is at   0.979393  0.585596  1.959902
      ESP Fit Center   45 is at   2.688368  1.207612  1.595240
      ESP Fit Center   46 is at   2.474083  1.937398  1.595240
      ESP Fit Center   47 is at   1.146410  2.543726  1.595240
      ESP Fit Center   48 is at   2.688368  1.207612 -1.622146
      ESP Fit Center   49 is at   2.474083  1.937398 -1.622146
      ESP Fit Center   50 is at   1.146410  2.543726 -1.622146
      ESP Fit Center   51 is at   2.056756  1.207612 -1.986807
      ESP Fit Center   52 is at   1.697635  1.829628 -1.986807
      ESP Fit Center   53 is at   0.979393  1.829628 -1.986807
      ESP Fit Center   54 is at   0.979393  0.585596 -1.986807
      ESP Fit Center   55 is at   1.338514  1.207612 -2.113453
      ESP Fit Center   56 is at   2.033183 -0.000119  2.086410
      ESP Fit Center   57 is at   2.392304  0.621897  1.959765
      ESP Fit Center   58 is at   1.314941 -0.000119  1.959765
      ESP Fit Center   59 is at   2.392304 -0.622135  1.959765
      ESP Fit Center   60 is at   2.751425 -0.000119 -1.986944
      ESP Fit Center   61 is at   2.392304  0.621897 -1.986944
      ESP Fit Center   62 is at   1.314941 -0.000119 -1.986944
      ESP Fit Center   63 is at   2.392304 -0.622135 -1.986944
      ESP Fit Center   64 is at   2.033183 -0.000119 -2.113590
      ESP Fit Center   65 is at   1.338407 -1.207773  2.086640
      ESP Fit Center   66 is at   2.056649 -1.207773  1.959995
      ESP Fit Center   67 is at   0.979286 -0.585757  1.959995
      ESP Fit Center   68 is at   0.979286 -1.829789  1.959995
      ESP Fit Center   69 is at   1.697528 -1.829789  1.959995
      ESP Fit Center   70 is at   2.688261 -1.207773  1.595333
      ESP Fit Center   71 is at   1.146303 -2.543887  1.595333
      ESP Fit Center   72 is at   2.473976 -1.937559  1.595333
      ESP Fit Center   73 is at   2.688261 -1.207773 -1.622053
      ESP Fit Center   74 is at   1.146303 -2.543887 -1.622053
      ESP Fit Center   75 is at   2.473976 -1.937559 -1.622053
      ESP Fit Center   76 is at   2.056649 -1.207773 -1.986714
      ESP Fit Center   77 is at   0.979286 -0.585757 -1.986714
      ESP Fit Center   78 is at   0.979286 -1.829789 -1.986714
      ESP Fit Center   79 is at   1.697528 -1.829789 -1.986714
      ESP Fit Center   80 is at   1.338407 -1.207773 -2.113360
      ESP Fit Center   81 is at  -0.060935 -1.233448  2.095066
      ESP Fit Center   82 is at   0.298186 -0.611432  1.968421
      ESP Fit Center   83 is at  -0.779177 -1.233448  1.968421
      ESP Fit Center   84 is at  -0.420056 -1.855464  1.968421
      ESP Fit Center   85 is at   0.298186 -1.855464  1.968421
      ESP Fit Center   86 is at   0.298186 -0.611432 -1.978288
      ESP Fit Center   87 is at  -0.779177 -1.233448 -1.978288
      ESP Fit Center   88 is at  -0.420056 -1.855464 -1.978288
      ESP Fit Center   89 is at   0.298186 -1.855464 -1.978288
      ESP Fit Center   90 is at  -0.060935 -1.233448 -2.104934
      ESP Fit Center   91 is at  -0.729899  0.000017  2.102436
      ESP Fit Center   92 is at  -0.011657  0.000017  1.975791
      ESP Fit Center   93 is at  -1.089020  0.622033  1.975791
      ESP Fit Center   94 is at  -1.089020 -0.621999  1.975791
      ESP Fit Center   95 is at   0.619955  0.000017  1.611129
      ESP Fit Center   96 is at   0.619955  0.000017 -1.606257
      ESP Fit Center   97 is at  -0.011657  0.000017 -1.970918
      ESP Fit Center   98 is at  -1.089020  0.622033 -1.970918
      ESP Fit Center   99 is at  -1.089020 -0.621999 -1.970918
      ESP Fit Center  100 is at  -0.729899  0.000017 -2.097564
      ESP Fit Center  101 is at  -2.499426  0.000099  2.394673
      ESP Fit Center  102 is at  -1.763966  0.000099  2.278188
      ESP Fit Center  103 is at  -2.131696  0.637027  2.278188
      ESP Fit Center  104 is at  -2.867156  0.637027  2.278188
      ESP Fit Center  105 is at  -3.234887  0.000099  2.278188
      ESP Fit Center  106 is at  -2.867156 -0.636828  2.278188
      ESP Fit Center  107 is at  -2.131696 -0.636828  2.278188
      ESP Fit Center  108 is at  -1.287918  0.699564  1.940133
      ESP Fit Center  109 is at  -1.799962  1.211607  1.940133
      ESP Fit Center  110 is at  -2.499426  1.399028  1.940133
      ESP Fit Center  111 is at  -3.198891  1.211607  1.940133
      ESP Fit Center  112 is at  -3.710934  0.699564  1.940133
      ESP Fit Center  113 is at  -3.898355  0.000099  1.940133
      ESP Fit Center  114 is at  -3.710934 -0.699365  1.940133
      ESP Fit Center  115 is at  -3.198891 -1.211409  1.940133
      ESP Fit Center  116 is at  -2.499426 -1.398830  1.940133
      ESP Fit Center  117 is at  -1.799962 -1.211409  1.940133
      ESP Fit Center  118 is at  -1.287918 -0.699365  1.940133
      ESP Fit Center  119 is at  -3.236268  1.778993  1.413602
      ESP Fit Center  120 is at  -3.860932  1.361605  1.413602
      ESP Fit Center  121 is at  -4.278320  0.736941  1.413602
      ESP Fit Center  122 is at  -4.424887  0.000099  1.413602
      ESP Fit Center  123 is at  -4.278320 -0.736743  1.413602
      ESP Fit Center  124 is at  -3.860932 -1.361407  1.413602
      ESP Fit Center  125 is at  -3.236268 -1.778794  1.413602
      ESP Fit Center  126 is at  -3.408670  2.072965  0.750133
      ESP Fit Center  127 is at  -4.032463  1.665421  0.750133
      ESP Fit Center  128 is at  -4.490128  1.077413  0.750133
      ESP Fit Center  129 is at  -4.732069  0.372661  0.750133
      ESP Fit Center  130 is at  -4.732069 -0.372463  0.750133
      ESP Fit Center  131 is at  -4.490128 -1.077215  0.750133
      ESP Fit Center  132 is at  -4.032463 -1.665223  0.750133
      ESP Fit Center  133 is at  -3.408670 -2.072767  0.750133
      ESP Fit Center  134 is at  -3.029026  2.320428  0.014673
      ESP Fit Center  135 is at  -3.689426  2.061240  0.014673
      ESP Fit Center  136 is at  -4.244090  1.618910  0.014673
      ESP Fit Center  137 is at  -4.643732  1.032742  0.014673
      ESP Fit Center  138 is at  -4.852843  0.354820  0.014673
      ESP Fit Center  139 is at  -4.852843 -0.354621  0.014673
      ESP Fit Center  140 is at  -4.643732 -1.032544  0.014673
      ESP Fit Center  141 is at  -4.244090 -1.618712  0.014673
      ESP Fit Center  142 is at  -3.689426 -2.061041  0.014673
      ESP Fit Center  143 is at  -3.029026 -2.320229  0.014673
      ESP Fit Center  144 is at  -3.408670  2.072965 -0.720787
      ESP Fit Center  145 is at  -4.032463  1.665421 -0.720787
      ESP Fit Center  146 is at  -4.490128  1.077413 -0.720787
      ESP Fit Center  147 is at  -4.732069  0.372661 -0.720787
      ESP Fit Center  148 is at  -4.732069 -0.372463 -0.720787
      ESP Fit Center  149 is at  -4.490128 -1.077215 -0.720787
      ESP Fit Center  150 is at  -4.032463 -1.665223 -0.720787
      ESP Fit Center  151 is at  -3.408670 -2.072767 -0.720787
      ESP Fit Center  152 is at  -3.236268  1.778993 -1.384256
      ESP Fit Center  153 is at  -3.860932  1.361605 -1.384256
      ESP Fit Center  154 is at  -4.278320  0.736941 -1.384256
      ESP Fit Center  155 is at  -4.424887  0.000099 -1.384256
      ESP Fit Center  156 is at  -4.278320 -0.736743 -1.384256
      ESP Fit Center  157 is at  -3.860932 -1.361407 -1.384256
      ESP Fit Center  158 is at  -3.236268 -1.778794 -1.384256
      ESP Fit Center  159 is at  -1.287918  0.699564 -1.910787
      ESP Fit Center  160 is at  -1.799962  1.211607 -1.910787
      ESP Fit Center  161 is at  -2.499426  1.399028 -1.910787
      ESP Fit Center  162 is at  -3.198891  1.211607 -1.910787
      ESP Fit Center  163 is at  -3.710934  0.699564 -1.910787
      ESP Fit Center  164 is at  -3.898355  0.000099 -1.910787
      ESP Fit Center  165 is at  -3.710934 -0.699365 -1.910787
      ESP Fit Center  166 is at  -3.198891 -1.211409 -1.910787
      ESP Fit Center  167 is at  -2.499426 -1.398830 -1.910787
      ESP Fit Center  168 is at  -1.799962 -1.211409 -1.910787
      ESP Fit Center  169 is at  -1.287918 -0.699365 -1.910787
      ESP Fit Center  170 is at  -1.763966  0.000099 -2.248841
      ESP Fit Center  171 is at  -2.131696  0.637027 -2.248841
      ESP Fit Center  172 is at  -2.867156  0.637027 -2.248841
      ESP Fit Center  173 is at  -3.234887  0.000099 -2.248841
      ESP Fit Center  174 is at  -2.867156 -0.636828 -2.248841
      ESP Fit Center  175 is at  -2.131696 -0.636828 -2.248841
      ESP Fit Center  176 is at  -2.499426  0.000099 -2.365327
      ESP Fit Center  177 is at  -0.082702 -2.547688  1.967089
      ESP Fit Center  178 is at   0.548910 -2.547688  1.602427
      ESP Fit Center  179 is at  -0.991045 -4.356379  1.043734
      ESP Fit Center  180 is at  -2.047251 -4.198064  0.358395
      ESP Fit Center  181 is at  -1.366906 -4.536836  0.358395
      ESP Fit Center  182 is at  -2.047251 -4.198064 -0.370927
      ESP Fit Center  183 is at  -1.366906 -4.536836 -0.370927
      ESP Fit Center  184 is at  -0.991045 -4.356379 -1.056266
      ESP Fit Center  185 is at   0.548910 -2.547688 -1.614959
      ESP Fit Center  186 is at  -0.082702 -2.547688 -1.979620
      ESP Fit Center  187 is at   3.979994  1.721857  0.673569
      ESP Fit Center  188 is at   3.979994 -1.722497  0.673569
      ESP Fit Center  189 is at   5.380425 -0.000320 -0.076491
      ESP Fit Center  190 is at   5.248070  0.707714 -0.076491
      ESP Fit Center  191 is at   4.868882  1.320123 -0.076491
      ESP Fit Center  192 is at   4.294072  1.754200 -0.076491
      ESP Fit Center  193 is at   3.601271  1.951319 -0.076491
      ESP Fit Center  194 is at   3.601271 -1.951959 -0.076491
      ESP Fit Center  195 is at   4.294072 -1.754840 -0.076491
      ESP Fit Center  196 is at   4.868882 -1.320764 -0.076491
      ESP Fit Center  197 is at   5.248070 -0.708354 -0.076491
      ESP Fit Center  198 is at   5.231229 -0.000320 -0.826550
      ESP Fit Center  199 is at   5.074677  0.736200 -0.826550
      ESP Fit Center  200 is at   4.632089  1.345369 -0.826550
      ESP Fit Center  201 is at   3.979994  1.721857 -0.826550
      ESP Fit Center  202 is at   3.979994 -1.722497 -0.826550
      ESP Fit Center  203 is at   4.632089 -1.346010 -0.826550
      ESP Fit Center  204 is at   5.074677 -0.736840 -0.826550
      ESP Fit Center  205 is at   4.806354 -0.000320 -1.462420
      ESP Fit Center  206 is at   4.620675  0.692644 -1.462420
      ESP Fit Center  207 is at   4.113390  1.199930 -1.462420
      ESP Fit Center  208 is at   3.420425  1.385609 -1.462420
      ESP Fit Center  209 is at   3.420425 -1.386249 -1.462420
      ESP Fit Center  210 is at   4.113390 -1.200570 -1.462420
      ESP Fit Center  211 is at   4.620675 -0.693285 -1.462420
      ESP Fit Center  212 is at   4.170484 -0.000320 -1.887295
      ESP Fit Center  213 is at   3.795455  0.649250 -1.887295
      ESP Fit Center  214 is at   3.045395  0.649250 -1.887295
      ESP Fit Center  215 is at   3.045395 -0.649891 -1.887295
      ESP Fit Center  216 is at   3.795455 -0.649891 -1.887295
      ESP Fit Center  217 is at   3.420425 -0.000320 -2.036491
      ESP Fit Center  218 is at  -1.442878  2.646740  2.556498
      ESP Fit Center  219 is at  -0.713953  2.646740  2.390126
      ESP Fit Center  220 is at  -1.078416  3.278007  2.390126
      ESP Fit Center  221 is at  -1.807340  3.278007  2.390126
      ESP Fit Center  222 is at  -2.171803  2.646740  2.390126
      ESP Fit Center  223 is at  -1.807340  2.015473  2.390126
      ESP Fit Center  224 is at  -1.078416  2.015473  2.390126
      ESP Fit Center  225 is at  -0.380253  3.418782  1.923961
      ESP Fit Center  226 is at  -1.036991  3.895931  1.923961
      ESP Fit Center  227 is at  -1.848765  3.895931  1.923961
      ESP Fit Center  228 is at  -2.505503  3.418782  1.923961
      ESP Fit Center  229 is at  -2.756355  2.646740  1.923961
      ESP Fit Center  230 is at  -2.505503  1.874698  1.923961
      ESP Fit Center  231 is at  -1.848765  1.397549  1.923961
      ESP Fit Center  232 is at  -1.036991  1.397549  1.923961
      ESP Fit Center  233 is at  -1.245453  4.272677  1.250333
      ESP Fit Center  234 is at  -2.023678  4.178183  1.250333
      ESP Fit Center  235 is at  -2.668848  3.732855  1.250333
      ESP Fit Center  236 is at  -3.033163  3.038710  1.250333
      ESP Fit Center  237 is at  -3.033163  2.254770  1.250333
      ESP Fit Center  238 is at  -2.023678  4.178183  0.502663
      ESP Fit Center  239 is at  -2.668848  3.732855  0.502663
      ESP Fit Center  240 is at  -3.033163  3.038710  0.502663
      ESP Fit Center  241 is at   0.630999  3.385702  1.498501
      ESP Fit Center  242 is at   0.266536  4.016969  1.498501
      ESP Fit Center  243 is at  -0.462388  4.016969  1.498501
      ESP Fit Center  244 is at   1.215551  3.385702  1.032336
      ESP Fit Center  245 is at   0.964699  4.157744  1.032336
      ESP Fit Center  246 is at   0.307961  4.634893  1.032336
      ESP Fit Center  247 is at  -0.503813  4.634893  1.032336
      ESP Fit Center  248 is at   1.352344  4.146862  0.358708
      ESP Fit Center  249 is at   0.832495  4.733650  0.358708
      ESP Fit Center  250 is at   0.099499  5.011639  0.358708
      ESP Fit Center  251 is at  -0.678726  4.917145  0.358708
      ESP Fit Center  252 is at   1.352344  4.146862 -0.388962
      ESP Fit Center  253 is at   0.832495  4.733650 -0.388962
      ESP Fit Center  254 is at   0.099499  5.011639 -0.388962
      ESP Fit Center  255 is at  -0.678726  4.917145 -0.388962
      ESP Fit Center  256 is at   1.215551  3.385702 -1.062590
      ESP Fit Center  257 is at   0.964699  4.157744 -1.062590
      ESP Fit Center  258 is at   0.307961  4.634893 -1.062590
      ESP Fit Center  259 is at  -0.503813  4.634893 -1.062590
      ESP Fit Center  260 is at   0.630999  3.385702 -1.528755
      ESP Fit Center  261 is at   0.266536  4.016969 -1.528755
      ESP Fit Center  262 is at  -0.462388  4.016969 -1.528755
      ESP Fit Center  263 is at  -2.679090  3.723997 -0.508579
      ESP Fit Center  264 is at  -3.043405  3.029852 -0.508579
      ESP Fit Center  265 is at  -1.255695  4.263819 -1.256249
      ESP Fit Center  266 is at  -2.033920  4.169325 -1.256249
      ESP Fit Center  267 is at  -2.679090  3.723997 -1.256249
      ESP Fit Center  268 is at  -3.043405  3.029852 -1.256249
      ESP Fit Center  269 is at  -3.043405  2.245912 -1.256249
      ESP Fit Center  270 is at  -0.390495  3.409924 -1.929877
      ESP Fit Center  271 is at  -1.047233  3.887073 -1.929877
      ESP Fit Center  272 is at  -1.859007  3.887073 -1.929877
      ESP Fit Center  273 is at  -2.515745  3.409924 -1.929877
      ESP Fit Center  274 is at  -2.766597  2.637882 -1.929877
      ESP Fit Center  275 is at  -2.515745  1.865840 -1.929877
      ESP Fit Center  276 is at  -1.859007  1.388691 -1.929877
      ESP Fit Center  277 is at  -1.047233  1.388691 -1.929877
      ESP Fit Center  278 is at  -0.724195  2.637882 -2.396042
      ESP Fit Center  279 is at  -1.088658  3.269149 -2.396042
      ESP Fit Center  280 is at  -1.817582  3.269149 -2.396042
      ESP Fit Center  281 is at  -2.182045  2.637882 -2.396042
      ESP Fit Center  282 is at  -1.817582  2.006615 -2.396042
      ESP Fit Center  283 is at  -1.088658  2.006615 -2.396042
      ESP Fit Center  284 is at  -1.453120  2.637882 -2.562414
      ESP Fit Center  285 is at   2.628191  2.137722  1.484264
      ESP Fit Center  286 is at   2.263728  2.768989  1.484264
      ESP Fit Center  287 is at   1.534804  2.768989  1.484264
      ESP Fit Center  288 is at   3.212743  2.137722  1.018099
      ESP Fit Center  289 is at   2.961891  2.909764  1.018099
      ESP Fit Center  290 is at   2.305153  3.386913  1.018099
      ESP Fit Center  291 is at   1.493379  3.386913  1.018099
      ESP Fit Center  292 is at   3.537145  2.137722  0.344471
      ESP Fit Center  293 is at   3.349536  2.898882  0.344471
      ESP Fit Center  294 is at   2.829687  3.485670  0.344471
      ESP Fit Center  295 is at   2.096690  3.763659  0.344471
      ESP Fit Center  296 is at   3.537145  2.137722 -0.403199
      ESP Fit Center  297 is at   3.349536  2.898882 -0.403199
      ESP Fit Center  298 is at   2.829687  3.485670 -0.403199
      ESP Fit Center  299 is at   2.096690  3.763659 -0.403199
      ESP Fit Center  300 is at   3.212743  2.137722 -1.076827
      ESP Fit Center  301 is at   2.961891  2.909764 -1.076827
      ESP Fit Center  302 is at   2.305153  3.386913 -1.076827
      ESP Fit Center  303 is at   1.493379  3.386913 -1.076827
      ESP Fit Center  304 is at   2.628191  2.137722 -1.542992
      ESP Fit Center  305 is at   2.263728  2.768989 -1.542992
      ESP Fit Center  306 is at   1.534804  2.768989 -1.542992
      ESP Fit Center  307 is at   2.628034 -2.137909  1.484529
      ESP Fit Center  308 is at   1.534646 -2.769176  1.484529
      ESP Fit Center  309 is at   2.263571 -2.769176  1.484529
      ESP Fit Center  310 is at   3.212586 -2.137909  1.018364
      ESP Fit Center  311 is at   1.493222 -3.387100  1.018364
      ESP Fit Center  312 is at   2.304996 -3.387100  1.018364
      ESP Fit Center  313 is at   2.961734 -2.909951  1.018364
      ESP Fit Center  314 is at   3.536988 -2.137909  0.344736
      ESP Fit Center  315 is at   2.096533 -3.763846  0.344736
      ESP Fit Center  316 is at   2.829530 -3.485857  0.344736
      ESP Fit Center  317 is at   3.349379 -2.899069  0.344736
      ESP Fit Center  318 is at   3.536988 -2.137909 -0.402934
      ESP Fit Center  319 is at   2.096533 -3.763846 -0.402934
      ESP Fit Center  320 is at   2.829530 -3.485857 -0.402934
      ESP Fit Center  321 is at   3.349379 -2.899069 -0.402934
      ESP Fit Center  322 is at   3.212586 -2.137909 -1.076562
      ESP Fit Center  323 is at   1.493222 -3.387100 -1.076562
      ESP Fit Center  324 is at   2.304996 -3.387100 -1.076562
      ESP Fit Center  325 is at   2.961734 -2.909951 -1.076562
      ESP Fit Center  326 is at   2.628034 -2.137909 -1.542727
      ESP Fit Center  327 is at   1.534646 -2.769176 -1.542727
      ESP Fit Center  328 is at   2.263571 -2.769176 -1.542727
      ESP Fit Center  329 is at  -1.443529 -2.646407  2.556260
      ESP Fit Center  330 is at  -0.714605 -2.646407  2.389888
      ESP Fit Center  331 is at  -1.079067 -2.015140  2.389888
      ESP Fit Center  332 is at  -1.807992 -2.015140  2.389888
      ESP Fit Center  333 is at  -2.172454 -2.646407  2.389888
      ESP Fit Center  334 is at  -1.807992 -3.277674  2.389888
      ESP Fit Center  335 is at  -1.079067 -3.277674  2.389888
      ESP Fit Center  336 is at  -1.037643 -1.397216  1.923723
      ESP Fit Center  337 is at  -1.849416 -1.397216  1.923723
      ESP Fit Center  338 is at  -2.506154 -1.874365  1.923723
      ESP Fit Center  339 is at  -2.757006 -2.646407  1.923723
      ESP Fit Center  340 is at  -2.506154 -3.418449  1.923723
      ESP Fit Center  341 is at  -1.849416 -3.895598  1.923723
      ESP Fit Center  342 is at  -1.037643 -3.895598  1.923723
      ESP Fit Center  343 is at  -0.380904 -3.418449  1.923723
      ESP Fit Center  344 is at  -3.033814 -2.254437  1.250095
      ESP Fit Center  345 is at  -3.033814 -3.038377  1.250095
      ESP Fit Center  346 is at  -2.669499 -3.732522  1.250095
      ESP Fit Center  347 is at  -2.024329 -4.177850  1.250095
      ESP Fit Center  348 is at  -1.246105 -4.272344  1.250095
      ESP Fit Center  349 is at  -3.033814 -3.038377  0.502425
      ESP Fit Center  350 is at  -2.669499 -3.732522  0.502425
      ESP Fit Center  351 is at  -2.024329 -4.177850  0.502425
      ESP Fit Center  352 is at  -3.043246 -3.029970 -0.508824
      ESP Fit Center  353 is at  -2.678931 -3.724115 -0.508824
      ESP Fit Center  354 is at  -3.043246 -2.246030 -1.256494
      ESP Fit Center  355 is at  -3.043246 -3.029970 -1.256494
      ESP Fit Center  356 is at  -2.678931 -3.724115 -1.256494
      ESP Fit Center  357 is at  -2.033761 -4.169443 -1.256494
      ESP Fit Center  358 is at  -1.255537 -4.263937 -1.256494
      ESP Fit Center  359 is at  -1.047075 -1.388809 -1.930122
      ESP Fit Center  360 is at  -1.858848 -1.388809 -1.930122
      ESP Fit Center  361 is at  -2.515586 -1.865958 -1.930122
      ESP Fit Center  362 is at  -2.766438 -2.638000 -1.930122
      ESP Fit Center  363 is at  -2.515586 -3.410042 -1.930122
      ESP Fit Center  364 is at  -1.858848 -3.887191 -1.930122
      ESP Fit Center  365 is at  -1.047075 -3.887191 -1.930122
      ESP Fit Center  366 is at  -0.390336 -3.410042 -1.930122
      ESP Fit Center  367 is at  -0.724037 -2.638000 -2.396287
      ESP Fit Center  368 is at  -1.088499 -2.006733 -2.396287
      ESP Fit Center  369 is at  -1.817424 -2.006733 -2.396287
      ESP Fit Center  370 is at  -2.181886 -2.638000 -2.396287
      ESP Fit Center  371 is at  -1.817424 -3.269267 -2.396287
      ESP Fit Center  372 is at  -1.088499 -3.269267 -2.396287
      ESP Fit Center  373 is at  -1.452961 -2.638000 -2.562659
      ESP Fit Center  374 is at   0.630689 -3.385722  1.499061
      ESP Fit Center  375 is at  -0.462698 -4.016989  1.499061
      ESP Fit Center  376 is at   0.266227 -4.016989  1.499061
      ESP Fit Center  377 is at   1.215242 -3.385722  1.032896
      ESP Fit Center  378 is at  -0.504122 -4.634913  1.032896
      ESP Fit Center  379 is at   0.307651 -4.634913  1.032896
      ESP Fit Center  380 is at   0.964390 -4.157764  1.032896
      ESP Fit Center  381 is at  -0.679035 -4.917165  0.359268
      ESP Fit Center  382 is at   0.099189 -5.011659  0.359268
      ESP Fit Center  383 is at   0.832186 -4.733670  0.359268
      ESP Fit Center  384 is at   1.352034 -4.146882  0.359268
      ESP Fit Center  385 is at  -0.679035 -4.917165 -0.388402
      ESP Fit Center  386 is at   0.099189 -5.011659 -0.388402
      ESP Fit Center  387 is at   0.832186 -4.733670 -0.388402
      ESP Fit Center  388 is at   1.352034 -4.146882 -0.388402
      ESP Fit Center  389 is at   1.215242 -3.385722 -1.062030
      ESP Fit Center  390 is at  -0.504122 -4.634913 -1.062030
      ESP Fit Center  391 is at   0.307651 -4.634913 -1.062030
      ESP Fit Center  392 is at   0.964390 -4.157764 -1.062030
      ESP Fit Center  393 is at   0.630689 -3.385722 -1.528195
      ESP Fit Center  394 is at  -0.462698 -4.016989 -1.528195
      ESP Fit Center  395 is at   0.266227 -4.016989 -1.528195
      ESP Fit Center  396 is at   3.776335  0.002315  2.505476
      ESP Fit Center  397 is at   4.505260  0.002315  2.339104
      ESP Fit Center  398 is at   4.140797  0.633582  2.339104
      ESP Fit Center  399 is at   3.411873  0.633582  2.339104
      ESP Fit Center  400 is at   3.047410  0.002315  2.339104
      ESP Fit Center  401 is at   3.411873 -0.628952  2.339104
      ESP Fit Center  402 is at   4.140797 -0.628952  2.339104
      ESP Fit Center  403 is at   5.089812  0.002315  1.872939
      ESP Fit Center  404 is at   4.838960  0.774357  1.872939
      ESP Fit Center  405 is at   4.182222  1.251506  1.872939
      ESP Fit Center  406 is at   3.370448  1.251506  1.872939
      ESP Fit Center  407 is at   2.713710  0.774357  1.872939
      ESP Fit Center  408 is at   2.713710 -0.769728  1.872939
      ESP Fit Center  409 is at   3.370448 -1.246876  1.872939
      ESP Fit Center  410 is at   4.182222 -1.246876  1.872939
      ESP Fit Center  411 is at   4.838960 -0.769728  1.872939
      ESP Fit Center  412 is at   5.414214  0.002315  1.199311
      ESP Fit Center  413 is at   5.226605  0.763475  1.199311
      ESP Fit Center  414 is at   4.706756  1.350263  1.199311
      ESP Fit Center  415 is at   3.973759  1.628252  1.199311
      ESP Fit Center  416 is at   3.195535  1.533758  1.199311
      ESP Fit Center  417 is at   3.195535 -1.529129  1.199311
      ESP Fit Center  418 is at   3.973759 -1.623622  1.199311
      ESP Fit Center  419 is at   4.706756 -1.345633  1.199311
      ESP Fit Center  420 is at   5.226605 -0.758845  1.199311
      ESP Fit Center  421 is at   5.414214  0.002315  0.451641
      ESP Fit Center  422 is at   5.226605  0.763475  0.451641
      ESP Fit Center  423 is at   5.226605 -0.758845  0.451641
      ESP Fit Center  424 is at  -0.068854  2.547734  2.246109
      ESP Fit Center  425 is at   0.591360  2.547734  1.909713
      ESP Fit Center  426 is at   0.370374  3.300343  1.909713
      ESP Fit Center  427 is at  -0.222422  3.814004  1.909713
      ESP Fit Center  428 is at  -0.800708  4.463752  1.385763
      ESP Fit Center  429 is at  -1.705492  4.610435  0.725549
      ESP Fit Center  430 is at  -1.532562  4.800148 -0.006305
      ESP Fit Center  431 is at  -2.192776  4.463752 -0.006305
      ESP Fit Center  432 is at  -2.716726  3.939802 -0.006305
      ESP Fit Center  433 is at  -3.053122  3.279588 -0.006305
      ESP Fit Center  434 is at  -1.705492  4.610435 -0.738159
      ESP Fit Center  435 is at   0.591360  2.547734 -1.922323
      ESP Fit Center  436 is at   0.370374  3.300343 -1.922323
      ESP Fit Center  437 is at  -0.222422  3.814004 -1.922323
      ESP Fit Center  438 is at  -0.068854  2.547734 -2.258719
      ESP Fit Center  439 is at  -0.060820  1.233424  2.363380
      ESP Fit Center  440 is at   0.305107  1.867228  2.247466
      ESP Fit Center  441 is at  -0.792674  1.233424  2.247466
      ESP Fit Center  442 is at   0.305107  0.599620  2.247466
      ESP Fit Center  443 is at   0.305107  1.867228 -2.257362
      ESP Fit Center  444 is at  -0.792674  1.233424 -2.257362
      ESP Fit Center  445 is at   0.305107  0.599620 -2.257362
      ESP Fit Center  446 is at  -0.060820  1.233424 -2.373276
      ESP Fit Center  447 is at   1.338514  1.207612  2.354875
      ESP Fit Center  448 is at   2.070368  1.207612  2.238961
      ESP Fit Center  449 is at   1.704441  1.841416  2.238961
      ESP Fit Center  450 is at   0.972587  1.841416  2.238961
      ESP Fit Center  451 is at   0.972587  0.573808  2.238961
      ESP Fit Center  452 is at   2.730582  1.207612  1.902565
      ESP Fit Center  453 is at   2.509596  1.960221  1.902565
      ESP Fit Center  454 is at   1.916800  2.473882  1.902565
      ESP Fit Center  455 is at   1.140402  2.585511  1.902565
      ESP Fit Center  456 is at   2.730582  1.207612 -1.929471
      ESP Fit Center  457 is at   2.509596  1.960221 -1.929471
      ESP Fit Center  458 is at   1.916800  2.473882 -1.929471
      ESP Fit Center  459 is at   1.140402  2.585511 -1.929471
      ESP Fit Center  460 is at   2.070368  1.207612 -2.265867
      ESP Fit Center  461 is at   1.704441  1.841416 -2.265867
      ESP Fit Center  462 is at   0.972587  1.841416 -2.265867
      ESP Fit Center  463 is at   0.972587  0.573808 -2.265867
      ESP Fit Center  464 is at   1.338514  1.207612 -2.381781
      ESP Fit Center  465 is at   2.033183 -0.000119  2.354738
      ESP Fit Center  466 is at   2.399110  0.633685  2.238824
      ESP Fit Center  467 is at   1.301329 -0.000119  2.238824
      ESP Fit Center  468 is at   2.399110 -0.633923  2.238824
      ESP Fit Center  469 is at   2.765037 -0.000119 -2.266004
      ESP Fit Center  470 is at   2.399110  0.633685 -2.266004
      ESP Fit Center  471 is at   1.301329 -0.000119 -2.266004
      ESP Fit Center  472 is at   2.399110 -0.633923 -2.266004
      ESP Fit Center  473 is at   2.033183 -0.000119 -2.381918
      ESP Fit Center  474 is at   1.338407 -1.207773  2.354968
      ESP Fit Center  475 is at   2.070261 -1.207773  2.239054
      ESP Fit Center  476 is at   0.972480 -0.573969  2.239054
      ESP Fit Center  477 is at   0.972480 -1.841577  2.239054
      ESP Fit Center  478 is at   1.704334 -1.841577  2.239054
      ESP Fit Center  479 is at   2.730475 -1.207773  1.902658
      ESP Fit Center  480 is at   1.140295 -2.585672  1.902658
      ESP Fit Center  481 is at   1.916693 -2.474043  1.902658
      ESP Fit Center  482 is at   2.509489 -1.960382  1.902658
      ESP Fit Center  483 is at   2.730475 -1.207773 -1.929378
      ESP Fit Center  484 is at   1.140295 -2.585672 -1.929378
      ESP Fit Center  485 is at   1.916693 -2.474043 -1.929378
      ESP Fit Center  486 is at   2.509489 -1.960382 -1.929378
      ESP Fit Center  487 is at   2.070261 -1.207773 -2.265774
      ESP Fit Center  488 is at   0.972480 -0.573969 -2.265774
      ESP Fit Center  489 is at   0.972480 -1.841577 -2.265774
      ESP Fit Center  490 is at   1.704334 -1.841577 -2.265774
      ESP Fit Center  491 is at   1.338407 -1.207773 -2.381688
      ESP Fit Center  492 is at  -0.060935 -1.233448  2.363394
      ESP Fit Center  493 is at   0.304992 -0.599644  2.247480
      ESP Fit Center  494 is at  -0.792789 -1.233448  2.247480
      ESP Fit Center  495 is at   0.304992 -1.867252  2.247480
      ESP Fit Center  496 is at   0.304992 -0.599644 -2.257348
      ESP Fit Center  497 is at  -0.792789 -1.233448 -2.257348
      ESP Fit Center  498 is at   0.304992 -1.867252 -2.257348
      ESP Fit Center  499 is at  -0.060935 -1.233448 -2.373262
      ESP Fit Center  500 is at  -0.729899  0.000017  2.370764
      ESP Fit Center  501 is at   0.001955  0.000017  2.254850
      ESP Fit Center  502 is at  -1.095826  0.633821  2.254850
      ESP Fit Center  503 is at  -1.095826 -0.633787  2.254850
      ESP Fit Center  504 is at   0.662169  0.000017  1.918454
      ESP Fit Center  505 is at   0.001955  0.000017 -2.249978
      ESP Fit Center  506 is at  -1.095826  0.633821 -2.249978
      ESP Fit Center  507 is at  -1.095826 -0.633787 -2.249978
      ESP Fit Center  508 is at  -0.729899  0.000017 -2.365892
      ESP Fit Center  509 is at  -2.499426  0.000099  2.698778
      ESP Fit Center  510 is at  -1.743226  0.000099  2.590053
      ESP Fit Center  511 is at  -2.121326  0.654987  2.590053
      ESP Fit Center  512 is at  -2.877526  0.654987  2.590053
      ESP Fit Center  513 is at  -3.255626  0.000099  2.590053
      ESP Fit Center  514 is at  -2.877526 -0.654789  2.590053
      ESP Fit Center  515 is at  -2.121326 -0.654789  2.590053
      ESP Fit Center  516 is at  -1.242705  0.725668  2.272686
      ESP Fit Center  517 is at  -1.773858  1.256820  2.272686
      ESP Fit Center  518 is at  -2.499426  1.451236  2.272686
      ESP Fit Center  519 is at  -3.224995  1.256820  2.272686
      ESP Fit Center  520 is at  -3.756147  0.725668  2.272686
      ESP Fit Center  521 is at  -3.950563  0.000099  2.272686
      ESP Fit Center  522 is at  -3.756147 -0.725469  2.272686
      ESP Fit Center  523 is at  -3.224995 -1.256622  2.272686
      ESP Fit Center  524 is at  -2.499426 -1.451038  2.272686
      ESP Fit Center  525 is at  -1.773858 -1.256622  2.272686
      ESP Fit Center  526 is at  -1.242705 -0.725469  2.272686
      ESP Fit Center  527 is at  -3.054555  1.951173  1.772388
      ESP Fit Center  528 is at  -3.721877  1.618886  1.772388
      ESP Fit Center  529 is at  -4.224101  1.067973  1.772388
      ESP Fit Center  530 is at  -4.493398  0.372837  1.772388
      ESP Fit Center  531 is at  -4.493398 -0.372639  1.772388
      ESP Fit Center  532 is at  -4.224101 -1.067775  1.772388
      ESP Fit Center  533 is at  -3.721877 -1.618688  1.772388
      ESP Fit Center  534 is at  -3.054555 -1.950975  1.772388
      ESP Fit Center  535 is at  -3.934532  1.975353  1.129691
      ESP Fit Center  536 is at  -4.474680  1.435205  1.129691
      ESP Fit Center  537 is at  -4.821476  0.754579  1.129691
      ESP Fit Center  538 is at  -4.940974  0.000099  1.129691
      ESP Fit Center  539 is at  -4.821476 -0.754381  1.129691
      ESP Fit Center  540 is at  -4.474680 -1.435007  1.129691
      ESP Fit Center  541 is at  -3.934532 -1.975155  1.129691
      ESP Fit Center  542 is at  -3.603094  2.416796  0.396661
      ESP Fit Center  543 is at  -4.239250  2.007963  0.396661
      ESP Fit Center  544 is at  -4.734456  1.436465  0.396661
      ESP Fit Center  545 is at  -5.048593  0.748602  0.396661
      ESP Fit Center  546 is at  -5.156211  0.000099  0.396661
      ESP Fit Center  547 is at  -5.048593 -0.748404  0.396661
      ESP Fit Center  548 is at  -4.734456 -1.436267  0.396661
      ESP Fit Center  549 is at  -4.239250 -2.007765  0.396661
      ESP Fit Center  550 is at  -3.603094 -2.416597  0.396661
      ESP Fit Center  551 is at  -3.603094  2.416796 -0.367315
      ESP Fit Center  552 is at  -4.239250  2.007963 -0.367315
      ESP Fit Center  553 is at  -4.734456  1.436465 -0.367315
      ESP Fit Center  554 is at  -5.048593  0.748602 -0.367315
      ESP Fit Center  555 is at  -5.156211  0.000099 -0.367315
      ESP Fit Center  556 is at  -5.048593 -0.748404 -0.367315
      ESP Fit Center  557 is at  -4.734456 -1.436267 -0.367315
      ESP Fit Center  558 is at  -4.239250 -2.007765 -0.367315
      ESP Fit Center  559 is at  -3.603094 -2.416597 -0.367315
      ESP Fit Center  560 is at  -3.934532  1.975353 -1.100345
      ESP Fit Center  561 is at  -4.474680  1.435205 -1.100345
      ESP Fit Center  562 is at  -4.821476  0.754579 -1.100345
      ESP Fit Center  563 is at  -4.940974  0.000099 -1.100345
      ESP Fit Center  564 is at  -4.821476 -0.754381 -1.100345
      ESP Fit Center  565 is at  -4.474680 -1.435007 -1.100345
      ESP Fit Center  566 is at  -3.934532 -1.975155 -1.100345
      ESP Fit Center  567 is at  -3.054555  1.951173 -1.743042
      ESP Fit Center  568 is at  -3.721877  1.618886 -1.743042
      ESP Fit Center  569 is at  -4.224101  1.067973 -1.743042
      ESP Fit Center  570 is at  -4.493398  0.372837 -1.743042
      ESP Fit Center  571 is at  -4.493398 -0.372639 -1.743042
      ESP Fit Center  572 is at  -4.224101 -1.067775 -1.743042
      ESP Fit Center  573 is at  -3.721877 -1.618688 -1.743042
      ESP Fit Center  574 is at  -3.054555 -1.950975 -1.743042
      ESP Fit Center  575 is at  -1.242705  0.725668 -2.243340
      ESP Fit Center  576 is at  -1.773858  1.256820 -2.243340
      ESP Fit Center  577 is at  -2.499426  1.451236 -2.243340
      ESP Fit Center  578 is at  -3.224995  1.256820 -2.243340
      ESP Fit Center  579 is at  -3.756147  0.725668 -2.243340
      ESP Fit Center  580 is at  -3.950563  0.000099 -2.243340
      ESP Fit Center  581 is at  -3.756147 -0.725469 -2.243340
      ESP Fit Center  582 is at  -3.224995 -1.256622 -2.243340
      ESP Fit Center  583 is at  -2.499426 -1.451038 -2.243340
      ESP Fit Center  584 is at  -1.773858 -1.256622 -2.243340
      ESP Fit Center  585 is at  -1.242705 -0.725469 -2.243340
      ESP Fit Center  586 is at  -1.743226  0.000099 -2.560707
      ESP Fit Center  587 is at  -2.121326  0.654987 -2.560707
      ESP Fit Center  588 is at  -2.877526  0.654987 -2.560707
      ESP Fit Center  589 is at  -3.255626  0.000099 -2.560707
      ESP Fit Center  590 is at  -2.877526 -0.654789 -2.560707
      ESP Fit Center  591 is at  -2.121326 -0.654789 -2.560707
      ESP Fit Center  592 is at  -2.499426  0.000099 -2.669432
      ESP Fit Center  593 is at  -0.069091 -2.547688  2.246148
      ESP Fit Center  594 is at   0.591124 -2.547688  1.909752
      ESP Fit Center  595 is at  -0.222658 -3.813958  1.909752
      ESP Fit Center  596 is at   0.370138 -3.300297  1.909752
      ESP Fit Center  597 is at  -0.800944 -4.463706  1.385802
      ESP Fit Center  598 is at  -1.705729 -4.610389  0.725588
      ESP Fit Center  599 is at  -3.053358 -3.279542 -0.006266
      ESP Fit Center  600 is at  -2.716962 -3.939756 -0.006266
      ESP Fit Center  601 is at  -2.193013 -4.463706 -0.006266
      ESP Fit Center  602 is at  -1.532798 -4.800102 -0.006266
      ESP Fit Center  603 is at  -1.705729 -4.610389 -0.738120
      ESP Fit Center  604 is at   0.591124 -2.547688 -1.922284
      ESP Fit Center  605 is at  -0.222658 -3.813958 -1.922284
      ESP Fit Center  606 is at   0.370138 -3.300297 -1.922284
      ESP Fit Center  607 is at  -0.069091 -2.547688 -2.258680
      ESP Fit Center  608 is at   5.466002  0.744209  0.307348
      ESP Fit Center  609 is at   5.087995  1.398937  0.307348
      ESP Fit Center  610 is at   4.508854  1.884894  0.307348
      ESP Fit Center  611 is at   3.798432  2.143467  0.307348
      ESP Fit Center  612 is at   3.798432 -2.144107  0.307348
      ESP Fit Center  613 is at   4.508854 -1.885535  0.307348
      ESP Fit Center  614 is at   5.087995 -1.399578  0.307348
      ESP Fit Center  615 is at   5.466002 -0.744849  0.307348
      ESP Fit Center  616 is at   5.597283 -0.000320 -0.460330
      ESP Fit Center  617 is at   5.466002  0.744209 -0.460330
      ESP Fit Center  618 is at   5.087995  1.398937 -0.460330
      ESP Fit Center  619 is at   4.508854  1.884894 -0.460330
      ESP Fit Center  620 is at   3.798432  2.143467 -0.460330
      ESP Fit Center  621 is at   3.798432 -2.144107 -0.460330
      ESP Fit Center  622 is at   4.508854 -1.885535 -0.460330
      ESP Fit Center  623 is at   5.087995 -1.399578 -0.460330
      ESP Fit Center  624 is at   5.466002 -0.744849 -0.460330
      ESP Fit Center  625 is at   5.334722 -0.000320 -1.181711
      ESP Fit Center  626 is at   5.189005  0.732250 -1.181711
      ESP Fit Center  627 is at   4.774037  1.353292 -1.181711
      ESP Fit Center  628 is at   4.152995  1.768260 -1.181711
      ESP Fit Center  629 is at   3.420425  1.913977 -1.181711
      ESP Fit Center  630 is at   3.420425 -1.914617 -1.181711
      ESP Fit Center  631 is at   4.152995 -1.768900 -1.181711
      ESP Fit Center  632 is at   4.774037 -1.353932 -1.181711
      ESP Fit Center  633 is at   5.189005 -0.732890 -1.181711
      ESP Fit Center  634 is at   4.841268 -0.000320 -1.769786
      ESP Fit Center  635 is at   4.650911  0.710101 -1.769786
      ESP Fit Center  636 is at   4.130847  1.230166 -1.769786
      ESP Fit Center  637 is at   3.420425  1.420523 -1.769786
      ESP Fit Center  638 is at   3.420425 -1.421163 -1.769786
      ESP Fit Center  639 is at   4.130847 -1.230806 -1.769786
      ESP Fit Center  640 is at   4.650911 -0.710742 -1.769786
      ESP Fit Center  641 is at   4.176440 -0.000320 -2.153625
      ESP Fit Center  642 is at   3.798432  0.654408 -2.153625
      ESP Fit Center  643 is at   3.042417  0.654408 -2.153625
      ESP Fit Center  644 is at   3.042417 -0.655048 -2.153625
      ESP Fit Center  645 is at   3.798432 -0.655048 -2.153625
      ESP Fit Center  646 is at   3.420425 -0.000320 -2.286931
      ESP Fit Center  647 is at  -1.442878  2.646740  2.771161
      ESP Fit Center  648 is at  -0.717822  2.646740  2.626938
      ESP Fit Center  649 is at  -1.080350  3.274657  2.626938
      ESP Fit Center  650 is at  -1.805406  3.274657  2.626938
      ESP Fit Center  651 is at  -2.167934  2.646740  2.626938
      ESP Fit Center  652 is at  -1.805406  2.018823  2.626938
      ESP Fit Center  653 is at  -1.080350  2.018823  2.626938
      ESP Fit Center  654 is at  -0.315826  3.371052  2.216227
      ESP Fit Center  655 is at  -0.886335  3.865400  2.216227
      ESP Fit Center  656 is at  -1.633541  3.972832  2.216227
      ESP Fit Center  657 is at  -2.320214  3.659239  2.216227
      ESP Fit Center  658 is at  -2.728338  3.024185  2.216227
      ESP Fit Center  659 is at  -2.728338  2.269295  2.216227
      ESP Fit Center  660 is at  -2.320214  1.634241  2.216227
      ESP Fit Center  661 is at  -1.633541  1.320648  2.216227
      ESP Fit Center  662 is at  -0.886335  1.428080  2.216227
      ESP Fit Center  663 is at  -1.053368  4.353293  1.601554
      ESP Fit Center  664 is at  -1.832387  4.353293  1.601554
      ESP Fit Center  665 is at  -2.534259  4.015289  1.601554
      ESP Fit Center  666 is at  -3.019970  3.406227  1.601554
      ESP Fit Center  667 is at  -3.193318  2.646740  1.601554
      ESP Fit Center  668 is at  -2.167934  4.397180  0.876498
      ESP Fit Center  669 is at  -2.782607  3.986469  0.876498
      ESP Fit Center  670 is at  -3.193318  3.371796  0.876498
      ESP Fit Center  671 is at  -3.337540  2.646740  0.876498
      ESP Fit Center  672 is at  -3.019970  3.406227  0.151442
      ESP Fit Center  673 is at  -3.193318  2.646740  0.151442
      ESP Fit Center  674 is at   0.627130  3.385702  1.735313
      ESP Fit Center  675 is at   0.264602  4.013619  1.735313
      ESP Fit Center  676 is at   1.241803  3.385702  1.324602
      ESP Fit Center  677 is at   1.029126  4.110014  1.324602
      ESP Fit Center  678 is at   0.458617  4.604362  1.324602
      ESP Fit Center  679 is at  -0.288589  4.711794  1.324602
      ESP Fit Center  680 is at   1.479166  4.145189  0.709929
      ESP Fit Center  681 is at   0.993456  4.754251  0.709929
      ESP Fit Center  682 is at   0.291584  5.092255  0.709929
      ESP Fit Center  683 is at  -0.487435  5.092255  0.709929
      ESP Fit Center  684 is at   1.652514  4.110758 -0.015127
      ESP Fit Center  685 is at   1.241803  4.725431 -0.015127
      ESP Fit Center  686 is at   0.627130  5.136142 -0.015127
      ESP Fit Center  687 is at  -0.097926  5.280365 -0.015127
      ESP Fit Center  688 is at  -0.822982  5.136142 -0.015127
      ESP Fit Center  689 is at   1.479166  4.145189 -0.740183
      ESP Fit Center  690 is at   0.993456  4.754251 -0.740183
      ESP Fit Center  691 is at   0.291584  5.092255 -0.740183
      ESP Fit Center  692 is at  -0.487435  5.092255 -0.740183
      ESP Fit Center  693 is at   1.241803  3.385702 -1.354856
      ESP Fit Center  694 is at   1.029126  4.110014 -1.354856
      ESP Fit Center  695 is at   0.458617  4.604362 -1.354856
      ESP Fit Center  696 is at  -0.288589  4.711794 -1.354856
      ESP Fit Center  697 is at   0.627130  3.385702 -1.765567
      ESP Fit Center  698 is at   0.264602  4.013619 -1.765567
      ESP Fit Center  699 is at  -3.030212  3.397369 -0.157358
      ESP Fit Center  700 is at  -3.203560  2.637882 -0.157358
      ESP Fit Center  701 is at  -2.178176  4.388322 -0.882414
      ESP Fit Center  702 is at  -2.792849  3.977611 -0.882414
      ESP Fit Center  703 is at  -3.203560  3.362938 -0.882414
      ESP Fit Center  704 is at  -3.347782  2.637882 -0.882414
      ESP Fit Center  705 is at  -1.063610  4.344435 -1.607470
      ESP Fit Center  706 is at  -1.842629  4.344435 -1.607470
      ESP Fit Center  707 is at  -2.544501  4.006431 -1.607470
      ESP Fit Center  708 is at  -3.030212  3.397369 -1.607470
      ESP Fit Center  709 is at  -3.203560  2.637882 -1.607470
      ESP Fit Center  710 is at  -0.326068  3.362194 -2.222143
      ESP Fit Center  711 is at  -0.896577  3.856542 -2.222143
      ESP Fit Center  712 is at  -1.643783  3.963974 -2.222143
      ESP Fit Center  713 is at  -2.330456  3.650381 -2.222143
      ESP Fit Center  714 is at  -2.738580  3.015327 -2.222143
      ESP Fit Center  715 is at  -2.738580  2.260437 -2.222143
      ESP Fit Center  716 is at  -2.330456  1.625383 -2.222143
      ESP Fit Center  717 is at  -1.643783  1.311790 -2.222143
      ESP Fit Center  718 is at  -0.896577  1.419222 -2.222143
      ESP Fit Center  719 is at  -0.728064  2.637882 -2.632854
      ESP Fit Center  720 is at  -1.090592  3.265799 -2.632854
      ESP Fit Center  721 is at  -1.815648  3.265799 -2.632854
      ESP Fit Center  722 is at  -2.178176  2.637882 -2.632854
      ESP Fit Center  723 is at  -1.815648  2.009965 -2.632854
      ESP Fit Center  724 is at  -1.090592  2.009965 -2.632854
      ESP Fit Center  725 is at  -1.453120  2.637882 -2.777076
      ESP Fit Center  726 is at   2.261794  2.765639  1.721076
      ESP Fit Center  727 is at   3.238995  2.137722  1.310365
      ESP Fit Center  728 is at   3.026318  2.862034  1.310365
      ESP Fit Center  729 is at   2.455809  3.356382  1.310365
      ESP Fit Center  730 is at   1.708603  3.463814  1.310365
      ESP Fit Center  731 is at   3.649706  2.137722  0.695692
      ESP Fit Center  732 is at   3.476358  2.897209  0.695692
      ESP Fit Center  733 is at   2.990647  3.506271  0.695692
      ESP Fit Center  734 is at   2.288776  3.844275  0.695692
      ESP Fit Center  735 is at   3.649706  2.862778 -0.029364
      ESP Fit Center  736 is at   3.238995  3.477451 -0.029364
      ESP Fit Center  737 is at   2.624322  3.888162 -0.029364
      ESP Fit Center  738 is at   1.899266  4.032384 -0.029364
      ESP Fit Center  739 is at   3.649706  2.137722 -0.754420
      ESP Fit Center  740 is at   3.476358  2.897209 -0.754420
      ESP Fit Center  741 is at   2.990647  3.506271 -0.754420
      ESP Fit Center  742 is at   2.288776  3.844275 -0.754420
      ESP Fit Center  743 is at   3.238995  2.137722 -1.369093
[...]
 1840 Fit       0.001585
 1841 Fit      -0.002983
 1842 Fit      -0.000218
 1843 Fit       0.001394
 1844 Fit       0.002310
 1845 Fit       0.002897
 1846 Fit      -0.003254
 1847 Fit      -0.000308
 1848 Fit       0.001363
 1849 Fit       0.002162
 1850 Fit       0.002420
 1851 Fit      -0.003560
 1852 Fit      -0.000506
 1853 Fit       0.001206
 1854 Fit       0.001698
 1855 Fit       0.001265
 1856 Fit      -0.000134
 1857 Fit      -0.001887
 1858 Fit      -0.003649
 1859 Fit      -0.003380
 1860 Fit      -0.001177
 1861 Fit       0.000465
 1862 Fit       0.000112
 1863 Fit      -0.001211
 1864 Fit       0.005371
 1865 Fit       0.006689
 1866 Fit       0.007821
 1867 Fit       0.005025
 1868 Fit       0.006252
 1869 Fit       0.007617
 1870 Fit       0.009061
 1871 Fit       0.010790
 1872 Fit       0.004948
 1873 Fit       0.006196
 1874 Fit       0.007520
 1875 Fit       0.008901
 1876 Fit       0.010643
 1877 Fit       0.005161
 1878 Fit       0.006417
 1879 Fit       0.007679
 1880 Fit       0.008993
 1881 Fit       0.010781
 1882 Fit       0.004439
 1883 Fit       0.005594
 1884 Fit       0.006763
 1885 Fit       0.007883
 1886 Fit       0.009188
 1887 Fit       0.003952
 1888 Fit       0.004961
 1889 Fit       0.005933
 1890 Fit       0.006698
 1891 Fit       0.007308
 1892 Fit       0.003494
 1893 Fit       0.004191
 1894 Fit       0.004171
 1895 Fit       0.024800
 1896 Fit       0.025584
 1897 Fit       0.024962
 1898 Fit       0.023196
 1899 Fit       0.021840
 1900 Fit       0.023166
 1901 Fit       0.024933
 1902 Fit       0.024516
 1903 Fit       0.024218
 1904 Fit       0.023388
 1905 Fit       0.021904
 1906 Fit       0.019105
 1907 Fit       0.019052
 1908 Fit       0.021834
 1909 Fit       0.023326
 1910 Fit       0.024183
 1911 Fit       0.021638
 1912 Fit       0.021423
 1913 Fit       0.020850
 1914 Fit       0.020170
 1915 Fit       0.019389
 1916 Fit       0.019279
 1917 Fit       0.020072
 1918 Fit       0.020778
 1919 Fit       0.021386
 1920 Fit       0.016810
 1921 Fit       0.016566
 1922 Fit       0.015907
 1923 Fit       0.015184
 1924 Fit       0.014926
 1925 Fit       0.014777
 1926 Fit       0.015062
 1927 Fit       0.015823
 1928 Fit       0.016523
 1929 Fit       0.009685
 1930 Fit       0.009333
 1931 Fit       0.008367
 1932 Fit       0.008263
 1933 Fit       0.009282
 1934 Fit       0.001515
 1935 Fit       0.001844
 1936 Fit       0.003439
 1937 Fit       0.003740
 1938 Fit       0.004911
 1939 Fit       0.005217
 1940 Fit       0.004729
 1941 Fit       0.004141
 1942 Fit       0.004559
 1943 Fit       0.003810
 1944 Fit       0.003866
 1945 Fit       0.003101
 1946 Fit       0.003368
 1947 Fit       0.002470
 1948 Fit       0.001574
 1949 Fit       0.003523
 1950 Fit       0.002514
 1951 Fit       0.001601
 1952 Fit       0.000471
 1953 Fit      -0.001233
 1954 Fit       0.002966
 1955 Fit       0.002118
 1956 Fit       0.001264
 1957 Fit       0.002985
 1958 Fit       0.002339
 1959 Fit       0.002916
 1960 Fit       0.002460
 1961 Fit      -0.001151
 1962 Fit       0.001022
 1963 Fit       0.001738
 1964 Fit       0.001870
 1965 Fit      -0.004838
 1966 Fit      -0.001613
 1967 Fit       0.000107
 1968 Fit      -0.003603
 1969 Fit      -0.002696
 1970 Fit      -0.001744
 1971 Fit      -0.000554
 1972 Fit      -0.000817
 1973 Fit      -0.003381
 1974 Fit      -0.003924
 1975 Fit       0.001484
 1976 Fit      -0.005605
 1977 Fit      -0.007683
 1978 Fit      -0.005885
 1979 Fit      -0.007994
 1980 Fit      -0.010945
 1981 Fit      -0.012497
 1982 Fit      -0.009367
 1983 Fit       0.001649
 1984 Fit       0.006900
 1985 Fit       0.004041
 1986 Fit       0.000806
 1987 Fit      -0.001242
 1988 Fit       0.014584
 1989 Fit       0.009621
 1990 Fit       0.006009
 1991 Fit       0.003588
 1992 Fit       0.015243
 1993 Fit       0.009928
 1994 Fit       0.007387
 1995 Fit       0.005735
 1996 Fit       0.007999
 1997 Fit      -0.012978
 1998 Fit      -0.007347
 1999 Fit      -0.003705
 2000 Fit      -0.001948
 2001 Fit      -0.015218
 2002 Fit      -0.011034
 2003 Fit      -0.007453
 2004 Fit      -0.005725
 2005 Fit      -0.005792
 2006 Fit      -0.015390
 2007 Fit      -0.013195
 2008 Fit      -0.010059
 2009 Fit      -0.009217
 2010 Fit      -0.011392
 2011 Fit      -0.013829
 2012 Fit      -0.012130
 2013 Fit       0.008104
 2014 Fit       0.011892
 2015 Fit       0.001021
 2016 Fit       0.011857
 2017 Fit       0.014751
 2018 Fit       0.014670
 2019 Fit      -0.015302
 2020 Fit      -0.015402
 2021 Fit      -0.015309
 2022 Fit      -0.016534
 2023 Fit      -0.015332
 2024 Fit      -0.014831
 2025 Fit      -0.015335
 2026 Fit      -0.015034
 2027 Fit       0.001623
 2028 Fit       0.006856
 2029 Fit      -0.001254
 2030 Fit       0.000780
 2031 Fit       0.004001
 2032 Fit       0.014502
 2033 Fit       0.003554
 2034 Fit       0.005957
 2035 Fit       0.009547
 2036 Fit       0.005698
 2037 Fit       0.007331
 2038 Fit       0.009842
 2039 Fit       0.015115
 2040 Fit       0.007965
 2041 Fit      -0.001964
 2042 Fit      -0.003725
 2043 Fit      -0.007369
 2044 Fit      -0.012999
 2045 Fit      -0.015226
 2046 Fit      -0.015391
 2047 Fit      -0.005799
 2048 Fit      -0.005736
 2049 Fit      -0.007467
 2050 Fit      -0.011047
 2051 Fit      -0.013200
 2052 Fit      -0.013831
 2053 Fit      -0.011394
 2054 Fit      -0.009223
 2055 Fit      -0.010067
 2056 Fit      -0.012134
 2057 Fit      -0.002706
 2058 Fit      -0.001761
 2059 Fit      -0.003932
 2060 Fit      -0.003389
 2061 Fit      -0.000829
 2062 Fit      -0.000572
 2063 Fit       0.001460
 2064 Fit      -0.005613
 2065 Fit      -0.012498
 2066 Fit      -0.010946
 2067 Fit      -0.007996
 2068 Fit      -0.005888
 2069 Fit      -0.007687
 2070 Fit      -0.009370
 2071 Fit      -0.005762
 2072 Fit      -0.005125
 2073 Fit      -0.005050
 2074 Fit      -0.005055
 2075 Fit      -0.004604
 2076 Fit      -0.012584
 2077 Fit      -0.010911
 2078 Fit      -0.006570
 2079 Fit      -0.005820
 2080 Fit      -0.005799
 2081 Fit      -0.006649
 2082 Fit      -0.007241
 2083 Fit      -0.006650
 2084 Fit      -0.005800
 2085 Fit      -0.005602
 2086 Fit      -0.004943
 2087 Fit      -0.004086
 2088 Fit      -0.004699
 2089 Fit      -0.006217
 2090 Fit      -0.007227
 2091 Fit      -0.007516
 2092 Fit      -0.007228
 2093 Fit      -0.006218
 2094 Fit      -0.004702
 2095 Fit      -0.004090
 2096 Fit      -0.004946
 2097 Fit      -0.003264
 2098 Fit      -0.005483
 2099 Fit      -0.006727
 2100 Fit      -0.007211
 2101 Fit      -0.007319
 2102 Fit      -0.007212
 2103 Fit      -0.006728
 2104 Fit      -0.005484
 2105 Fit      -0.003266
 2106 Fit      -0.005349
 2107 Fit      -0.006386
 2108 Fit      -0.006711
 2109 Fit      -0.006758
 2110 Fit      -0.006759
 2111 Fit      -0.006712
 2112 Fit      -0.006387
 2113 Fit      -0.005350
 2114 Fit      -0.004949
 2115 Fit      -0.005939
 2116 Fit      -0.006165
 2117 Fit      -0.006103
 2118 Fit      -0.006049
 2119 Fit      -0.006104
 2120 Fit      -0.006166
 2121 Fit      -0.005941
 2122 Fit      -0.004950
 2123 Fit      -0.004859
 2124 Fit      -0.005665
 2125 Fit      -0.005784
 2126 Fit      -0.005619
 2127 Fit      -0.005460
 2128 Fit      -0.005460
 2129 Fit      -0.005620
 2130 Fit      -0.005785
 2131 Fit      -0.005666
 2132 Fit      -0.004861
 2133 Fit      -0.004572
 2134 Fit      -0.005491
 2135 Fit      -0.005679
 2136 Fit      -0.005491
 2137 Fit      -0.005238
 2138 Fit      -0.005130
 2139 Fit      -0.005239
 2140 Fit      -0.005492
 2141 Fit      -0.005681
 2142 Fit      -0.005493
 2143 Fit      -0.004574
 2144 Fit      -0.004706
 2145 Fit      -0.005618
 2146 Fit      -0.005802
 2147 Fit      -0.005612
 2148 Fit      -0.005358
 2149 Fit      -0.005249
 2150 Fit      -0.005358
 2151 Fit      -0.005613
 2152 Fit      -0.005804
 2153 Fit      -0.005621
 2154 Fit      -0.004709
 2155 Fit      -0.005253
 2156 Fit      -0.006043
 2157 Fit      -0.006151
 2158 Fit      -0.005979
 2159 Fit      -0.005817
 2160 Fit      -0.005818
 2161 Fit      -0.005981
 2162 Fit      -0.006153
 2163 Fit      -0.006045
 2164 Fit      -0.005257
 2165 Fit      -0.005614
 2166 Fit      -0.006575
 2167 Fit      -0.006780
 2168 Fit      -0.006707
 2169 Fit      -0.006649
 2170 Fit      -0.006707
 2171 Fit      -0.006781
 2172 Fit      -0.006577
 2173 Fit      -0.005617
 2174 Fit      -0.006312
 2175 Fit      -0.007294
 2176 Fit      -0.007585
 2177 Fit      -0.007616
 2178 Fit      -0.007616
 2179 Fit      -0.007586
 2180 Fit      -0.007296
 2181 Fit      -0.006315
 2182 Fit      -0.006829
 2183 Fit      -0.007952
 2184 Fit      -0.008372
 2185 Fit      -0.008460
 2186 Fit      -0.008373
 2187 Fit      -0.007953
 2188 Fit      -0.006831
 2189 Fit      -0.010172
 2190 Fit      -0.008982
 2191 Fit      -0.007081
 2192 Fit      -0.006879
 2193 Fit      -0.007961
 2194 Fit      -0.008770
 2195 Fit      -0.009000
 2196 Fit      -0.008771
 2197 Fit      -0.007963
 2198 Fit      -0.006881
 2199 Fit      -0.007083
 2200 Fit      -0.008983
 2201 Fit      -0.009204
 2202 Fit      -0.008643
 2203 Fit      -0.008802
 2204 Fit      -0.009171
 2205 Fit      -0.008803
 2206 Fit      -0.008644
 2207 Fit      -0.009106
 2208 Fit       0.001498
 2209 Fit       0.001820
 2210 Fit       0.003723
 2211 Fit       0.003417
 2212 Fit       0.004127
 2213 Fit       0.004713
 2214 Fit       0.005195
 2215 Fit       0.004882
 2216 Fit       0.003799
 2217 Fit       0.004547
 2218 Fit       0.003093
 2219 Fit       0.003857
 2220 Fit       0.001568
 2221 Fit       0.002463
 2222 Fit       0.003359
 2223 Fit      -0.001237
 2224 Fit       0.000466
 2225 Fit       0.001595
 2226 Fit       0.002507
 2227 Fit       0.003515
 2228 Fit       0.001259
 2229 Fit       0.002112
 2230 Fit       0.002958
 2231 Fit       0.002332
 2232 Fit       0.002977
 2233 Fit       0.002453
 2234 Fit       0.002907
 2235 Fit       0.001862
 2236 Fit       0.001728
 2237 Fit       0.001009
 2238 Fit      -0.001166
 2239 Fit      -0.004847
 2240 Fit       0.000099
 2241 Fit      -0.001622
 2242 Fit      -0.003608
 2243 Fit       0.007200
 2244 Fit       0.007036
 2245 Fit       0.001854
 2246 Fit       0.001591
 2247 Fit       0.000917
 2248 Fit       0.000301
 2249 Fit       0.000470
 2250 Fit       0.000338
 2251 Fit       0.000183
 2252 Fit       0.000827
 2253 Fit       0.001543
 2254 Fit      -0.005361
 2255 Fit      -0.005522
 2256 Fit      -0.005898
 2257 Fit      -0.006066
 2258 Fit      -0.005362
 2259 Fit      -0.002809
 2260 Fit      -0.002908
 2261 Fit      -0.005461
 2262 Fit      -0.006155
 2263 Fit      -0.005965
 2264 Fit      -0.005559
 2265 Fit      -0.011129
 2266 Fit      -0.011200
 2267 Fit      -0.011303
 2268 Fit      -0.011060
 2269 Fit      -0.009902
 2270 Fit      -0.007122
 2271 Fit      -0.007192
 2272 Fit      -0.009972
 2273 Fit      -0.011124
 2274 Fit      -0.011352
 2275 Fit      -0.011226
 2276 Fit      -0.015352
 2277 Fit      -0.015329
 2278 Fit      -0.015133
 2279 Fit      -0.014383
 2280 Fit      -0.012643
 2281 Fit      -0.012689
 2282 Fit      -0.014427
 2283 Fit      -0.015168
 2284 Fit      -0.015348
 2285 Fit      -0.018007
 2286 Fit      -0.017863
 2287 Fit      -0.017296
 2288 Fit      -0.016034
 2289 Fit      -0.014238
 2290 Fit      -0.014262
 2291 Fit      -0.016060
 2292 Fit      -0.017319
 2293 Fit      -0.017876
 2294 Fit      -0.019178
 2295 Fit      -0.018856
 2296 Fit      -0.017855
 2297 Fit      -0.016575
 2298 Fit      -0.016586
 2299 Fit      -0.017867
 2300 Fit      -0.018865
 2301 Fit      -0.019116
 2302 Fit      -0.018467
 2303 Fit      -0.017622
 2304 Fit      -0.017624
 2305 Fit      -0.018472
 2306 Fit      -0.018327
 2307 Fit       0.001190
 2308 Fit       0.001599
 2309 Fit       0.002531
 2310 Fit       0.002068
 2311 Fit       0.000437
 2312 Fit      -0.000989
 2313 Fit      -0.000238
 2314 Fit       0.003168
 2315 Fit       0.003401
 2316 Fit       0.003048
 2317 Fit       0.002154
 2318 Fit       0.000465
 2319 Fit      -0.002068
 2320 Fit       0.003553
 2321 Fit       0.002920
 2322 Fit       0.001936
 2323 Fit       0.000319
 2324 Fit      -0.002240
 2325 Fit       0.003043
 2326 Fit       0.002189
 2327 Fit       0.000945
 2328 Fit      -0.000974
 2329 Fit       0.002217
 2330 Fit       0.000994
 2331 Fit      -0.000822
 2332 Fit      -0.001535
 2333 Fit       0.006838
 2334 Fit       0.005923
 2335 Fit       0.009240
 2336 Fit       0.007881
 2337 Fit       0.006655
 2338 Fit       0.005527
 2339 Fit       0.009524
 2340 Fit       0.008005
 2341 Fit       0.006823
 2342 Fit       0.005744
 2343 Fit       0.004744
 2344 Fit       0.009996
 2345 Fit       0.008273
 2346 Fit       0.007068
 2347 Fit       0.005988
 2348 Fit       0.004941
 2349 Fit       0.009191
 2350 Fit       0.007721
 2351 Fit       0.006665
 2352 Fit       0.005674
 2353 Fit       0.004682
 2354 Fit       0.007328
 2355 Fit       0.006468
 2356 Fit       0.005680
 2357 Fit       0.004839
 2358 Fit       0.003982
 2359 Fit       0.005067
 2360 Fit       0.005065
 2361 Fit       0.004645
 2362 Fit       0.003979
 2363 Fit       0.002790
 2364 Fit       0.003132
 2365 Fit      -0.001758
 2366 Fit       0.001619
 2367 Fit       0.000463
 2368 Fit      -0.001312
 2369 Fit       0.001979
 2370 Fit       0.001266
 2371 Fit       0.000110
 2372 Fit      -0.001761
 2373 Fit       0.001786
 2374 Fit       0.001474
 2375 Fit       0.000674
 2376 Fit      -0.000853
 2377 Fit      -0.003396
 2378 Fit       0.000626
 2379 Fit       0.000942
 2380 Fit       0.000397
 2381 Fit      -0.001172
 2382 Fit      -0.003787
 2383 Fit      -0.002375
 2384 Fit      -0.000564
 2385 Fit      -0.000329
 2386 Fit      -0.001837
 2387 Fit      -0.003769
 2388 Fit      -0.004010
 2389 Fit      -0.001854
 2390 Fit       0.010405
 2391 Fit       0.008715
 2392 Fit       0.010961
 2393 Fit       0.009572
 2394 Fit       0.009344
 2395 Fit       0.009427
 2396 Fit       0.008329
 2397 Fit       0.008351
 2398 Fit       0.008917
 2399 Fit       0.009646
 2400 Fit       0.003263
 2401 Fit       0.005836
 2402 Fit       0.007589
 2403 Fit       0.008992
 2404 Fit       0.010588
 2405 Fit      -0.001739
 2406 Fit       0.003057
 2407 Fit       0.005829
 2408 Fit       0.007758
 2409 Fit       0.009645
 2410 Fit      -0.004905
 2411 Fit       0.000724
 2412 Fit       0.003971
 2413 Fit       0.006113
 2414 Fit      -0.005328
 2415 Fit      -0.000090
 2416 Fit       0.002886
 2417 Fit       0.004621
 2418 Fit      -0.004813
 2419 Fit      -0.000729
 2420 Fit       0.008656
 2421 Fit       0.010313
 2422 Fit       0.009390
 2423 Fit       0.009291
 2424 Fit       0.009495
 2425 Fit       0.010840
 2426 Fit       0.009602
 2427 Fit       0.008857
 2428 Fit       0.008264
 2429 Fit       0.008193
 2430 Fit       0.010556
 2431 Fit       0.008950
 2432 Fit       0.007532
 2433 Fit       0.005755
 2434 Fit       0.003138
 2435 Fit       0.009615
 2436 Fit       0.007720
 2437 Fit       0.005779
 2438 Fit       0.002989
 2439 Fit      -0.001837
 2440 Fit       0.006081
 2441 Fit       0.003931
 2442 Fit       0.000671
 2443 Fit      -0.004975
 2444 Fit       0.004597
 2445 Fit       0.002857
 2446 Fit      -0.000127
 2447 Fit      -0.005374
 2448 Fit      -0.000754
 2449 Fit      -0.004843
 2450 Fit       0.001180
 2451 Fit       0.001586
 2452 Fit      -0.000248
 2453 Fit      -0.000997
 2454 Fit       0.000429
 2455 Fit       0.002058
 2456 Fit       0.002519
 2457 Fit      -0.002074
 2458 Fit       0.000458
 2459 Fit       0.002146
 2460 Fit       0.003038
 2461 Fit       0.003388
 2462 Fit       0.003151
 2463 Fit      -0.002244
 2464 Fit       0.000313
 2465 Fit       0.001929
 2466 Fit       0.002912
 2467 Fit       0.003542
 2468 Fit      -0.000978
 2469 Fit       0.000939
 2470 Fit       0.002182
 2471 Fit       0.003034
 2472 Fit      -0.000827
 2473 Fit       0.000988
 2474 Fit       0.002209
 2475 Fit      -0.001540
 2476 Fit      -0.001761
 2477 Fit      -0.001316
 2478 Fit       0.000459
 2479 Fit       0.001614
 2480 Fit      -0.001764
 2481 Fit       0.000106
 2482 Fit       0.001262
 2483 Fit       0.001973
 2484 Fit      -0.003397
 2485 Fit      -0.000856
 2486 Fit       0.000670
 2487 Fit       0.001469
 2488 Fit       0.001780
 2489 Fit      -0.003788
 2490 Fit      -0.001175
 2491 Fit       0.000394
 2492 Fit       0.000937
 2493 Fit       0.000620
 2494 Fit      -0.002379
 2495 Fit      -0.004012
 2496 Fit      -0.003770
 2497 Fit      -0.001839
 2498 Fit      -0.000333
 2499 Fit      -0.000568
 2500 Fit      -0.001857
 2501 Fit       0.005904
 2502 Fit       0.006812
 2503 Fit       0.005513
 2504 Fit       0.006637
 2505 Fit       0.007856
 2506 Fit       0.009206
 2507 Fit       0.004733
 2508 Fit       0.005731
 2509 Fit       0.006807
 2510 Fit       0.007984
 2511 Fit       0.009496
 2512 Fit       0.004931
 2513 Fit       0.005975
 2514 Fit       0.007052
 2515 Fit       0.008251
 2516 Fit       0.009967
 2517 Fit       0.004672
 2518 Fit       0.005662
 2519 Fit       0.006649
 2520 Fit       0.007701
 2521 Fit       0.009165
 2522 Fit       0.003972
 2523 Fit       0.004827
 2524 Fit       0.005666
 2525 Fit       0.006451
 2526 Fit       0.007307
 2527 Fit       0.003968
 2528 Fit       0.004631
 2529 Fit       0.005048
 2530 Fit       0.005047
 2531 Fit       0.003120
 2532 Fit       0.002775
 2533 Fit       0.021031
 2534 Fit       0.021814
 2535 Fit       0.021284
 2536 Fit       0.019740
 2537 Fit       0.018560
 2538 Fit       0.019716
 2539 Fit       0.021260
 2540 Fit       0.021178
 2541 Fit       0.020949
 2542 Fit       0.020268
 2543 Fit       0.018951
 2544 Fit       0.016523
 2545 Fit       0.016479
 2546 Fit       0.018896
 2547 Fit       0.020218
 2548 Fit       0.020920
 2549 Fit       0.019196
 2550 Fit       0.019049
 2551 Fit       0.018646
 2552 Fit       0.018126
 2553 Fit       0.017375
 2554 Fit       0.017289
 2555 Fit       0.018049
 2556 Fit       0.018589
 2557 Fit       0.019018
 2558 Fit       0.015819
 2559 Fit       0.015679
 2560 Fit       0.015296
 2561 Fit       0.014871
 2562 Fit       0.014671
 2563 Fit       0.014737
 2564 Fit       0.014617
 2565 Fit       0.014560
 2566 Fit       0.014780
 2567 Fit       0.015233
 2568 Fit       0.015646
 2569 Fit       0.010884
 2570 Fit       0.010690
 2571 Fit       0.010160
 2572 Fit       0.009594
 2573 Fit       0.009480
 2574 Fit       0.010083
 2575 Fit       0.010651
 -----------------------------------------------------------------
 Leave Link  602 at Thu Jan 16 21:47:09 2014, MaxMem=   235929600 cpu:         0.7

 Test job not archived.
 1\1\GINC-G42\SP\RHF\Gen\C8H9Cl1O1\KOLAR\16-Jan-2014\0\\# hf/gen pop=mk
  iop(6/33=2,6/41=5,6/42=2)\\na resp\\0,1\C,0,0.800708,-2.547734,-0.006
 305\C,0,0.06082,-1.233424,-0.004948\C,0,-1.338514,-1.207612,-0.013453\
 C,0,-2.033183,0.000119,-0.01359\C,0,-1.338407,1.207773,-0.01336\C,0,0.
 060935,1.233448,-0.004934\C,0,0.729899,-0.000017,0.002436\Cl,0,2.49942
 6,-0.000099,0.014673\C,0,0.800944,2.547688,-0.006266\O,0,-3.420425,0.0
 0032,-0.076491\H,0,1.442878,-2.64674,0.876498\H,0,0.097926,-3.385702,-
 0.015127\H,0,1.45312,-2.637882,-0.882414\H,0,-1.899266,-2.137722,-0.02
 9364\H,0,-1.899109,2.137909,-0.029099\H,0,1.443529,2.646407,0.87626\H,
 0,1.452961,2.638,-0.882659\H,0,0.098235,3.385722,-0.014567\H,0,-3.7763
 35,-0.002315,0.825476\\Version=AM64L-G09RevD.01\State=1-A\HF=-842.5216
 942\RMSD=3.668e-09\Dipole=-0.4123561,-0.0016858,0.6407731\Quadrupole=-
 2.86653,4.6236357,-1.7571057,0.0144454,-5.1111336,-0.0034814\PG=C01 [X
 (C8H9Cl1O1)]\\@


 ... IT IS NO ONE DREAME THAT
     CAN PLEASE THESE ALL ...

                -- BEN JONSON
 Job cpu time:       0 days  0 hours  0 minutes 16.4 seconds.
 File lengths (MBytes):  RWF=     12 Int=      0 D2E=      0 Chk=      2 Scr=      1
 Normal termination of Gaussian 09 at Thu Jan 16 21:47:09 2014.
15.71user 0.73system 0:21.76elapsed 75%CPU (0avgtext+0avgdata 3007120maxresident)k
28400inputs+25016outputs (3major+341065minor)pagefaults 0swaps
