Linux g42 2.6.38.6-client #1 SMP Tue Jun 12 11:27:21 CEST 2012 x86_64 GNU/Linux
Fri Jan 17 11:54:32 CET 2014

 Entering Gaussian System, Link 0=/usr/local/programs/common/gaussian/gaussian09_d01/arch/amd64-pgi_10.4.0-acml/g09/g09
 Initial command:
 /usr/local/programs/common/gaussian/gaussian09_d01/arch/amd64-pgi_10.4.0-acml/g09/l1.exe "/scratch/kolar/g09_20157/Gau-20672.inp" -scrdir="/scratch/kolar/g09_20157/"
 Entering Link 1 = /usr/local/programs/common/gaussian/gaussian09_d01/arch/amd64-pgi_10.4.0-acml/g09/l1.exe PID=     20676.
  
 Copyright (c) 1988,1990,1992,1993,1995,1998,2003,2009,2013,
            Gaussian, Inc.  All Rights Reserved.
  
 This is part of the Gaussian(R) 09 program.  It is based on
 the Gaussian(R) 03 system (copyright 2003, Gaussian, Inc.),
 the Gaussian(R) 98 system (copyright 1998, Gaussian, Inc.),
 the Gaussian(R) 94 system (copyright 1995, Gaussian, Inc.),
 the Gaussian 92(TM) system (copyright 1992, Gaussian, Inc.),
 the Gaussian 90(TM) system (copyright 1990, Gaussian, Inc.),
 the Gaussian 88(TM) system (copyright 1988, Gaussian, Inc.),
 the Gaussian 86(TM) system (copyright 1986, Carnegie Mellon
 University), and the Gaussian 82(TM) system (copyright 1983,
 Carnegie Mellon University). Gaussian is a federally registered
 trademark of Gaussian, Inc.
  
 This software contains proprietary and confidential information,
 including trade secrets, belonging to Gaussian, Inc.
  
 This software is provided under written license and may be
 used, copied, transmitted, or stored only in accord with that
 written license.
  
 The following legend is applicable only to US Government
 contracts under FAR:
  
                    RESTRICTED RIGHTS LEGEND
  
 Use, reproduction and disclosure by the US Government is
 subject to restrictions as set forth in subparagraphs (a)
 and (c) of the Commercial Computer Software - Restricted
 Rights clause in FAR 52.227-19.
  
 Gaussian, Inc.
 340 Quinnipiac St., Bldg. 40, Wallingford CT 06492
  
  
 ---------------------------------------------------------------
 Warning -- This program may not be used in any manner that
 competes with the business of Gaussian, Inc. or will provide
 assistance to any competitor of Gaussian, Inc.  The licensee
 of this program is prohibited from giving any competitor of
 Gaussian, Inc. access to this program.  By using this program,
 the user acknowledges that Gaussian, Inc. is engaged in the
 business of creating and licensing software in the field of
 computational chemistry and represents and warrants to the
 licensee that it is not a competitor of Gaussian, Inc. and that
 it will not use this program in any manner prohibited above.
 ---------------------------------------------------------------
  

 Cite this work as:
 Gaussian 09, Revision D.01,
 M. J. Frisch, G. W. Trucks, H. B. Schlegel, G. E. Scuseria, 
 M. A. Robb, J. R. Cheeseman, G. Scalmani, V. Barone, B. Mennucci, 
 G. A. Petersson, H. Nakatsuji, M. Caricato, X. Li, H. P. Hratchian, 
 A. F. Izmaylov, J. Bloino, G. Zheng, J. L. Sonnenberg, M. Hada, 
 M. Ehara, K. Toyota, R. Fukuda, J. Hasegawa, M. Ishida, T. Nakajima, 
 Y. Honda, O. Kitao, H. Nakai, T. Vreven, J. A. Montgomery, Jr., 
 J. E. Peralta, F. Ogliaro, M. Bearpark, J. J. Heyd, E. Brothers, 
 K. N. Kudin, V. N. Staroverov, T. Keith, R. Kobayashi, J. Normand, 
 K. Raghavachari, A. Rendell, J. C. Burant, S. S. Iyengar, J. Tomasi, 
 M. Cossi, N. Rega, J. M. Millam, M. Klene, J. E. Knox, J. B. Cross, 
 V. Bakken, C. Adamo, J. Jaramillo, R. Gomperts, R. E. Stratmann, 
 O. Yazyev, A. J. Austin, R. Cammi, C. Pomelli, J. W. Ochterski, 
 R. L. Martin, K. Morokuma, V. G. Zakrzewski, G. A. Voth, 
 P. Salvador, J. J. Dannenberg, S. Dapprich, A. D. Daniels, 
 O. Farkas, J. B. Foresman, J. V. Ortiz, J. Cioslowski, 
 and D. J. Fox, Gaussian, Inc., Wallingford CT, 2013.
 
 ******************************************
 Gaussian 09:  AM64L-G09RevD.01 24-Apr-2013
                17-Jan-2014 
 ******************************************
 %mem=1800mb
 ------------------------------------------------------------------
 # hf/gen pseudo=read pop=(mk, readradii) iop(6/33=2,6/41=5,6/42=2)
 ------------------------------------------------------------------
 1/38=1/1;
 2/12=2,17=6,18=5,40=1/2;
 3/5=7,11=9,16=1,17=8,25=1,30=1/1,2,3;
 4//1;
 5/5=2,38=5/2;
 6/7=2,8=2,9=2,10=2,15=8,20=101,28=1,33=2,41=5,42=2/1,2;
 99/5=1,9=1/99;
 -------
 na resp
 -------
 Symbolic Z-matrix:
 Charge =  0 Multiplicity = 1
 6                    -1.19516   1.41696   0.85715 
 6                    -2.55792   1.13211   0.87424 
 6                    -3.05437   0.12332   0.05017 
 6                    -2.19812  -0.59313  -0.78315 
 6                    -0.8317   -0.30926  -0.80122 
 6                    -0.31925   0.70365   0.02396 
 7                     1.04615   1.05273   0.06778 
 6                     2.10276   0.52004  -0.64165 
 8                     1.99107  -0.40278  -1.4377 
 6                     3.44528   1.20268  -0.37474 
 6                     4.61882   0.21187  -0.37162 
 6                     4.54832  -0.78117   0.80333 
 6                     5.7886   -1.67905   0.82505 
 8                     6.9892   -0.9203    0.88012 
 6                     7.12617  -0.0672   -0.24668 
 6                     5.97471   0.93938  -0.34145 
 53                   -5.15173  -0.32405   0.06951 
 1                    -0.81005   2.20473   1.50179 
 1                    -3.21682   1.69542   1.52569 
 1                    -2.5823   -1.37761  -1.42606 
 1                    -0.16243  -0.86249  -1.44477 
 1                     1.27312   1.806     0.70267 
 1                     3.59427   1.93899  -1.17809 
 1                     3.4241    1.76783   0.56749 
 1                     4.55187  -0.36521  -1.30393 
 1                     4.49736  -0.22826   1.75243 
 1                     3.64619  -1.40098   0.72943 
 1                     5.79569  -2.32869  -0.06815 
 1                     5.79617  -2.32297   1.70984 
 1                     7.17218  -0.66987  -1.17141 
 1                     8.08781   0.44173  -0.12801 
 1                     6.10114   1.5629   -1.23721 
 1                     6.01923   1.60746   0.53027 
 
                          Input orientation:                          
 ---------------------------------------------------------------------
 Center     Atomic      Atomic             Coordinates (Angstroms)
 Number     Number       Type             X           Y           Z
 ---------------------------------------------------------------------
      1          6           0       -1.195157    1.416964    0.857150
      2          6           0       -2.557918    1.132111    0.874242
      3          6           0       -3.054373    0.123319    0.050166
      4          6           0       -2.198123   -0.593125   -0.783145
      5          6           0       -0.831700   -0.309259   -0.801221
      6          6           0       -0.319250    0.703647    0.023960
      7          7           0        1.046152    1.052735    0.067781
      8          6           0        2.102760    0.520040   -0.641652
      9          8           0        1.991070   -0.402782   -1.437701
     10          6           0        3.445276    1.202675   -0.374735
     11          6           0        4.618816    0.211869   -0.371617
     12          6           0        4.548324   -0.781168    0.803330
     13          6           0        5.788597   -1.679053    0.825045
     14          8           0        6.989196   -0.920300    0.880124
     15          6           0        7.126169   -0.067197   -0.246684
     16          6           0        5.974708    0.939377   -0.341446
     17         53           0       -5.151726   -0.324051    0.069506
     18          1           0       -0.810047    2.204730    1.501792
     19          1           0       -3.216816    1.695421    1.525692
     20          1           0       -2.582301   -1.377606   -1.426061
     21          1           0       -0.162434   -0.862485   -1.444772
     22          1           0        1.273122    1.806003    0.702665
     23          1           0        3.594267    1.938994   -1.178087
     24          1           0        3.424096    1.767826    0.567494
     25          1           0        4.551868   -0.365214   -1.303932
     26          1           0        4.497357   -0.228256    1.752425
     27          1           0        3.646192   -1.400984    0.729428
     28          1           0        5.795692   -2.328689   -0.068148
     29          1           0        5.796171   -2.322968    1.709835
     30          1           0        7.172180   -0.669865   -1.171414
     31          1           0        8.087806    0.441732   -0.128013
     32          1           0        6.101142    1.562897   -1.237211
     33          1           0        6.019231    1.607461    0.530270
 ---------------------------------------------------------------------
                    Distance matrix (angstroms):
                    1          2          3          4          5
     1  C    0.000000
     2  C    1.392319   0.000000
     3  C    2.404459   1.393998   0.000000
     4  C    2.781540   2.419261   1.393149   0.000000
     5  C    2.421186   2.804381   2.419144   1.395714   0.000000
     6  C    1.403652   2.432734   2.796134   2.421405   1.403391
     7  N    2.404003   3.694049   4.204572   3.736074   2.477200
     8  C    3.731908   4.939077   5.218431   4.444857   3.053564
     9  O    4.327801   5.328627   5.286495   4.244292   2.895148
    10  C    4.805942   6.132150   6.602347   5.936299   4.556354
    11  C    6.063366   7.341970   7.685283   6.876629   5.492200
    12  C    6.149980   7.359643   7.693267   6.933023   5.633999
    13  C    7.639318   8.807348   9.057985   8.219076   6.953374
    14  O    8.511578   9.765235  10.131695   9.342395   8.022886
    15  C    8.524415   9.822238  10.186651   9.354508   7.980839
    16  C    7.285032   8.620948   9.074338   8.326994   6.935249
    17  I    4.393854   3.081533   2.144622   3.085966   4.406927
    18  H    1.088324   2.144617   3.387697   3.869843   3.409469
    19  H    2.147462   1.084367   2.162191   3.406744   3.888707
    20  H    3.866115   3.404507   2.157516   1.084594   2.143920
    21  H    3.400184   3.885175   3.401464   2.157391   1.080802
    22  H    2.503521   3.893641   4.688752   4.473588   3.341599
    23  H    5.230037   6.535480   7.000692   6.333987   4.978539
    24  H    4.641606   6.023514   6.703924   6.245611   4.929448
    25  H    6.393335   7.585215   7.741263   6.773887   5.407278
    26  H    5.992744   7.238695   7.749188   7.168800   5.909866
    27  H    5.603196   6.702874   6.905249   6.090692   4.856569
    28  H    7.984865   9.091097   9.184225   8.211241   6.966909
    29  H    7.974511   9.078909   9.331182   8.550792   7.368114
    30  H    8.859021  10.104783  10.329752   9.378658   8.020547
    31  H    9.385895  10.715063  11.148152  10.358594   8.976346
    32  H    7.592340   8.923179   9.356986   8.586758   7.194397
    33  H    7.224302   8.597195   9.206708   8.607703   7.237537
                    6          7          8          9         10
     6  C    0.000000
     7  N    1.410002   0.000000
     8  C    2.518508   1.379666   0.000000
     9  O    2.949274   2.297363   1.223834   0.000000
    10  C    3.818330   2.444197   1.529570   2.412904   0.000000
    11  C    4.978235   3.696492   2.549201   2.901617   1.535872
    12  C    5.148337   4.021124   3.124404   3.421249   2.557379
    13  C    6.604907   5.525115   4.535703   4.601098   3.903201
    14  O    7.535490   6.314471   5.316732   5.533661   4.317530
    15  C    7.490108   6.190294   5.073015   5.282081   3.895888
    16  C    6.308962   4.946815   3.906142   4.344253   2.543317
    17  I    4.940755   6.348955   7.337970   7.300507   8.742808
    18  H    2.162896   2.613227   3.989609   4.825556   4.757441
    19  H    3.410968   4.550983   5.863172   6.348719   6.945350
    20  H    3.399349   4.615603   5.115286   4.676124   6.640393
    21  H    2.152797   2.723337   2.772631   2.202035   4.292486
    22  H    2.052189   1.010943   2.036956   3.158377   2.498609
    23  H    4.276285   2.971621   2.127390   2.849834   1.099881
    24  H    3.929446   2.532920   2.182873   3.284191   1.098927
    25  H    5.160770   4.022713   2.687084   2.564565   2.132189
    26  H    5.201513   4.048429   3.467801   4.060645   2.771146
    27  H    4.544435   3.635756   2.819996   2.903840   2.835240
    28  H    6.826131   5.831864   4.699139   4.478833   4.253114
    29  H    7.028581   6.054287   5.220486   5.298386   4.722531
    30  H    7.709538   6.483145   5.234075   5.194819   4.246283
    31  H    8.412508   7.070824   6.007556   6.292748   4.710944
    32  H    6.599265   5.245588   4.174841   4.560349   2.815537
    33  H    6.422583   5.025249   4.230205   4.913254   2.758284
                   11         12         13         14         15
    11  C    0.000000
    12  C    1.539997   0.000000
    13  C    2.525069   1.531322   0.000000
    14  O    2.909873   2.446040   1.421330   0.000000
    15  C    2.525927   2.873599   2.352824   1.419945   0.000000
    16  C    1.539033   2.511047   2.872545   2.445367   1.532329
    17  I    9.795167   9.738502  11.049775  12.182553  12.284651
    18  H    6.078956   6.173781   7.686603   8.424991   8.438148
    19  H    8.197429   8.182463   9.642378  10.555635  10.640746
    20  H    7.449454   7.494781   8.673539   9.856022   9.867243
    21  H    5.016597   5.220327   6.421341   7.520259   7.429107
    22  H    3.858628   4.174989   5.705270   6.335434   6.218384
    23  H    2.164037   3.497931   4.681654   4.892580   4.167331
    24  H    2.174922   2.795868   4.187860   4.475902   4.211358
    25  H    1.098507   2.147925   2.790737   3.319456   2.798859
    26  H    2.172560   1.099587   2.152242   2.729303   3.306513
    27  H    2.181649   1.097030   2.162490   3.380746   3.852535
    28  H    2.816304   2.170305   1.104478   2.075387   2.629903
    29  H    3.484825   2.180830   1.094320   2.019705   3.268848
    30  H    2.817232   3.285821   2.630325   2.074852   1.104740
    31  H    3.485121   3.858862   3.269925   2.019509   1.094458
    32  H    2.184450   3.474146   3.854974   3.382013   2.165417
    33  H    2.173071   2.818453   3.307757   2.729983   2.152545
                   16         17         18         19         20
    16  C    0.000000
    17  I   11.205475   0.000000
    18  H    7.143637   5.224591   0.000000
    19  H    9.409672   3.153192   2.460184   0.000000
    20  H    8.931249   3.154147   4.954426   4.308010   0.000000
    21  H    6.490651   5.241754   4.302261   4.969486   2.474158
    22  H    4.893477   6.798286   2.266535   4.566086   5.434255
    23  H    2.713983   9.119773   5.162398   7.332162   7.015078
    24  H    2.831629   8.841304   4.357954   6.710074   7.067164
    25  H    2.157037   9.800396   6.574712   8.520883   7.206679
    26  H    2.816066   9.795213   5.843866   7.953641   7.845084
    27  H    3.470742   8.888118   5.784098   7.571172   6.590964
    28  H    3.284356  11.130296   8.164091   9.997954   8.540448
    29  H    3.857787  11.249124   8.011582   9.869919   8.995907
    30  H    2.170817  12.391050   8.895239  10.990914   9.783437
    31  H    2.181373  13.263131   9.216085  11.493518  10.901656
    32  H    1.098707  11.484560   7.461811   9.719853   9.169755
    33  H    1.099185  11.346071   6.923845   9.289950   9.312583
                   21         22         23         24         25
    21  H    0.000000
    22  H    3.713911   0.000000
    23  H    4.693848   2.990423   0.000000
    24  H    4.881695   2.155555   1.762189   0.000000
    25  H    4.742548   4.414837   2.498442   3.053517   0.000000
    26  H    5.686648   3.954225   3.755056   2.557400   3.059910
    27  H    4.418457   3.989604   3.846656   3.180708   2.455121
    28  H    6.288411   6.176040   4.928626   4.775976   2.632393
    29  H    6.898516   6.206510   5.599357   4.864800   3.803141
    30  H    7.342233   6.666407   4.428053   4.797319   2.641289
    31  H    8.455844   6.999370   4.851427   4.898208   3.812716
    32  H    6.719966   5.208838   2.535620   3.235047   2.474331
    33  H    6.943659   4.753387   2.984769   2.600352   3.067393
                   26         27         28         29         30
    26  H    0.000000
    27  H    1.773780   0.000000
    28  H    3.067895   2.473280   0.000000
    29  H    2.465066   2.536466   1.777992   0.000000
    30  H    3.987296   4.071895   2.421490   3.595518   0.000000
    31  H    4.108072   4.884541   3.596193   4.033961   1.778399
    32  H    3.836441   4.321925   4.074856   4.886516   2.477232
    33  H    2.679481   3.836889   3.987650   4.109672   3.067773
                   31         32         33
    31  H    0.000000
    32  H    2.536566   0.000000
    33  H    2.463993   1.769939   0.000000
 Stoichiometry    C13H16INO2
 Framework group  C1[X(C13H16INO2)]
 Deg. of freedom    93
 Full point group                 C1      NOp   1
 Largest Abelian subgroup         C1      NOp   1
 Largest concise Abelian subgroup C1      NOp   1
                         Standard orientation:                         
 ---------------------------------------------------------------------
 Center     Atomic      Atomic             Coordinates (Angstroms)
 Number     Number       Type             X           Y           Z
 ---------------------------------------------------------------------
      1          6           0        1.195157    1.416964   -0.857150
      2          6           0        2.557918    1.132111   -0.874242
      3          6           0        3.054373    0.123319   -0.050166
      4          6           0        2.198123   -0.593125    0.783145
      5          6           0        0.831700   -0.309259    0.801221
      6          6           0        0.319250    0.703647   -0.023960
      7          7           0       -1.046152    1.052735   -0.067781
      8          6           0       -2.102760    0.520040    0.641652
      9          8           0       -1.991070   -0.402782    1.437701
     10          6           0       -3.445276    1.202675    0.374735
     11          6           0       -4.618816    0.211869    0.371617
     12          6           0       -4.548324   -0.781168   -0.803330
     13          6           0       -5.788597   -1.679053   -0.825045
     14          8           0       -6.989196   -0.920300   -0.880124
     15          6           0       -7.126169   -0.067197    0.246684
     16          6           0       -5.974708    0.939377    0.341446
     17         53           0        5.151726   -0.324051   -0.069506
     18          1           0        0.810047    2.204730   -1.501792
     19          1           0        3.216816    1.695421   -1.525692
     20          1           0        2.582301   -1.377606    1.426061
     21          1           0        0.162434   -0.862485    1.444772
     22          1           0       -1.273122    1.806003   -0.702665
     23          1           0       -3.594267    1.938994    1.178087
     24          1           0       -3.424096    1.767826   -0.567494
     25          1           0       -4.551868   -0.365214    1.303932
     26          1           0       -4.497357   -0.228256   -1.752425
     27          1           0       -3.646192   -1.400984   -0.729428
     28          1           0       -5.795692   -2.328689    0.068148
     29          1           0       -5.796171   -2.322968   -1.709835
     30          1           0       -7.172180   -0.669865    1.171414
     31          1           0       -8.087806    0.441732    0.128013
     32          1           0       -6.101142    1.562897    1.237211
     33          1           0       -6.019231    1.607461   -0.530270
 ---------------------------------------------------------------------
 Rotational constants (GHZ):      1.5044351      0.0716385      0.0708322
 General basis read from cards:  (5D, 7F)
 ======================================================================================================
                                       Pseudopotential Parameters
 ======================================================================================================
  Center     Atomic      Valence      Angular      Power
  Number     Number     Electrons     Momentum     of R      Exponent        Coefficient   SO-Coeffient
 ======================================================================================================
    1          6
                                   No pseudopotential on this center.
    2          6
                                   No pseudopotential on this center.
    3          6
                                   No pseudopotential on this center.
    4          6
                                   No pseudopotential on this center.
    5          6
                                   No pseudopotential on this center.
    6          6
                                   No pseudopotential on this center.
    7          7
                                   No pseudopotential on this center.
    8          6
                                   No pseudopotential on this center.
    9          8
                                   No pseudopotential on this center.
   10          6
                                   No pseudopotential on this center.
   11          6
                                   No pseudopotential on this center.
   12          6
                                   No pseudopotential on this center.
   13          6
                                   No pseudopotential on this center.
   14          8
                                   No pseudopotential on this center.
   15          6
                                   No pseudopotential on this center.
   16          6
                                   No pseudopotential on this center.
   17         53            7
                                      F and up 
                                                     0        1.0715702       -0.07476210    0.00000000
                                                     1       44.1936028      -30.08112240    0.00000000
                                                     2       12.9367609      -75.37227210    0.00000000
                                                     2        3.1956412      -22.05637580    0.00000000
                                                     2        0.8589806       -1.69795850    0.00000000
                                      S - F
                                                     0      127.9202670        2.93800360    0.00000000
                                                     1       78.6211465       41.24712670    0.00000000
                                                     2       36.5146237      287.86800950    0.00000000
                                                     2        9.9065681      114.37585060    0.00000000
                                                     2        1.9420086       37.65477140    0.00000000
                                      P - F
                                                     0       13.0035304        2.22226300    0.00000000
                                                     1       76.0331404       39.40908310    0.00000000
                                                     2       24.1961684      177.40750020    0.00000000
                                                     2        6.4053433       77.98894620    0.00000000
                                                     2        1.5851786       25.75476410    0.00000000
                                      D - F
                                                     0       40.4278108        7.05243600    0.00000000
                                                     1       28.9084375       33.30416350    0.00000000
                                                     2       15.6268936      186.94538750    0.00000000
                                                     2        4.1442856       71.96883610    0.00000000
                                                     2        0.9377235        9.36306570    0.00000000
   18          1
                                   No pseudopotential on this center.
   19          1
                                   No pseudopotential on this center.
   20          1
                                   No pseudopotential on this center.
   21          1
                                   No pseudopotential on this center.
   22          1
                                   No pseudopotential on this center.
   23          1
                                   No pseudopotential on this center.
   24          1
                                   No pseudopotential on this center.
   25          1
                                   No pseudopotential on this center.
   26          1
                                   No pseudopotential on this center.
   27          1
                                   No pseudopotential on this center.
   28          1
                                   No pseudopotential on this center.
   29          1
                                   No pseudopotential on this center.
   30          1
                                   No pseudopotential on this center.
   31          1
                                   No pseudopotential on this center.
   32          1
                                   No pseudopotential on this center.
   33          1
                                   No pseudopotential on this center.
 ======================================================================================================
 There are   280 symmetry adapted cartesian basis functions of A   symmetry.
 There are   264 symmetry adapted basis functions of A   symmetry.
   264 basis functions,   524 primitive gaussians,   280 cartesian basis functions
    62 alpha electrons       62 beta electrons
       nuclear repulsion energy      1108.7024565139 Hartrees.
 NAtoms=   33 NActive=   33 NUniq=   33 SFac= 1.00D+00 NAtFMM=   60 NAOKFM=F Big=F
 Integral buffers will be    131072 words long.
 Raffenetti 1 integral format.
 Two-electron integral symmetry is turned on.
 One-electron integrals computed using PRISM.
   1 Symmetry operations used in ECPInt.
 ECPInt:  NShTT=    5050 NPrTT=   30719 LenC2=    4354 LenP2D=   16155.
 LDataN:  DoStor=T MaxTD1= 5 Len=  102
 NBasis=   264 RedAO= T EigKep=  4.82D-04  NBF=   264
 NBsUse=   264 1.00D-06 EigRej= -1.00D+00 NBFU=   264
 ExpMin= 1.05D-01 ExpMax= 5.48D+03 ExpMxC= 8.25D+02 IAcc=1 IRadAn=         1 AccDes= 0.00D+00
 Harris functional with IExCor=  205 and IRadAn=       1 diagonalized for initial guess.
 HarFok:  IExCor=  205 AccDes= 0.00D+00 IRadAn=         1 IDoV= 1 UseB2=F ITyADJ=14
 ICtDFT=  3500011 ScaDFX=  1.000000  1.000000  1.000000  1.000000
 Defaulting to unpruned grid for atomic number  53.
 FoFCou: FMM=F IPFlag=           0 FMFlag=      100000 FMFlg1=           0
         NFxFlg=           0 DoJE=T BraDBF=F KetDBF=T FulRan=T
         wScrn=  0.000000 ICntrl=     500 IOpCl=  0 I1Cent=   200000004 NGrid=           0
         NMat0=    1 NMatS0=      1 NMatT0=    0 NMatD0=    1 NMtDS0=    0 NMtDT0=    0
 Petite list used in FoFCou.
 Requested convergence on RMS density matrix=1.00D-08 within 128 cycles.
 Requested convergence on MAX density matrix=1.00D-06.
 Requested convergence on             energy=1.00D-06.
 No special actions if energy rises.
 Integral accuracy reduced to 1.0D-05 until final iterations.
 Initial convergence to 1.0D-05 achieved.  Increase integral accuracy.
 SCF Done:  E(RHF) =  -716.940599524     A.U. after   16 cycles
            NFock= 16  Conv=0.40D-08     -V/T= 2.0125

 **********************************************************************

            Population analysis using the SCF density.

 **********************************************************************

 Orbital symmetries:
 BldTbl:  Degeneracy threshold= 1.00D-02
       Occupied  (A) (A) (A) (A) (A) (A) (A) (A) (A) (A) (A) (A)
                 (A) (A) (A) (A) (A) (A) (A) (A) (A) (A) (A) (A)
                 (A) (A) (A) (A) (A) (A) (A) (A) (A) (A) (A) (A)
                 (A) (A) (A) (A) (A) (A) (A) (A) (A) (A) (A) (A)
                 (A) (A) (A) (A) (A) (A) (A) (A) (A) (A) (A) (A)
                 (A) (A)
       Virtual   (A) (A) (A) (A) (A) (A) (A) (A) (A) (A) (A) (A)
                 (A) (A) (A) (A) (A) (A) (A) (A) (A) (A) (A) (A)
                 (A) (A) (A) (A) (A) (A) (A) (A) (A) (A) (A) (A)
                 (A) (A) (A) (A) (A) (A) (A) (A) (A) (A) (A) (A)
                 (A) (A) (A) (A) (A) (A) (A) (A) (A) (A) (A) (A)
                 (A) (A) (A) (A) (A) (A) (A) (A) (A) (A) (A) (A)
                 (A) (A) (A) (A) (A) (A) (A) (A) (A) (A) (A) (A)
                 (A) (A) (A) (A) (A) (A) (A) (A) (A) (A) (A) (A)
                 (A) (A) (A) (A) (A) (A) (A) (A) (A) (A) (A) (A)
                 (A) (A) (A) (A) (A) (A) (A) (A) (A) (A) (A) (A)
                 (A) (A) (A) (A) (A) (A) (A) (A) (A) (A) (A) (A)
                 (A) (A) (A) (A) (A) (A) (A) (A) (A) (A) (A) (A)
                 (A) (A) (A) (A) (A) (A) (A) (A) (A) (A) (A) (A)
                 (A) (A) (A) (A) (A) (A) (A) (A) (A) (A) (A) (A)
                 (A) (A) (A) (A) (A) (A) (A) (A) (A) (A) (A) (A)
                 (A) (A) (A) (A) (A) (A) (A) (A) (A) (A) (A) (A)
                 (A) (A) (A) (A) (A) (A) (A) (A) (A) (A)
 The electronic state is 1-A.
 Alpha  occ. eigenvalues --  -20.55628 -20.54418 -15.61926 -11.37519 -11.30388
 Alpha  occ. eigenvalues --  -11.29135 -11.27556 -11.27373 -11.25977 -11.25554
 Alpha  occ. eigenvalues --  -11.25370 -11.25232 -11.24200 -11.23969 -11.22953
 Alpha  occ. eigenvalues --  -11.22570  -1.39661  -1.37192  -1.26712  -1.15986
 Alpha  occ. eigenvalues --   -1.11268  -1.03987  -1.03232  -1.02961  -0.99141
 Alpha  occ. eigenvalues --   -0.89763  -0.86809  -0.86289  -0.85641  -0.81711
 Alpha  occ. eigenvalues --   -0.78655  -0.77330  -0.73506  -0.69474  -0.67213
 Alpha  occ. eigenvalues --   -0.64620  -0.64365  -0.64052  -0.63576  -0.63150
 Alpha  occ. eigenvalues --   -0.62213  -0.60499  -0.59759  -0.59050  -0.57121
 Alpha  occ. eigenvalues --   -0.55543  -0.54016  -0.53720  -0.51707  -0.51318
 Alpha  occ. eigenvalues --   -0.50245  -0.48105  -0.46322  -0.45825  -0.45697
 Alpha  occ. eigenvalues --   -0.44992  -0.42764  -0.40651  -0.37856  -0.36658
 Alpha  occ. eigenvalues --   -0.35140  -0.30583
 Alpha virt. eigenvalues --    0.11182   0.11824   0.12632   0.19476   0.19841
 Alpha virt. eigenvalues --    0.23036   0.24217   0.25409   0.26256   0.27477
 Alpha virt. eigenvalues --    0.29103   0.30333   0.30394   0.31201   0.31691
 Alpha virt. eigenvalues --    0.32037   0.32827   0.33209   0.33856   0.34349
 Alpha virt. eigenvalues --    0.35609   0.37095   0.37385   0.39697   0.41508
 Alpha virt. eigenvalues --    0.43206   0.43348   0.44317   0.44474   0.45152
 Alpha virt. eigenvalues --    0.45722   0.48713   0.49768   0.51822   0.52928
 Alpha virt. eigenvalues --    0.55371   0.56323   0.57106   0.60069   0.67139
 Alpha virt. eigenvalues --    0.70468   0.71313   0.72327   0.73651   0.73909
 Alpha virt. eigenvalues --    0.75099   0.76616   0.78707   0.79131   0.80433
 Alpha virt. eigenvalues --    0.80733   0.81338   0.81579   0.81661   0.82896
 Alpha virt. eigenvalues --    0.83718   0.84770   0.85837   0.87665   0.88962
 Alpha virt. eigenvalues --    0.89600   0.90567   0.91170   0.91649   0.92570
 Alpha virt. eigenvalues --    0.94250   0.96388   0.99938   1.00576   1.01204
 Alpha virt. eigenvalues --    1.04128   1.05474   1.06943   1.08357   1.09167
 Alpha virt. eigenvalues --    1.10596   1.11117   1.11355   1.11942   1.12728
 Alpha virt. eigenvalues --    1.13454   1.14150   1.15248   1.16098   1.16925
 Alpha virt. eigenvalues --    1.17376   1.18306   1.18950   1.19842   1.20833
 Alpha virt. eigenvalues --    1.21353   1.21786   1.22904   1.23052   1.25222
 Alpha virt. eigenvalues --    1.27036   1.28744   1.30405   1.31773   1.34236
 Alpha virt. eigenvalues --    1.35808   1.36650   1.40433   1.42590   1.42869
 Alpha virt. eigenvalues --    1.46812   1.48846   1.51103   1.53982   1.55180
 Alpha virt. eigenvalues --    1.58217   1.61241   1.62454   1.64594   1.66125
 Alpha virt. eigenvalues --    1.67719   1.68865   1.70064   1.71391   1.75458
 Alpha virt. eigenvalues --    1.76073   1.76594   1.77561   1.80364   1.83045
 Alpha virt. eigenvalues --    1.85984   1.88322   1.92463   1.95565   1.98541
 Alpha virt. eigenvalues --    2.00263   2.01981   2.03077   2.04081   2.06804
 Alpha virt. eigenvalues --    2.08888   2.10170   2.12288   2.13778   2.15324
 Alpha virt. eigenvalues --    2.16090   2.19394   2.20697   2.22554   2.24404
 Alpha virt. eigenvalues --    2.25474   2.28250   2.29022   2.29400   2.32092
 Alpha virt. eigenvalues --    2.32845   2.33297   2.35141   2.35479   2.36662
 Alpha virt. eigenvalues --    2.40897   2.42525   2.44339   2.44709   2.45935
 Alpha virt. eigenvalues --    2.47011   2.47235   2.50260   2.52210   2.56377
 Alpha virt. eigenvalues --    2.59162   2.61734   2.62508   2.63443   2.66342
 Alpha virt. eigenvalues --    2.67253   2.68337   2.74122   2.75117   2.76436
 Alpha virt. eigenvalues --    2.77581   2.79399   2.81455   2.84879   2.87409
 Alpha virt. eigenvalues --    2.88292   2.92727   2.95689   2.96892   3.00960
 Alpha virt. eigenvalues --    3.01281   3.04702   3.05903   3.07474   3.09356
 Alpha virt. eigenvalues --    3.09712   3.13198   3.14826   3.17446   3.20307
 Alpha virt. eigenvalues --    3.30450   3.31046   3.35521   3.40465   3.66893
 Alpha virt. eigenvalues --    3.76109  10.25691
          Condensed to atoms (all electrons):
               1          2          3          4          5          6
     1  C    5.021460   0.512063  -0.014841  -0.053395  -0.027052   0.527622
     2  C    0.512063   4.909651   0.468001  -0.010204  -0.052164  -0.006438
     3  C   -0.014841   0.468001   5.367771   0.457534  -0.008069  -0.061823
     4  C   -0.053395  -0.010204   0.457534   4.964994   0.474824  -0.008944
     5  C   -0.027052  -0.052164  -0.008069   0.474824   5.014633   0.558644
     6  C    0.527622  -0.006438  -0.061823  -0.008944   0.558644   4.513126
     7  N   -0.059269   0.003697  -0.000312   0.004235  -0.047973   0.197524
     8  C    0.002849  -0.000059   0.000008   0.000085  -0.002577  -0.025065
     9  O    0.000296  -0.000004  -0.000003   0.000526  -0.011200   0.002275
    10  C   -0.000206   0.000000   0.000000   0.000004   0.000080   0.004230
    11  C    0.000002   0.000000   0.000000   0.000000   0.000005  -0.000085
    12  C    0.000000   0.000000   0.000000   0.000000  -0.000005  -0.000006
    13  C    0.000000   0.000000   0.000000   0.000000   0.000000   0.000000
    14  O    0.000000   0.000000   0.000000   0.000000   0.000000   0.000000
    15  C    0.000000   0.000000   0.000000   0.000000   0.000000   0.000000
    16  C    0.000000   0.000000   0.000000   0.000000   0.000000   0.000001
    17  I   -0.000388  -0.054339   0.251521  -0.053689  -0.001023   0.001364
    18  H    0.380048  -0.027588   0.004108  -0.000225   0.003108  -0.040175
    19  H   -0.027644   0.383269  -0.026660   0.002324   0.000070   0.001925
    20  H    0.000178   0.002323  -0.028446   0.383714  -0.025930   0.001798
    21  H    0.002938  -0.000317   0.003509  -0.030950   0.367177  -0.019841
    22  H    0.000828   0.000115   0.000008  -0.000074   0.002005  -0.031028
    23  H    0.000008   0.000000   0.000000   0.000000   0.000001  -0.000192
    24  H   -0.000041   0.000000   0.000000   0.000000  -0.000009   0.000428
    25  H    0.000000   0.000000   0.000000   0.000000   0.000001   0.000000
    26  H    0.000000   0.000000   0.000000   0.000000   0.000000   0.000002
    27  H    0.000000   0.000000   0.000000   0.000000   0.000003   0.000036
    28  H    0.000000   0.000000   0.000000   0.000000   0.000000   0.000000
    29  H    0.000000   0.000000   0.000000   0.000000   0.000000   0.000000
    30  H    0.000000   0.000000   0.000000   0.000000   0.000000   0.000000
    31  H    0.000000   0.000000   0.000000   0.000000   0.000000   0.000000
    32  H    0.000000   0.000000   0.000000   0.000000   0.000000   0.000000
    33  H    0.000000   0.000000   0.000000   0.000000   0.000000   0.000000
               7          8          9         10         11         12
     1  C   -0.059269   0.002849   0.000296  -0.000206   0.000002   0.000000
     2  C    0.003697  -0.000059  -0.000004   0.000000   0.000000   0.000000
     3  C   -0.000312   0.000008  -0.000003   0.000000   0.000000   0.000000
     4  C    0.004235   0.000085   0.000526   0.000004   0.000000   0.000000
     5  C   -0.047973  -0.002577  -0.011200   0.000080   0.000005  -0.000005
     6  C    0.197524  -0.025065   0.002275   0.004230  -0.000085  -0.000006
     7  N    7.469067   0.250723  -0.088568  -0.098912   0.001558   0.000464
     8  C    0.250723   4.137292   0.576383   0.357094  -0.037181  -0.004202
     9  O   -0.088568   0.576383   8.199054  -0.075297   0.001699  -0.001807
    10  C   -0.098912   0.357094  -0.075297   5.313658   0.334338  -0.057831
    11  C    0.001558  -0.037181   0.001699   0.334338   5.138294   0.334600
    12  C    0.000464  -0.004202  -0.001807  -0.057831   0.334600   5.214337
    13  C    0.000002   0.000022  -0.000005   0.003607  -0.043246   0.337991
    14  O    0.000000  -0.000001   0.000000  -0.000129  -0.001849  -0.050065
    15  C    0.000000  -0.000064   0.000003   0.003626  -0.043902  -0.007397
    16  C   -0.000063   0.003783   0.000102  -0.057865   0.339489  -0.060306
    17  I    0.000010   0.000000   0.000000   0.000000   0.000000   0.000000
    18  H   -0.003531   0.000041   0.000002   0.000000   0.000000   0.000000
    19  H   -0.000072   0.000001   0.000000   0.000000   0.000000   0.000000
    20  H   -0.000067   0.000000  -0.000003   0.000000   0.000000   0.000000
    21  H   -0.004655  -0.000266   0.013116   0.000246  -0.000004  -0.000001
    22  H    0.325710  -0.019661   0.002132   0.000783  -0.000017   0.000012
    23  H   -0.000682  -0.027358   0.000623   0.384048  -0.034984   0.004001
    24  H    0.004630  -0.045897   0.002090   0.384751  -0.037042  -0.002345
    25  H    0.000383  -0.004052   0.006656  -0.041216   0.402971  -0.039632
    26  H   -0.000036   0.000042   0.000046  -0.003743  -0.046463   0.386399
    27  H   -0.000313   0.003913   0.002370  -0.005291  -0.036394   0.386945
    28  H    0.000000  -0.000010   0.000000  -0.000118  -0.006859  -0.057135
    29  H    0.000000  -0.000002   0.000000  -0.000087   0.004187  -0.041855
    30  H    0.000000  -0.000002  -0.000002  -0.000135  -0.006861   0.000527
    31  H    0.000000   0.000001   0.000000  -0.000091   0.004232  -0.000475
    32  H   -0.000001  -0.000112   0.000009  -0.003619  -0.040255   0.004571
    33  H   -0.000004  -0.000039  -0.000004  -0.004530  -0.042656  -0.002386
              13         14         15         16         17         18
     1  C    0.000000   0.000000   0.000000   0.000000  -0.000388   0.380048
     2  C    0.000000   0.000000   0.000000   0.000000  -0.054339  -0.027588
     3  C    0.000000   0.000000   0.000000   0.000000   0.251521   0.004108
     4  C    0.000000   0.000000   0.000000   0.000000  -0.053689  -0.000225
     5  C    0.000000   0.000000   0.000000   0.000000  -0.001023   0.003108
     6  C    0.000000   0.000000   0.000000   0.000001   0.001364  -0.040175
     7  N    0.000002   0.000000   0.000000  -0.000063   0.000010  -0.003531
     8  C    0.000022  -0.000001  -0.000064   0.003783   0.000000   0.000041
     9  O   -0.000005   0.000000   0.000003   0.000102   0.000000   0.000002
    10  C    0.003607  -0.000129   0.003626  -0.057865   0.000000   0.000000
    11  C   -0.043246  -0.001849  -0.043902   0.339489   0.000000   0.000000
    12  C    0.337991  -0.050065  -0.007397  -0.060306   0.000000   0.000000
    13  C    4.793271   0.216319  -0.051477  -0.007693   0.000000   0.000000
    14  O    0.216319   8.467935   0.218790  -0.049849   0.000000   0.000000
    15  C   -0.051477   0.218790   4.792315   0.337361   0.000000   0.000000
    16  C   -0.007693  -0.049849   0.337361   5.202363   0.000000   0.000000
    17  I    0.000000   0.000000   0.000000   0.000000   6.674744  -0.000175
    18  H    0.000000   0.000000   0.000000   0.000000  -0.000175   0.476750
    19  H    0.000000   0.000000   0.000000   0.000000   0.000212  -0.002008
    20  H    0.000000   0.000000   0.000000   0.000000   0.000090   0.000007
    21  H    0.000000   0.000000   0.000000   0.000000  -0.000132  -0.000080
    22  H    0.000000   0.000000   0.000000  -0.000010   0.000000   0.004639
    23  H   -0.000073   0.000003   0.000011  -0.003187   0.000000   0.000000
    24  H   -0.000098   0.000001  -0.000048  -0.003095   0.000000  -0.000011
    25  H   -0.001990  -0.000119  -0.001482  -0.043626   0.000000   0.000000
    26  H   -0.037778   0.001300   0.000080  -0.002278   0.000000   0.000000
    27  H   -0.029743   0.002524  -0.000229   0.004402   0.000000   0.000000
    28  H    0.397057  -0.041517  -0.006863   0.000712   0.000000   0.000000
    29  H    0.410097  -0.032456   0.004360  -0.000465   0.000000   0.000000
    30  H   -0.006590  -0.041703   0.395687  -0.057009   0.000000   0.000000
    31  H    0.004351  -0.032511   0.410183  -0.042136   0.000000   0.000000
    32  H   -0.000241   0.002671  -0.031491   0.387661   0.000000   0.000000
    33  H    0.000103   0.001432  -0.037950   0.387021   0.000000   0.000000
              19         20         21         22         23         24
     1  C   -0.027644   0.000178   0.002938   0.000828   0.000008  -0.000041
     2  C    0.383269   0.002323  -0.000317   0.000115   0.000000   0.000000
     3  C   -0.026660  -0.028446   0.003509   0.000008   0.000000   0.000000
     4  C    0.002324   0.383714  -0.030950  -0.000074   0.000000   0.000000
     5  C    0.000070  -0.025930   0.367177   0.002005   0.000001  -0.000009
     6  C    0.001925   0.001798  -0.019841  -0.031028  -0.000192   0.000428
     7  N   -0.000072  -0.000067  -0.004655   0.325710  -0.000682   0.004630
     8  C    0.000001   0.000000  -0.000266  -0.019661  -0.027358  -0.045897
     9  O    0.000000  -0.000003   0.013116   0.002132   0.000623   0.002090
    10  C    0.000000   0.000000   0.000246   0.000783   0.384048   0.384751
    11  C    0.000000   0.000000  -0.000004  -0.000017  -0.034984  -0.037042
    12  C    0.000000   0.000000  -0.000001   0.000012   0.004001  -0.002345
    13  C    0.000000   0.000000   0.000000   0.000000  -0.000073  -0.000098
    14  O    0.000000   0.000000   0.000000   0.000000   0.000003   0.000001
    15  C    0.000000   0.000000   0.000000   0.000000   0.000011  -0.000048
    16  C    0.000000   0.000000   0.000000  -0.000010  -0.003187  -0.003095
    17  I    0.000212   0.000090  -0.000132   0.000000   0.000000   0.000000
    18  H   -0.002008   0.000007  -0.000080   0.004639   0.000000  -0.000011
    19  H    0.440213  -0.000084   0.000005  -0.000010   0.000000   0.000000
    20  H   -0.000084   0.437054  -0.001403   0.000002   0.000000   0.000000
    21  H    0.000005  -0.001403   0.379190  -0.000129  -0.000006  -0.000007
    22  H   -0.000010   0.000002  -0.000129   0.308731   0.000029   0.002784
    23  H    0.000000   0.000000  -0.000006   0.000029   0.486749  -0.023388
    24  H    0.000000   0.000000  -0.000007   0.002784  -0.023388   0.534033
    25  H    0.000000   0.000000  -0.000001  -0.000004  -0.001217   0.004033
    26  H    0.000000   0.000000   0.000000   0.000003  -0.000039   0.002949
    27  H    0.000000   0.000000   0.000006  -0.000015  -0.000025  -0.000049
    28  H    0.000000   0.000000   0.000000   0.000000   0.000001  -0.000001
    29  H    0.000000   0.000000   0.000000   0.000000   0.000001   0.000001
    30  H    0.000000   0.000000   0.000000   0.000000   0.000007  -0.000003
    31  H    0.000000   0.000000   0.000000   0.000000  -0.000003   0.000002
    32  H    0.000000   0.000000   0.000000   0.000000   0.002414   0.000144
    33  H    0.000000   0.000000   0.000000   0.000000   0.000125   0.002031
              25         26         27         28         29         30
     1  C    0.000000   0.000000   0.000000   0.000000   0.000000   0.000000
     2  C    0.000000   0.000000   0.000000   0.000000   0.000000   0.000000
     3  C    0.000000   0.000000   0.000000   0.000000   0.000000   0.000000
     4  C    0.000000   0.000000   0.000000   0.000000   0.000000   0.000000
     5  C    0.000001   0.000000   0.000003   0.000000   0.000000   0.000000
     6  C    0.000000   0.000002   0.000036   0.000000   0.000000   0.000000
     7  N    0.000383  -0.000036  -0.000313   0.000000   0.000000   0.000000
     8  C   -0.004052   0.000042   0.003913  -0.000010  -0.000002  -0.000002
     9  O    0.006656   0.000046   0.002370   0.000000   0.000000  -0.000002
    10  C   -0.041216  -0.003743  -0.005291  -0.000118  -0.000087  -0.000135
    11  C    0.402971  -0.046463  -0.036394  -0.006859   0.004187  -0.006861
    12  C   -0.039632   0.386399   0.386945  -0.057135  -0.041855   0.000527
    13  C   -0.001990  -0.037778  -0.029743   0.397057   0.410097  -0.006590
    14  O   -0.000119   0.001300   0.002524  -0.041517  -0.032456  -0.041703
    15  C   -0.001482   0.000080  -0.000229  -0.006863   0.004360   0.395687
    16  C   -0.043626  -0.002278   0.004402   0.000712  -0.000465  -0.057009
    17  I    0.000000   0.000000   0.000000   0.000000   0.000000   0.000000
    18  H    0.000000   0.000000   0.000000   0.000000   0.000000   0.000000
    19  H    0.000000   0.000000   0.000000   0.000000   0.000000   0.000000
    20  H    0.000000   0.000000   0.000000   0.000000   0.000000   0.000000
    21  H   -0.000001   0.000000   0.000006   0.000000   0.000000   0.000000
    22  H   -0.000004   0.000003  -0.000015   0.000000   0.000000   0.000000
    23  H   -0.001217  -0.000039  -0.000025   0.000001   0.000001   0.000007
    24  H    0.004033   0.002949  -0.000049  -0.000001   0.000001  -0.000003
    25  H    0.506380   0.004295  -0.002997   0.002886  -0.000091   0.002746
    26  H    0.004295   0.555313  -0.025402   0.004804  -0.004364   0.000147
    27  H   -0.002997  -0.025402   0.512689   0.000382  -0.000658   0.000020
    28  H    0.002886   0.004804   0.000382   0.579988  -0.031514   0.007844
    29  H   -0.000091  -0.004364  -0.000658  -0.031514   0.512947  -0.000178
    30  H    0.002746   0.000147   0.000020   0.007844  -0.000178   0.585559
    31  H   -0.000086  -0.000052   0.000014  -0.000174  -0.000084  -0.031975
    32  H   -0.002780  -0.000090  -0.000052   0.000017   0.000015   0.000329
    33  H    0.004074   0.002818  -0.000085   0.000148  -0.000053   0.004832
              31         32         33
     1  C    0.000000   0.000000   0.000000
     2  C    0.000000   0.000000   0.000000
     3  C    0.000000   0.000000   0.000000
     4  C    0.000000   0.000000   0.000000
     5  C    0.000000   0.000000   0.000000
     6  C    0.000000   0.000000   0.000000
     7  N    0.000000  -0.000001  -0.000004
     8  C    0.000001  -0.000112  -0.000039
     9  O    0.000000   0.000009  -0.000004
    10  C   -0.000091  -0.003619  -0.004530
    11  C    0.004232  -0.040255  -0.042656
    12  C   -0.000475   0.004571  -0.002386
    13  C    0.004351  -0.000241   0.000103
    14  O   -0.032511   0.002671   0.001432
    15  C    0.410183  -0.031491  -0.037950
    16  C   -0.042136   0.387661   0.387021
    17  I    0.000000   0.000000   0.000000
    18  H    0.000000   0.000000   0.000000
    19  H    0.000000   0.000000   0.000000
    20  H    0.000000   0.000000   0.000000
    21  H    0.000000   0.000000   0.000000
    22  H    0.000000   0.000000   0.000000
    23  H   -0.000003   0.002414   0.000125
    24  H    0.000002   0.000144   0.002031
    25  H   -0.000086  -0.002780   0.004074
    26  H   -0.000052  -0.000090   0.002818
    27  H    0.000014  -0.000052  -0.000085
    28  H   -0.000174   0.000017   0.000148
    29  H   -0.000084   0.000015  -0.000053
    30  H   -0.031975   0.000329   0.004832
    31  H    0.514632  -0.000720  -0.004293
    32  H   -0.000720   0.541478  -0.026750
    33  H   -0.004293  -0.026750   0.549480
 Mulliken charges:
               1
     1  C   -0.265457
     2  C   -0.128004
     3  C   -0.412308
     4  C   -0.130760
     5  C   -0.244551
     6  C    0.384622
     7  N   -0.953545
     8  C    0.834313
     9  O   -0.630487
    10  C   -0.437394
    11  C   -0.183575
    12  C   -0.344398
    13  C    0.016112
    14  O   -0.660776
    15  C    0.018489
    16  C   -0.335312
    17  I    0.181804
    18  H    0.205091
    19  H    0.228459
    20  H    0.230767
    21  H    0.291604
    22  H    0.403168
    23  H    0.213133
    24  H    0.174157
    25  H    0.204869
    26  H    0.162048
    27  H    0.187947
    28  H    0.150350
    29  H    0.180200
    30  H    0.146760
    31  H    0.179184
    32  H    0.166803
    33  H    0.166689
 Sum of Mulliken charges =   0.00000
 Mulliken charges with hydrogens summed into heavy atoms:
               1
     1  C   -0.060366
     2  C    0.100455
     3  C   -0.412308
     4  C    0.100007
     5  C    0.047053
     6  C    0.384622
     7  N   -0.550377
     8  C    0.834313
     9  O   -0.630487
    10  C   -0.050104
    11  C    0.021294
    12  C    0.005597
    13  C    0.346663
    14  O   -0.660776
    15  C    0.344433
    16  C   -0.001821
    17  I    0.181804
 DipInt: DoE/N= T F RetVal/Mat= T F Init=T NMatP=  1 IDeriv=0 Min/MaxMlt=  0  4
 Entering OneElI...
 OneElI was handed   235726513 working-precision words.
 Multipole integrals L=0 to 4 MinM= 0 MaxM= 0.
 Requested accuracy = 0.1000D-12
 PrtBox:  NBox=     1 Levels=  1 BoxLen=   45.18 SMaxX=       25.02
          Shift=           15.283738            4.400585            3.311603
 Box      1 Number                   0 centers from      1 to    100:
 ShPair: Thresh= 1.00D-13 NBox=     1 BxSize= 4.52D+01 RnKept= 2.34D+01
         NSMCal=                 5050 NSMKep=                3903
 PrsmSu:  NPrtUS=   1 ThrOK=F IAlg=1 NPAlg=1 LenDen=           0.
 Prism:   IPart=     0 DynPar=F LinDyn=F Incr=          39.
 PRISM was handed   235388064 working-precision words and  3903 shell-pairs
 IPart=  0 NShTot=        3903 NBatch=         117 AvBLen=        33.4
 PrSmSu:  NxtVal=             40.
 Electronic moments (au):
       -124.00000000        447.20605145        -26.89170106         -6.46740759
      -7879.72778903       -501.99933292       -355.47381009       -281.08818339
        -63.51067317          0.56090025      65161.14786813       -190.20513886
        -61.80736214       2231.42140932       3595.41188638       2344.69351571
       1249.53667633         59.26544249        297.38484297       1364.29628485
    -987785.88664556      -5177.56579402      -2605.96467555     -45076.70225192
     -26556.33864906      -3522.83369226       -171.93637467       -304.07791930
        133.20192118     -33270.93341146     -20503.07826522      -1659.79753616
     -10686.59146655      -1333.49144140      -1942.74094834
 Electronic spatial extent (au):  <R**2>=           8737.2009
 DipInt: DoE/N= F T RetVal/Mat= T F Init=T NMatP=  1 IDeriv=0 Min/MaxMlt=  0  4
 Nuclear    moments (au):
        124.00000000       -447.82616553         28.16889022          6.04198112
       7781.34349814        420.24182155        267.27662239        274.23404549
         58.82080639         -3.69989888     -64594.97210993        158.51472209
         50.19214235      -2098.23516803      -3536.68794847      -2252.98261572
      -1086.47297658        -64.21803074       -309.87989085      -1378.46974838
     950822.37425382       3371.78864654       1323.89710289      43695.39425762
      24957.51657524       3305.86458756        134.28128602        279.81841699
       -142.64344991      27317.10260051      14390.67789642       1198.75168014
      10542.89126109       1331.06843192       1842.35966572
 Total      moments (au):
          0.00000000         -0.62011408          1.27718916         -0.42542647
        -98.38429090        -81.75751137        -88.19718770         -6.85413790
         -4.68986677         -3.13899864        566.17575820        -31.69041677
        -11.61521978        133.18624130         58.72393791         91.71090000
        163.06369974         -4.95258825        -12.49504788        -14.17346354
     -36963.51239174      -1805.77714749      -1282.06757266      -1381.30799430
      -1598.82207382       -216.96910470        -37.65508865        -24.25950231
         -9.44152873      -5953.83081096      -6112.40036881       -461.04585602
       -143.70020546         -2.42300947       -100.38128262
 Traceless Quadrup. (au):
         -8.93796091          7.68881862          1.24914229         -6.85413790
         -4.68986677         -3.13899864
 Charge=              0.0000 electrons
 Dipole moment (field-independent basis, Debye):
    X=             -1.5762    Y=              3.2463    Z=             -1.0813  Tot=              3.7672
 Quadrupole moment (field-independent basis, Debye-Ang):
   XX=           -132.3302   YY=           -109.9666   ZZ=           -118.6282
   XY=             -9.2190   XZ=             -6.3080   YZ=             -4.2221
 Traceless Quadrupole moment (field-independent basis, Debye-Ang):
   XX=            -12.0219   YY=             10.3417   ZZ=              1.6801
   XY=             -9.2190   XZ=             -6.3080   YZ=             -4.2221
 Octapole moment (field-independent basis, Debye-Ang**2):
  XXX=            402.9821  YYY=            -22.5560  ZZZ=             -8.2673  XYY=             94.7968
  XXY=             41.7974  XXZ=             65.2763  XZZ=            116.0625  YZZ=             -3.5251
  YYZ=             -8.8935  XYZ=            -10.0881
 Hexadecapole moment (field-independent basis, Debye-Ang**3):
 XXXX=         -13922.2303 YYYY=           -680.1422 ZZZZ=           -482.8881 XXXY=           -520.2668
 XXXZ=           -602.1930 YYYX=            -81.7210 YYYZ=            -14.1827 ZZZX=             -9.1373
 ZZZY=             -3.5561 XXYY=          -2242.4980 XXZZ=          -2302.2229 YYZZ=           -173.6520
 XXYZ=            -54.1244 YYXZ=             -0.9126 ZZXY=            -37.8084
 N-N= 1.108702456514D+03 E-N=-3.888487414470D+03  KE= 7.081181877091D+02
 Entering OneElI...
 OneElI was handed   235773468 working-precision words.
 Calculate electrostatic properties
    NBasis =   264  MinDer = 0  MaxDer = 0
    NGrid  =    33  NMatD  =   1
 Requested accuracy = 0.1000D-12
 PrtBox:  NBox=     1 Levels=  1 BoxLen=   37.65 SMaxX=       25.02
          Shift=           15.283738            4.400585            3.311603
 Box      1 Number                   0 centers from      1 to    100:
 ShPair: Thresh= 1.00D-13 NBox=     1 BxSize= 3.77D+01 RnKept= 2.12D+01
         NSMCal=                 5050 NSMKep=                3438
 PrsmSu:  NPrtUS=   1 ThrOK=F IAlg=1 NPAlg=1 LenDen=           0.
 Prism:   IPart=     0 DynPar=F LinDyn=F Incr=         512.
 PRISM was handed   235470161 working-precision words and  3438 shell-pairs
 IPart=  0 NShTot=      113454 NBatch=        3522 AvBLen=        32.2
 PrSmSu:  NxtVal=            513.
 --------------------------------------------------------
       Center         ----      EFG at Nuclei      ----
                      3XX-RR        3YY-RR        3ZZ-RR
 --------------------------------------------------------
     1   Atom        0.139337     -0.058676     -0.080661
     2   Atom        0.173160     -0.067271     -0.105889
     3   Atom       -0.279655      0.141027      0.138627
     4   Atom        0.180010     -0.065985     -0.114025
     5   Atom        0.155277     -0.067918     -0.087360
     6   Atom       -0.083361      0.059098      0.024263
     7   Atom       -0.468597      0.166433      0.302165
     8   Atom        0.219079     -0.038398     -0.180680
     9   Atom        1.638344     -0.868213     -0.770131
    10   Atom       -0.024299      0.010333      0.013966
    11   Atom       -0.045657     -0.009519      0.055176
    12   Atom        0.012707      0.002221     -0.014928
    13   Atom       -0.184070     -0.005017      0.189087
    14   Atom       -0.165830      0.136783      0.029048
    15   Atom        0.162038     -0.012806     -0.149233
    16   Atom        0.004646     -0.013279      0.008633
    17   Atom       -0.081442      0.037805      0.043638
    18   Atom        0.077920     -0.079039      0.001119
    19   Atom       -0.022605      0.030630     -0.008025
    20   Atom        0.086364     -0.082746     -0.003618
    21   Atom       -0.014622      0.025790     -0.011168
    22   Atom        0.124535     -0.109929     -0.014607
    23   Atom        0.128906     -0.045951     -0.082955
    24   Atom        0.131732      0.038648     -0.170380
    25   Atom        0.140744      0.022698     -0.163442
    26   Atom        0.146546      0.030628     -0.177175
    27   Atom       -0.150164      0.002203      0.147961
    28   Atom        0.132857     -0.002849     -0.130008
    29   Atom        0.139463     -0.003891     -0.135573
    30   Atom        0.142189      0.010664     -0.152853
    31   Atom       -0.187344      0.048463      0.138881
    32   Atom        0.134776      0.008270     -0.143047
    33   Atom        0.138679     -0.013648     -0.125031
 --------------------------------------------------------
                        XY            XZ            YZ
 --------------------------------------------------------
     1   Atom       -0.030185     -0.043971     -0.136539
     2   Atom       -0.047519     -0.059613     -0.233835
     3   Atom        0.096241     -0.040175     -0.189464
     4   Atom       -0.069833     -0.043803     -0.245241
     5   Atom       -0.003103     -0.088075     -0.205204
     6   Atom        0.025143     -0.061007     -0.304148
     7   Atom        0.160183      0.151556      0.678966
     8   Atom       -0.187368      0.000820     -0.412402
     9   Atom       -0.123588     -0.420408      0.114760
    10   Atom        0.056452     -0.022780      0.021606
    11   Atom       -0.051800      0.005421     -0.022798
    12   Atom       -0.005980      0.017563     -0.007862
    13   Atom        0.229895     -0.004499      0.019137
    14   Atom        1.392944      0.000699     -1.260379
    15   Atom        0.020277      0.066975     -0.234752
    16   Atom        0.012634      0.009337     -0.003131
    17   Atom        0.026587      0.001541      0.001221
    18   Atom        0.119026     -0.089963      0.206293
    19   Atom       -0.139421      0.166573      0.153164
    20   Atom        0.117174     -0.091539      0.204482
    21   Atom       -0.137373      0.162126      0.152690
    22   Atom        0.100503     -0.067004      0.298253
    23   Atom        0.040267      0.040960     -0.212260
    24   Atom       -0.006264      0.010912      0.193939
    25   Atom        0.005898     -0.017210      0.186604
    26   Atom       -0.014040      0.017031      0.186251
    27   Atom        0.198438     -0.024370      0.013034
    28   Atom        0.003875      0.005497      0.195901
    29   Atom        0.004841     -0.001088     -0.209636
    30   Atom       -0.007344      0.015343      0.183024
    31   Atom        0.180602     -0.040459      0.014236
    32   Atom        0.026105      0.040375     -0.203009
    33   Atom        0.009821     -0.012147      0.210600
 --------------------------------------------------------


 ---------------------------------------------------------------------------------
              Nuclear Quadrupole Coupling Constant in Principal Axis System
 ---------------------------------------------------------------------------------

       Atom             a.u.   MegaHertz   Gauss  10(-4) cm-1        Axes

              Baa    -0.5074     2.437     0.870     0.813  0.9507 -0.3010  0.0745
     7 N(14)  Bbb    -0.4433     2.129     0.760     0.710  0.2697  0.6840 -0.6778
              Bcc     0.9507    -4.566    -1.629    -1.523  0.1531  0.6645  0.7314
 
              Baa    -0.0871   -14.533    -5.186    -4.848  0.9781 -0.2081 -0.0096
    17 I(127) Bbb     0.0420     7.013     2.502     2.339  0.1452  0.7139 -0.6851
              Bcc     0.0451     7.520     2.683     2.508  0.1494  0.6687  0.7284
 

 ---------------------------------------------------------------------------------

 No NMR shielding tensors so no spin-rotation constants.
 Leave Link  601 at Fri Jan 17 11:58:24 2014, MaxMem=   235929600 cpu:         0.4
 FitSet:  NAtFit=    33 NAtPot=    33 NAtFrz=     0 MDM=    37 TotChg=   0.00000
 Merz-Kollman atomic radii used.
 Read replacement radii for each type of atom:
 Rad(53) =   2.700000000000D+00
 Atom Element Radius
    1     6    1.50
    2     6    1.50
    3     6    1.50
    4     6    1.50
    5     6    1.50
    6     6    1.50
    7     7    1.50
    8     6    1.50
    9     8    1.40
   10     6    1.50
   11     6    1.50
   12     6    1.50
   13     6    1.50
   14     8    1.40
   15     6    1.50
   16     6    1.50
   17    53    2.70
   18     1    1.20
   19     1    1.20
   20     1    1.20
   21     1    1.20
   22     1    1.20
   23     1    1.20
   24     1    1.20
   25     1    1.20
   26     1    1.20
   27     1    1.20
   28     1    1.20
   29     1    1.20
   30     1    1.20
   31     1    1.20
   32     1    1.20
   33     1    1.20
 Generate VDW surfaces: Layer= 5 Dens= 2 Start= 1.400 Inc= 0.179

 **********************************************************************

            Electrostatic Properties Using The SCF Density

 **********************************************************************

       Atomic Center    1 is at   1.195157  1.416964 -0.857150
       Atomic Center    2 is at   2.557918  1.132111 -0.874242
       Atomic Center    3 is at   3.054373  0.123319 -0.050166
       Atomic Center    4 is at   2.198123 -0.593125  0.783145
       Atomic Center    5 is at   0.831700 -0.309259  0.801221
       Atomic Center    6 is at   0.319250  0.703647 -0.023960
       Atomic Center    7 is at  -1.046152  1.052735 -0.067781
       Atomic Center    8 is at  -2.102760  0.520040  0.641652
       Atomic Center    9 is at  -1.991070 -0.402782  1.437701
       Atomic Center   10 is at  -3.445276  1.202675  0.374735
       Atomic Center   11 is at  -4.618816  0.211869  0.371617
       Atomic Center   12 is at  -4.548324 -0.781168 -0.803330
       Atomic Center   13 is at  -5.788597 -1.679053 -0.825045
       Atomic Center   14 is at  -6.989196 -0.920300 -0.880124
       Atomic Center   15 is at  -7.126169 -0.067197  0.246684
       Atomic Center   16 is at  -5.974708  0.939377  0.341446
       Atomic Center   17 is at   5.151726 -0.324051 -0.069506
       Atomic Center   18 is at   0.810047  2.204730 -1.501792
       Atomic Center   19 is at   3.216816  1.695421 -1.525692
       Atomic Center   20 is at   2.582301 -1.377606  1.426061
       Atomic Center   21 is at   0.162434 -0.862485  1.444772
       Atomic Center   22 is at  -1.273122  1.806003 -0.702665
       Atomic Center   23 is at  -3.594267  1.938994  1.178087
       Atomic Center   24 is at  -3.424096  1.767826 -0.567494
       Atomic Center   25 is at  -4.551868 -0.365214  1.303932
       Atomic Center   26 is at  -4.497357 -0.228256 -1.752425
       Atomic Center   27 is at  -3.646192 -1.400984 -0.729428
       Atomic Center   28 is at  -5.795692 -2.328689  0.068148
       Atomic Center   29 is at  -5.796171 -2.322968 -1.709835
       Atomic Center   30 is at  -7.172180 -0.669865  1.171414
       Atomic Center   31 is at  -8.087806  0.441732  0.128013
       Atomic Center   32 is at  -6.101142  1.562897  1.237211
       Atomic Center   33 is at  -6.019231  1.607461 -0.530270
      ESP Fit Center   34 is at   1.554278  2.038980  1.116204
      ESP Fit Center   35 is at   1.755907  2.644835  0.751543
      ESP Fit Center   36 is at   1.003053  2.753079  0.751543
      ESP Fit Center   37 is at   1.757152  3.146606  0.192850
      ESP Fit Center   38 is at   1.005056  3.225655  0.192850
      ESP Fit Center   39 is at   0.285830  2.991964  0.192850
      ESP Fit Center   40 is at   2.116987  3.268248 -0.492489
      ESP Fit Center   41 is at   1.385977  3.476238 -0.492489
      ESP Fit Center   42 is at   2.116987  3.268248 -1.221811
      ESP Fit Center   43 is at   1.005056 -0.391726 -1.907150
      ESP Fit Center   44 is at  -0.100018  1.036666 -2.465843
      ESP Fit Center   45 is at   0.311191  0.396813 -2.465843
      ESP Fit Center   46 is at   1.003053  0.080850 -2.465843
      ESP Fit Center   47 is at   0.836036  0.794948 -2.830505
      ESP Fit Center   48 is at   1.554278  0.794948 -2.830505
      ESP Fit Center   49 is at   1.195157  1.416964 -2.957150
      ESP Fit Center   50 is at   2.198797  1.754127  1.099112
      ESP Fit Center   51 is at   2.365814  2.468226  0.734451
      ESP Fit Center   52 is at   3.119913  2.861753  0.175758
      ESP Fit Center   53 is at   2.367817  2.940802  0.175758
      ESP Fit Center   54 is at   2.748738  3.191385 -0.509581
      ESP Fit Center   55 is at   1.648591 -0.442889 -1.924242
      ESP Fit Center   56 is at   1.673952  0.111960 -2.482935
      ESP Fit Center   57 is at   1.839676  1.132111 -2.847597
      ESP Fit Center   58 is at   2.198797  0.510095 -2.847597
      ESP Fit Center   59 is at   2.557918  1.132111 -2.974242
      ESP Fit Center   60 is at   2.198123 -0.593125  2.883145
      ESP Fit Center   61 is at   2.557244  0.028891  2.756499
      ESP Fit Center   62 is at   1.839002  0.028891  2.756499
      ESP Fit Center   63 is at   2.006019  0.742990  2.391838
      ESP Fit Center   64 is at   2.008022  1.215566  1.833145
      ESP Fit Center   65 is at   1.632162 -2.582273  0.418484
      ESP Fit Center   66 is at   1.288796 -2.168125 -0.266855
      ESP Fit Center   67 is at   1.314157 -1.613276 -0.825548
      ESP Fit Center   68 is at   0.831700 -0.309259  2.901221
      ESP Fit Center   69 is at   1.549942 -0.309259  2.774575
      ESP Fit Center   70 is at   1.190821  0.312757  2.774575
      ESP Fit Center   71 is at   0.472579  0.312757  2.774575
      ESP Fit Center   72 is at   1.190821 -0.931275  2.774575
      ESP Fit Center   73 is at   1.392450  0.918611  2.409914
      ESP Fit Center   74 is at   0.639596  1.026856  2.409914
      ESP Fit Center   75 is at  -0.052266  0.710893  2.409914
      ESP Fit Center   76 is at   1.393695  1.420383  1.851221
      ESP Fit Center   77 is at   1.022520 -2.368533  1.165882
      ESP Fit Center   78 is at   0.265739 -2.298407  0.436560
      ESP Fit Center   79 is at   1.022520 -2.368533  0.436560
      ESP Fit Center   80 is at  -0.639621 -1.378236 -0.248779
      ESP Fit Center   81 is at  -0.077627 -1.884259 -0.248779
      ESP Fit Center   82 is at   0.641599 -2.117949 -0.248779
      ESP Fit Center   83 is at  -0.052266 -1.329410 -0.807472
      ESP Fit Center   84 is at   0.639596 -1.645373 -0.807472
      ESP Fit Center   85 is at   1.190821 -0.931275 -1.172134
      ESP Fit Center   86 is at  -0.039871  1.325663  1.949394
      ESP Fit Center   87 is at   0.880000  1.931517  1.584733
      ESP Fit Center   88 is at   0.127146  2.039762  1.584733
      ESP Fit Center   89 is at   0.881245  2.433289  1.026040
      ESP Fit Center   90 is at   0.129149  2.512338  1.026040
      ESP Fit Center   91 is at  -0.590077 -0.871353 -1.073960
      ESP Fit Center   92 is at   0.129149 -1.105043 -1.073960
      ESP Fit Center   93 is at  -0.564716 -0.316504 -1.632653
      ESP Fit Center   94 is at   0.127146 -0.632467 -1.632653
      ESP Fit Center   95 is at   0.880000 -0.524223 -1.632653
      ESP Fit Center   96 is at  -0.039871  0.081631 -1.997315
      ESP Fit Center   97 is at  -0.687031  1.674751  1.905573
      ESP Fit Center   98 is at  -0.485402  2.280605  1.540912
      ESP Fit Center   99 is at  -1.238256  2.388849  1.540912
      ESP Fit Center  100 is at  -0.484157  2.782377  0.982219
      ESP Fit Center  101 is at  -1.236253  2.861426  0.982219
      ESP Fit Center  102 is at  -1.955479  2.627735  0.982219
      ESP Fit Center  103 is at  -0.124322  2.904019  0.296880
      ESP Fit Center  104 is at  -0.855332  3.112009  0.296880
      ESP Fit Center  105 is at  -0.855332 -1.006539 -0.432442
      ESP Fit Center  106 is at  -1.236253 -0.755956 -1.117781
      ESP Fit Center  107 is at  -2.341327  0.672437 -1.676474
      ESP Fit Center  108 is at  -1.930118  0.032583 -1.676474
      ESP Fit Center  109 is at  -1.238256 -0.283379 -1.676474
      ESP Fit Center  110 is at  -1.405273  0.430719 -2.041136
      ESP Fit Center  111 is at  -0.687031  0.430719 -2.041136
      ESP Fit Center  112 is at  -2.461881  1.142056  2.615006
      ESP Fit Center  113 is at  -0.967191  1.249826  2.250345
      ESP Fit Center  114 is at  -1.542010  1.747910  2.250345
      ESP Fit Center  115 is at  -2.294864  1.856154  2.250345
      ESP Fit Center  116 is at  -1.540765  2.249682  1.691652
      ESP Fit Center  117 is at  -1.540765 -1.209602 -0.408348
      ESP Fit Center  118 is at  -2.461881 -0.101976 -1.331703
      ESP Fit Center  119 is at  -1.991070 -0.402782  3.397701
      ESP Fit Center  120 is at  -1.241010 -0.402782  3.248505
      ESP Fit Center  121 is at  -1.616040  0.246789  3.248505
      ESP Fit Center  122 is at  -2.366100  0.246789  3.248505
      ESP Fit Center  123 is at  -2.741129 -0.402782  3.248505
      ESP Fit Center  124 is at  -2.366100 -1.052353  3.248505
      ESP Fit Center  125 is at  -1.616040 -1.052353  3.248505
      ESP Fit Center  126 is at  -0.790820  0.290183  2.823630
      ESP Fit Center  127 is at  -1.298105  0.797468  2.823630
      ESP Fit Center  128 is at  -1.991070  0.983147  2.823630
      ESP Fit Center  129 is at  -2.684035  0.797468  2.823630
      ESP Fit Center  130 is at  -3.191320  0.290183  2.823630
      ESP Fit Center  131 is at  -3.376999 -0.402782  2.823630
      ESP Fit Center  132 is at  -3.191320 -1.095747  2.823630
      ESP Fit Center  133 is at  -2.684035 -1.603032  2.823630
      ESP Fit Center  134 is at  -1.991070 -1.788711  2.823630
      ESP Fit Center  135 is at  -1.298105 -1.603032  2.823630
      ESP Fit Center  136 is at  -0.790820 -1.095747  2.823630
      ESP Fit Center  137 is at  -3.456041 -1.467146  2.187760
      ESP Fit Center  138 is at  -2.896472 -1.970984  2.187760
      ESP Fit Center  139 is at  -2.180350 -2.203666  2.187760
      ESP Fit Center  140 is at  -1.431501 -2.124959  2.187760
      ESP Fit Center  141 is at  -3.172234 -1.966896  1.437701
      ESP Fit Center  142 is at  -2.527449 -2.287960  1.437701
      ESP Fit Center  143 is at  -1.810224 -2.354421  1.437701
      ESP Fit Center  144 is at  -1.117423 -2.157302  1.437701
      ESP Fit Center  145 is at  -2.896472 -1.970984  0.687641
      ESP Fit Center  146 is at  -2.180350 -2.203666  0.687641
      ESP Fit Center  147 is at  -1.431501 -2.124959  0.687641
      ESP Fit Center  148 is at  -1.991070 -1.788711  0.051772
      ESP Fit Center  149 is at  -1.298105 -1.603032  0.051772
      ESP Fit Center  150 is at  -4.691582  2.853051  0.010074
      ESP Fit Center  151 is at  -3.987574 -2.009038  0.805363
      ESP Fit Center  152 is at  -3.987574 -2.009038 -2.412023
      ESP Fit Center  153 is at  -3.412754 -1.510954 -2.412023
      ESP Fit Center  154 is at  -7.546928 -2.767765 -0.460384
      ESP Fit Center  155 is at  -4.260255 -3.072321 -0.460384
      ESP Fit Center  156 is at  -4.260255 -3.072321 -1.189706
      ESP Fit Center  157 is at  -6.147718 -1.057037 -2.798400
      ESP Fit Center  158 is at  -8.454167 -1.984664 -0.130065
      ESP Fit Center  159 is at  -7.894598 -2.488502 -0.130065
      ESP Fit Center  160 is at  -8.915823 -1.280449 -0.880124
      ESP Fit Center  161 is at  -8.655621 -1.952107 -0.880124
      ESP Fit Center  162 is at  -8.170360 -2.484414 -0.880124
      ESP Fit Center  163 is at  -7.178476  0.880584 -1.630184
      ESP Fit Center  164 is at  -7.894598  0.647902 -1.630184
      ESP Fit Center  165 is at  -8.454167  0.144064 -1.630184
      ESP Fit Center  166 is at  -8.760429 -0.543813 -1.630184
      ESP Fit Center  167 is at  -8.760429 -1.296787 -1.630184
      ESP Fit Center  168 is at  -8.454167 -1.984664 -1.630184
      ESP Fit Center  169 is at  -7.894598 -2.488502 -1.630184
      ESP Fit Center  170 is at  -6.296231  0.279950 -2.266053
      ESP Fit Center  171 is at  -6.989196  0.465629 -2.266053
      ESP Fit Center  172 is at  -7.682161  0.279950 -2.266053
      ESP Fit Center  173 is at  -8.189446 -0.227335 -2.266053
      ESP Fit Center  174 is at  -8.375125 -0.920300 -2.266053
      ESP Fit Center  175 is at  -8.189446 -1.613265 -2.266053
      ESP Fit Center  176 is at  -7.682161 -2.120550 -2.266053
      ESP Fit Center  177 is at  -6.614166 -0.270729 -2.690928
      ESP Fit Center  178 is at  -7.364226 -0.270729 -2.690928
      ESP Fit Center  179 is at  -7.739255 -0.920300 -2.690928
      ESP Fit Center  180 is at  -7.364226 -1.569871 -2.690928
      ESP Fit Center  181 is at  -6.989196 -0.920300 -2.840124
      ESP Fit Center  182 is at  -8.010135  0.952954  1.855377
      ESP Fit Center  183 is at  -8.421344  0.313101  1.855377
      ESP Fit Center  184 is at  -8.884500 -1.155910  0.611345
      ESP Fit Center  185 is at  -8.372475 -1.717574  0.611345
      ESP Fit Center  186 is at  -8.884500 -1.155910 -0.117977
      ESP Fit Center  187 is at  -5.052878  2.790661  0.706107
      ESP Fit Center  188 is at  -7.733039  2.028089  0.706107
      ESP Fit Center  189 is at   5.151726 -0.324051  3.710494
      ESP Fit Center  190 is at   5.889168 -0.324051  3.637862
      ESP Fit Center  191 is at   5.520447  0.314592  3.637862
      ESP Fit Center  192 is at   4.783005  0.314592  3.637862
      ESP Fit Center  193 is at   4.414285 -0.324051  3.637862
      ESP Fit Center  194 is at   4.783005 -0.962694  3.637862
      ESP Fit Center  195 is at   5.520447 -0.962694  3.637862
      ESP Fit Center  196 is at   6.598269 -0.324051  3.422759
      ESP Fit Center  197 is at   6.404469  0.399221  3.422759
      ESP Fit Center  198 is at   5.874998  0.928693  3.422759
      ESP Fit Center  199 is at   5.151726  1.122493  3.422759
      ESP Fit Center  200 is at   4.428454  0.928693  3.422759
      ESP Fit Center  201 is at   3.898983  0.399221  3.422759
      ESP Fit Center  202 is at   3.705183 -0.324051  3.422759
      ESP Fit Center  203 is at   3.898983 -1.047322  3.422759
      ESP Fit Center  204 is at   4.428454 -1.576794  3.422759
      ESP Fit Center  205 is at   5.151726 -1.770594  3.422759
      ESP Fit Center  206 is at   5.874998 -1.576794  3.422759
      ESP Fit Center  207 is at   6.404469 -1.047322  3.422759
      ESP Fit Center  208 is at   7.251782 -0.324051  3.073449
      ESP Fit Center  209 is at   7.125133  0.394211  3.073449
      ESP Fit Center  210 is at   6.760462  1.025839  3.073449
      ESP Fit Center  211 is at   6.201754  1.494651  3.073449
      ESP Fit Center  212 is at   5.516397  1.744100  3.073449
      ESP Fit Center  213 is at   4.787055  1.744100  3.073449
      ESP Fit Center  214 is at   4.101698  1.494651  3.073449
      ESP Fit Center  215 is at   3.542990  1.025839  3.073449
      ESP Fit Center  216 is at   3.178319  0.394211  3.073449
      ESP Fit Center  217 is at   3.051671 -0.324051  3.073449
      ESP Fit Center  218 is at   3.178319 -1.042312  3.073449
      ESP Fit Center  219 is at   3.542990 -1.673940  3.073449
      ESP Fit Center  220 is at   4.101698 -2.142752  3.073449
      ESP Fit Center  221 is at   4.787055 -2.392202  3.073449
      ESP Fit Center  222 is at   5.516397 -2.392202  3.073449
      ESP Fit Center  223 is at   6.201754 -2.142752  3.073449
      ESP Fit Center  224 is at   6.760462 -1.673940  3.073449
      ESP Fit Center  225 is at   7.125133 -1.042312  3.073449
      ESP Fit Center  226 is at   7.824590 -0.324051  2.603358
      ESP Fit Center  227 is at   7.725473  0.397079  2.603358
      ESP Fit Center  228 is at   7.435473  1.064726  2.603358
      ESP Fit Center  229 is at   6.976098  1.629374  2.603358
      ESP Fit Center  230 is at   6.381417  2.049145  2.603358
      ESP Fit Center  231 is at   5.695536  2.292907  2.603358
      ESP Fit Center  232 is at   4.969323  2.342582  2.603358
      ESP Fit Center  233 is at   4.256639  2.194484  2.603358
      ESP Fit Center  234 is at   3.610338  1.859598  2.603358
      ESP Fit Center  235 is at   3.078356  1.362761  2.603358
      ESP Fit Center  236 is at   2.700145  0.740821  2.603358
      ESP Fit Center  237 is at   3.610338 -2.507700  2.603358
      ESP Fit Center  238 is at   4.256639 -2.842586  2.603358
      ESP Fit Center  239 is at   4.969323 -2.990683  2.603358
      ESP Fit Center  240 is at   5.695536 -2.941009  2.603358
      ESP Fit Center  241 is at   6.381417 -2.697247  2.603358
      ESP Fit Center  242 is at   6.976098 -2.277476  2.603358
      ESP Fit Center  243 is at   7.435473 -1.712828  2.603358
      ESP Fit Center  244 is at   7.725473 -1.045181  2.603358
      ESP Fit Center  245 is at   8.294681 -0.324051  2.030549
      ESP Fit Center  246 is at   8.209962  0.400765  2.030549
      ESP Fit Center  247 is at   7.960373  1.086505  2.030549
      ESP Fit Center  248 is at   7.559369  1.696202  2.030549
      ESP Fit Center  249 is at   7.028569  2.196986  2.030549
      ESP Fit Center  250 is at   6.396587  2.561861  2.030549
      ESP Fit Center  251 is at   5.697495  2.771156  2.030549
      ESP Fit Center  252 is at   4.968980  2.813587  2.030549
      ESP Fit Center  253 is at   4.250316  2.686867  2.030549
      ESP Fit Center  254 is at   3.580249  2.397828  2.030549
      ESP Fit Center  255 is at   2.994899  1.962052  2.030549
      ESP Fit Center  256 is at   2.525825  1.403031  2.030549
      ESP Fit Center  257 is at   3.580249 -3.045930  2.030549
      ESP Fit Center  258 is at   4.250316 -3.334969  2.030549
      ESP Fit Center  259 is at   4.968980 -3.461689  2.030549
      ESP Fit Center  260 is at   5.697495 -3.419257  2.030549
      ESP Fit Center  261 is at   6.396587 -3.209963  2.030549
      ESP Fit Center  262 is at   7.028569 -2.845088  2.030549
      ESP Fit Center  263 is at   7.559369 -2.344303  2.030549
      ESP Fit Center  264 is at   7.960373 -1.734606  2.030549
      ESP Fit Center  265 is at   8.209962 -1.048866  2.030549
      ESP Fit Center  266 is at   8.643991 -0.324051  1.377037
      ESP Fit Center  267 is at   8.567676  0.402032  1.377037
      ESP Fit Center  268 is at   8.342069  1.096381  1.377037
      ESP Fit Center  269 is at   7.977028  1.728651  1.377037
      ESP Fit Center  270 is at   7.488507  2.271208  1.377037
      ESP Fit Center  271 is at   6.897858  2.700339  1.377037
      ESP Fit Center  272 is at   6.230895  2.997290  1.377037
      ESP Fit Center  273 is at   5.516767  3.149083  1.377037
      ESP Fit Center  274 is at   4.786685  3.149083  1.377037
      ESP Fit Center  275 is at   4.072557  2.997290  1.377037
      ESP Fit Center  276 is at   3.405594  2.700339  1.377037
      ESP Fit Center  277 is at   2.814945  2.271208  1.377037
      ESP Fit Center  278 is at   2.326425  1.728651  1.377037
      ESP Fit Center  279 is at   3.405594 -3.348441  1.377037
      ESP Fit Center  280 is at   4.072557 -3.645392  1.377037
      ESP Fit Center  281 is at   4.786685 -3.797184  1.377037
      ESP Fit Center  282 is at   5.516767 -3.797184  1.377037
      ESP Fit Center  283 is at   6.230895 -3.645392  1.377037
      ESP Fit Center  284 is at   6.897858 -3.348441  1.377037
      ESP Fit Center  285 is at   7.488507 -2.919309  1.377037
      ESP Fit Center  286 is at   7.977028 -2.376752  1.377037
      ESP Fit Center  287 is at   8.342069 -1.744483  1.377037
[...]
 4302 Fit      -0.002380
 4303 Fit      -0.002237
 4304 Fit      -0.002173
 4305 Fit      -0.002083
 4306 Fit      -0.002140
 4307 Fit      -0.002242
 4308 Fit      -0.002363
 4309 Fit      -0.002474
 4310 Fit      -0.002540
 4311 Fit      -0.002529
 4312 Fit      -0.002406
 4313 Fit      -0.002143
 4314 Fit      -0.001715
 4315 Fit      -0.001102
 4316 Fit      -0.000294
 4317 Fit       0.000712
 4318 Fit       0.001910
 4319 Fit       0.003287
 4320 Fit       0.004835
 4321 Fit       0.006584
 4322 Fit      -0.007576
 4323 Fit      -0.006001
 4324 Fit      -0.005116
 4325 Fit      -0.004701
 4326 Fit      -0.004573
 4327 Fit      -0.004591
 4328 Fit      -0.004656
 4329 Fit      -0.004701
 4330 Fit      -0.004687
 4331 Fit      -0.004594
 4332 Fit      -0.004419
 4333 Fit      -0.004170
 4334 Fit      -0.003864
 4335 Fit      -0.003524
 4336 Fit      -0.003176
 4337 Fit      -0.002846
 4338 Fit      -0.002556
 4339 Fit      -0.002326
 4340 Fit      -0.002169
 4341 Fit      -0.002089
 4342 Fit      -0.002054
 4343 Fit      -0.002086
 4344 Fit      -0.002157
 4345 Fit      -0.002243
 4346 Fit      -0.002311
 4347 Fit      -0.002330
 4348 Fit      -0.002263
 4349 Fit      -0.002076
 4350 Fit      -0.001735
 4351 Fit      -0.001211
 4352 Fit      -0.000475
 4353 Fit       0.000494
 4354 Fit       0.001715
 4355 Fit       0.003207
 4356 Fit       0.004990
 4357 Fit       0.007117
 4358 Fit       0.009751
 4359 Fit      -0.008419
 4360 Fit      -0.007100
 4361 Fit      -0.006069
 4362 Fit      -0.005409
 4363 Fit      -0.005056
 4364 Fit      -0.004911
 4365 Fit      -0.004881
 4366 Fit      -0.004891
 4367 Fit      -0.004884
 4368 Fit      -0.004827
 4369 Fit      -0.004701
 4370 Fit      -0.004501
 4371 Fit      -0.004235
 4372 Fit      -0.003918
 4373 Fit      -0.003570
 4374 Fit      -0.003216
 4375 Fit      -0.002880
 4376 Fit      -0.002584
 4377 Fit      -0.002346
 4378 Fit      -0.002176
 4379 Fit      -0.002080
 4380 Fit      -0.002089
 4381 Fit      -0.002091
 4382 Fit      -0.002127
 4383 Fit      -0.002168
 4384 Fit      -0.002180
 4385 Fit      -0.002126
 4386 Fit      -0.001964
 4387 Fit      -0.001654
 4388 Fit      -0.001157
 4389 Fit      -0.000433
 4390 Fit       0.000554
 4391 Fit       0.001842
 4392 Fit       0.003471
 4393 Fit       0.005490
 4394 Fit       0.007972
 4395 Fit       0.011094
 4396 Fit      -0.006944
 4397 Fit      -0.006731
 4398 Fit      -0.006206
 4399 Fit      -0.005703
 4400 Fit      -0.005351
 4401 Fit      -0.005156
 4402 Fit      -0.005074
 4403 Fit      -0.005048
 4404 Fit      -0.005027
 4405 Fit      -0.004969
 4406 Fit      -0.004851
 4407 Fit      -0.004662
 4408 Fit      -0.004405
 4409 Fit      -0.004092
 4410 Fit      -0.003743
 4411 Fit      -0.003380
 4412 Fit      -0.003031
 4413 Fit      -0.002716
 4414 Fit      -0.002456
 4415 Fit      -0.002263
 4416 Fit      -0.002142
 4417 Fit      -0.002176
 4418 Fit      -0.002140
 4419 Fit      -0.002130
 4420 Fit      -0.002113
 4421 Fit      -0.002054
 4422 Fit      -0.001910
 4423 Fit      -0.001635
 4424 Fit      -0.001186
 4425 Fit      -0.000514
 4426 Fit       0.000426
 4427 Fit       0.001684
 4428 Fit       0.003312
 4429 Fit       0.005368
 4430 Fit       0.007921
 4431 Fit       0.011078
 4432 Fit       0.015096
 4433 Fit      -0.004412
 4434 Fit      -0.005257
 4435 Fit      -0.005514
 4436 Fit      -0.005464
 4437 Fit      -0.005324
 4438 Fit      -0.005206
 4439 Fit      -0.005142
 4440 Fit      -0.005117
 4441 Fit      -0.005098
 4442 Fit      -0.005052
 4443 Fit      -0.004953
 4444 Fit      -0.004787
 4445 Fit      -0.004553
 4446 Fit      -0.004260
 4447 Fit      -0.003923
 4448 Fit      -0.003567
 4449 Fit      -0.003216
 4450 Fit      -0.002893
 4451 Fit      -0.002619
 4452 Fit      -0.002406
 4453 Fit      -0.002260
 4454 Fit      -0.002293
 4455 Fit      -0.002212
 4456 Fit      -0.002145
 4457 Fit      -0.002056
 4458 Fit      -0.001902
 4459 Fit      -0.001636
 4460 Fit      -0.001206
 4461 Fit      -0.000559
 4462 Fit       0.000359
 4463 Fit       0.001604
 4464 Fit       0.003235
 4465 Fit       0.005307
 4466 Fit       0.007867
 4467 Fit       0.010936
 4468 Fit       0.014508
 4469 Fit      -0.002427
 4470 Fit      -0.003754
 4471 Fit      -0.004469
 4472 Fit      -0.004804
 4473 Fit      -0.004941
 4474 Fit      -0.004999
 4475 Fit      -0.005035
 4476 Fit      -0.005059
 4477 Fit      -0.005055
 4478 Fit      -0.005004
 4479 Fit      -0.004888
 4480 Fit      -0.004702
 4481 Fit      -0.004447
 4482 Fit      -0.004140
 4483 Fit      -0.003799
 4484 Fit      -0.003451
 4485 Fit      -0.003120
 4486 Fit      -0.002829
 4487 Fit      -0.002592
 4488 Fit      -0.002415
 4489 Fit      -0.002418
 4490 Fit      -0.002281
 4491 Fit      -0.002142
 4492 Fit      -0.001957
 4493 Fit      -0.001675
 4494 Fit      -0.001239
 4495 Fit      -0.000588
 4496 Fit       0.000340
 4497 Fit       0.001605
 4498 Fit       0.003262
 4499 Fit       0.005345
 4500 Fit       0.007840
 4501 Fit       0.010621
 4502 Fit       0.013377
 4503 Fit       0.015510
 4504 Fit       0.000496
 4505 Fit      -0.001671
 4506 Fit      -0.003029
 4507 Fit      -0.003850
 4508 Fit      -0.004328
 4509 Fit      -0.004608
 4510 Fit      -0.004778
 4511 Fit      -0.004880
 4512 Fit      -0.004922
 4513 Fit      -0.004895
 4514 Fit      -0.004791
 4515 Fit      -0.004608
 4516 Fit      -0.004353
 4517 Fit      -0.004046
 4518 Fit      -0.003711
 4519 Fit      -0.003375
 4520 Fit      -0.003065
 4521 Fit      -0.002799
 4522 Fit      -0.002585
 4523 Fit      -0.002525
 4524 Fit      -0.002323
 4525 Fit      -0.002096
 4526 Fit      -0.001795
 4527 Fit      -0.001360
 4528 Fit      -0.000726
 4529 Fit       0.000173
 4530 Fit       0.001392
 4531 Fit       0.002969
 4532 Fit       0.004896
 4533 Fit       0.007065
 4534 Fit       0.009194
 4535 Fit       0.010771
 4536 Fit       0.011115
 4537 Fit       0.009693
 4538 Fit       0.006774
 4539 Fit       0.003483
 4540 Fit       0.000737
 4541 Fit      -0.001241
 4542 Fit      -0.002575
 4543 Fit      -0.003444
 4544 Fit      -0.003999
 4545 Fit      -0.004352
 4546 Fit      -0.004570
 4547 Fit      -0.004684
 4548 Fit      -0.004701
 4549 Fit      -0.004623
 4550 Fit      -0.004454
 4551 Fit      -0.004211
 4552 Fit      -0.003914
 4553 Fit      -0.003594
 4554 Fit      -0.003279
 4555 Fit      -0.002991
 4556 Fit      -0.002741
 4557 Fit      -0.002588
 4558 Fit      -0.002303
 4559 Fit      -0.001962
 4560 Fit      -0.001503
 4561 Fit      -0.000854
 4562 Fit       0.000053
 4563 Fit       0.001267
 4564 Fit       0.002787
 4565 Fit       0.004521
 4566 Fit       0.006207
 4567 Fit       0.007386
 4568 Fit       0.007519
 4569 Fit       0.006332
 4570 Fit       0.004157
 4571 Fit       0.001754
 4572 Fit      -0.000294
 4573 Fit      -0.001814
 4574 Fit      -0.002866
 4575 Fit      -0.003565
 4576 Fit      -0.004015
 4577 Fit      -0.004283
 4578 Fit      -0.004404
 4579 Fit      -0.004395
 4580 Fit      -0.004271
 4581 Fit      -0.004054
 4582 Fit      -0.003773
 4583 Fit      -0.003463
 4584 Fit      -0.003154
 4585 Fit      -0.002863
 4586 Fit      -0.002581
 4587 Fit      -0.002202
 4588 Fit      -0.001725
 4589 Fit      -0.001079
 4590 Fit      -0.000197
 4591 Fit       0.000950
 4592 Fit       0.002304
 4593 Fit       0.003659
 4594 Fit       0.004626
 4595 Fit       0.004754
 4596 Fit       0.003843
 4597 Fit       0.002189
 4598 Fit       0.000368
 4599 Fit      -0.001194
 4600 Fit      -0.002359
 4601 Fit      -0.003160
 4602 Fit      -0.003671
 4603 Fit      -0.003955
 4604 Fit      -0.004053
 4605 Fit      -0.003994
 4606 Fit      -0.003813
 4607 Fit      -0.003549
 4608 Fit      -0.003242
 4609 Fit      -0.002918
 4610 Fit      -0.002486
 4611 Fit      -0.001976
 4612 Fit      -0.001300
 4613 Fit      -0.000397
 4614 Fit       0.000714
 4615 Fit       0.001834
 4616 Fit       0.002548
 4617 Fit       0.002417
 4618 Fit       0.001392
 4619 Fit      -0.000076
 4620 Fit      -0.001458
 4621 Fit      -0.002500
 4622 Fit      -0.003172
 4623 Fit      -0.003524
 4624 Fit      -0.003614
 4625 Fit      -0.003500
 4626 Fit      -0.003244
 4627 Fit      -0.002899
 4628 Fit      -0.002290
 4629 Fit      -0.001611
 4630 Fit      -0.000708
 4631 Fit       0.000271
 4632 Fit       0.000848
 4633 Fit       0.000514
 4634 Fit      -0.000590
 4635 Fit      -0.001795
 4636 Fit      -0.002643
 4637 Fit      -0.003039
 4638 Fit      -0.003045
 4639 Fit      -0.002769
 4640 Fit      -0.001988
 4641 Fit      -0.001113
 4642 Fit      -0.000515
 4643 Fit      -0.001110
 4644 Fit      -0.002107
 4645 Fit      -0.002419
 4646 Fit      -0.001588
 4647 Fit       0.020204
 4648 Fit       0.013481
 4649 Fit       0.016508
 4650 Fit       0.020902
 4651 Fit       0.027492
 4652 Fit       0.016082
 4653 Fit       0.018419
 4654 Fit       0.022092
 4655 Fit       0.027546
 4656 Fit       0.017205
 4657 Fit       0.017962
 4658 Fit       0.020084
 4659 Fit       0.023356
 4660 Fit       0.027950
 4661 Fit       0.034123
 4662 Fit       0.017772
 4663 Fit       0.018289
 4664 Fit       0.020153
 4665 Fit       0.023038
 4666 Fit       0.026649
 4667 Fit       0.029979
 4668 Fit       0.016648
 4669 Fit       0.017947
 4670 Fit       0.019996
 4671 Fit       0.022402
 4672 Fit       0.023468
 4673 Fit       0.020541
 4674 Fit       0.013993
 4675 Fit       0.016735
 4676 Fit       0.018688
 4677 Fit       0.018070
 4678 Fit       0.015305
 4679 Fit      -0.009856
 4680 Fit      -0.013762
 4681 Fit      -0.011336
 4682 Fit      -0.005983
 4683 Fit      -0.008163
 4684 Fit      -0.002901
 4685 Fit      -0.012290
 4686 Fit      -0.005478
 4687 Fit      -0.000432
 4688 Fit      -0.011037
 4689 Fit      -0.005028
 4690 Fit      -0.009288
 4691 Fit      -0.004216
 4692 Fit      -0.009603
 4693 Fit       0.025035
 4694 Fit       0.027190
 4695 Fit       0.029065
 4696 Fit       0.030682
 4697 Fit       0.031623
 4698 Fit       0.033189
 4699 Fit       0.033487
 4700 Fit       0.034221
 4701 Fit       0.033954
 4702 Fit       0.033366
 4703 Fit       0.032710
 4704 Fit       0.030670
 4705 Fit       0.028000
 4706 Fit       0.027011
 4707 Fit       0.005854
 4708 Fit       0.003425
 4709 Fit       0.008264
 4710 Fit       0.009980
 4711 Fit       0.008743
 4712 Fit       0.003636
 4713 Fit      -0.000859
 4714 Fit       0.007940
 4715 Fit       0.010914
 4716 Fit       0.012300
 4717 Fit       0.012850
 4718 Fit       0.011508
 4719 Fit       0.013176
 4720 Fit       0.013996
 4721 Fit       0.014429
 4722 Fit       0.014951
 4723 Fit       0.013139
 4724 Fit       0.014774
 4725 Fit       0.015437
 4726 Fit       0.015612
 4727 Fit       0.015635
 4728 Fit       0.015829
 4729 Fit       0.018048
 4730 Fit       0.017893
 4731 Fit       0.017350
 4732 Fit       0.016805
 4733 Fit       0.016422
 4734 Fit       0.021323
 4735 Fit       0.019506
 4736 Fit       0.018154
 4737 Fit       0.017121
 4738 Fit       0.031087
 4739 Fit       0.025086
 4740 Fit       0.021547
 4741 Fit       0.019326
 4742 Fit       0.030666
 4743 Fit       0.024985
 4744 Fit       0.021529
 4745 Fit       0.019396
 4746 Fit       0.031657
 4747 Fit       0.025414
 4748 Fit       0.021569
 4749 Fit       0.019151
 4750 Fit       0.029466
 4751 Fit       0.023893
 4752 Fit       0.020194
 4753 Fit       0.017661
 4754 Fit       0.027044
 4755 Fit       0.026210
 4756 Fit       0.021879
 4757 Fit       0.022371
 4758 Fit      -0.002884
 4759 Fit      -0.003137
 4760 Fit       0.002446
 4761 Fit       0.002394
 4762 Fit      -0.001621
 4763 Fit      -0.008521
 4764 Fit       0.007236
 4765 Fit       0.005264
 4766 Fit       0.001642
 4767 Fit      -0.003917
 4768 Fit      -0.012506
 4769 Fit       0.000434
 4770 Fit      -0.005501
 4771 Fit      -0.004022
 4772 Fit      -0.012998
 4773 Fit       0.011066
 4774 Fit       0.015588
 4775 Fit       0.018412
 4776 Fit       0.017657
 4777 Fit       0.014270
 4778 Fit       0.009420
 4779 Fit       0.003087
 4780 Fit      -0.004659
 4781 Fit       0.007634
 4782 Fit       0.009789
 4783 Fit       0.012571
 4784 Fit       0.012789
 4785 Fit       0.009865
 4786 Fit       0.004936
 4787 Fit      -0.000205
 4788 Fit      -0.001654
 4789 Fit       0.004578
 4790 Fit       0.005702
 4791 Fit       0.007100
 4792 Fit       0.008236
 4793 Fit       0.009147
 4794 Fit       0.006393
 4795 Fit       0.003217
 4796 Fit       0.003996
 4797 Fit       0.006023
 4798 Fit       0.006199
 4799 Fit      -0.011876
 4800 Fit      -0.004875
 4801 Fit      -0.009632
 4802 Fit       0.001041
 4803 Fit      -0.001815
 4804 Fit      -0.004843
 4805 Fit      -0.008249
 4806 Fit       0.002982
 4807 Fit       0.000809
 4808 Fit      -0.001212
 4809 Fit      -0.003135
 4810 Fit      -0.004423
 4811 Fit       0.002953
 4812 Fit       0.001465
 4813 Fit       0.000331
 4814 Fit      -0.000107
 4815 Fit       0.004155
 4816 Fit       0.003904
 4817 Fit       0.002884
 4818 Fit       0.002735
 4819 Fit       0.004463
 4820 Fit       0.003550
 4821 Fit       0.002668
 4822 Fit       0.000976
 4823 Fit       0.002012
 4824 Fit       0.001358
 4825 Fit       0.000063
 4826 Fit      -0.002588
 4827 Fit       0.000566
 4828 Fit       0.000899
 4829 Fit       0.000856
 4830 Fit       0.000020
 4831 Fit      -0.002127
 4832 Fit      -0.006387
 4833 Fit      -0.002066
 4834 Fit      -0.000671
 4835 Fit       0.000294
 4836 Fit       0.000726
 4837 Fit       0.000521
 4838 Fit      -0.000540
 4839 Fit      -0.002954
 4840 Fit      -0.003721
 4841 Fit      -0.001415
 4842 Fit       0.000036
 4843 Fit       0.000816
 4844 Fit       0.000982
 4845 Fit       0.000469
 4846 Fit      -0.000938
 4847 Fit      -0.000220
 4848 Fit       0.001092
 4849 Fit      -0.000041
 4850 Fit       0.001663
 4851 Fit      -0.006008
 4852 Fit      -0.002161
 4853 Fit       0.000322
 4854 Fit       0.001973
 4855 Fit       0.003112
 4856 Fit       0.003992
 4857 Fit       0.004913
 4858 Fit      -0.012238
 4859 Fit      -0.006404
 4860 Fit      -0.002484
 4861 Fit       0.000156
 4862 Fit       0.001943
 4863 Fit       0.003168
 4864 Fit       0.004057
 4865 Fit       0.004825
 4866 Fit      -0.007283
 4867 Fit      -0.002969
 4868 Fit       0.000058
 4869 Fit       0.002091
 4870 Fit       0.003436
 4871 Fit       0.004368
 4872 Fit       0.005124
 4873 Fit       0.004836
 4874 Fit      -0.008301
 4875 Fit      -0.008431
 4876 Fit      -0.005017
 4877 Fit      -0.001294
 4878 Fit       0.001448
 4879 Fit       0.003183
 4880 Fit       0.004227
 4881 Fit       0.003181
 4882 Fit       0.001604
 4883 Fit      -0.002099
 4884 Fit      -0.002516
 4885 Fit       0.000238
 4886 Fit       0.002469
 4887 Fit       0.000774
 4888 Fit       0.006197
 4889 Fit       0.006139
 4890 Fit       0.007722
 4891 Fit       0.007402
 4892 Fit       0.005922
 4893 Fit       0.005048
 4894 Fit       0.005079
 4895 Fit       0.008039
 4896 Fit       0.006112
 4897 Fit       0.004684
 4898 Fit       0.004002
 4899 Fit       0.003950
 4900 Fit       0.004123
 4901 Fit       0.004465
 4902 Fit       0.004394
 4903 Fit       0.003148
 4904 Fit       0.002586
 4905 Fit       0.002659
 4906 Fit       0.003159
 4907 Fit       0.003644
 4908 Fit       0.003743
 4909 Fit       0.001578
 4910 Fit       0.000694
 4911 Fit       0.000558
 4912 Fit       0.001155
 4913 Fit       0.002370
 4914 Fit      -0.002514
 4915 Fit      -0.002231
 4916 Fit      -0.000685
 4917 Fit       0.009756
 4918 Fit       0.008036
 4919 Fit       0.006423
 4920 Fit       0.004740
 4921 Fit       0.009515
 4922 Fit       0.008122
 4923 Fit       0.006755
 4924 Fit       0.005253
 4925 Fit       0.003524
 4926 Fit       0.001554
 4927 Fit       0.009044
 4928 Fit       0.007778
 4929 Fit       0.006472
 4930 Fit       0.004986
 4931 Fit       0.003184
 4932 Fit       0.000961
 4933 Fit      -0.001769
 4934 Fit       0.007883
 4935 Fit       0.006616
 4936 Fit       0.005261
 4937 Fit       0.003641
 4938 Fit       0.001581
 4939 Fit      -0.001106
 4940 Fit      -0.004681
 4941 Fit       0.005781
 4942 Fit       0.004390
 4943 Fit       0.002787
 4944 Fit       0.000717
 4945 Fit      -0.002092
 4946 Fit      -0.006033
 4947 Fit      -0.011874
 4948 Fit       0.002710
 4949 Fit       0.000901
 4950 Fit      -0.001604
 4951 Fit      -0.005363
 4952 Fit      -0.011314
 4953 Fit      -0.002982
 4954 Fit      -0.006762
 4955 Fit       0.009301
 4956 Fit       0.009197
 4957 Fit       0.010424
 4958 Fit       0.010146
 4959 Fit       0.009593
 4960 Fit       0.008950
 4961 Fit       0.008175
 4962 Fit       0.012268
 4963 Fit       0.012081
 4964 Fit       0.011182
 4965 Fit       0.010451
 4966 Fit       0.010032
 4967 Fit       0.009869
 4968 Fit       0.013798
 4969 Fit       0.012179
 4970 Fit       0.011119
 4971 Fit       0.010495
 4972 Fit       0.010254
 4973 Fit       0.010325
 4974 Fit       0.014701
 4975 Fit       0.012633
 4976 Fit       0.011355
 4977 Fit       0.010608
 4978 Fit       0.010320
 4979 Fit       0.010486
 4980 Fit       0.016215
 4981 Fit       0.013305
 4982 Fit       0.011561
 4983 Fit       0.010552
 4984 Fit       0.010172
 4985 Fit       0.010509
 4986 Fit       0.013344
 4987 Fit       0.011350
 4988 Fit       0.013500
 4989 Fit       0.011145
 4990 Fit       0.017172
 4991 Fit       0.013534
 4992 Fit       0.011001
 4993 Fit       0.009163
 4994 Fit       0.007823
 4995 Fit       0.016043
 4996 Fit       0.012655
 4997 Fit       0.010132
 4998 Fit       0.008047
 4999 Fit       0.006067
 5000 Fit       0.003716
 5001 Fit       0.015732
 5002 Fit       0.012020
 5003 Fit       0.009026
 5004 Fit       0.006154
 5005 Fit       0.002582
 5006 Fit       0.017115
 5007 Fit       0.013552
 5008 Fit       0.009728
 5009 Fit       0.005828
 5010 Fit       0.000656
 5011 Fit       0.010218
 5012 Fit       0.006025
 5013 Fit      -0.000003
 5014 Fit       0.004829
 -----------------------------------------------------------------
 Leave Link  602 at Fri Jan 17 11:58:27 2014, MaxMem=   235929600 cpu:         2.2

 Test job not archived.
 1\1\GINC-G42\SP\RHF\Gen\C13H16I1N1O2\KOLAR\17-Jan-2014\0\\# hf/gen pse
 udo=read pop=(mk, readradii) iop(6/33=2,6/41=5,6/42=2)\\na resp\\0,1\C
 ,0,-1.195157,1.416964,0.85715\C,0,-2.557918,1.132111,0.874242\C,0,-3.0
 54373,0.123319,0.050166\C,0,-2.198123,-0.593125,-0.783145\C,0,-0.8317,
 -0.309259,-0.801221\C,0,-0.31925,0.703647,0.02396\N,0,1.046152,1.05273
 5,0.067781\C,0,2.10276,0.52004,-0.641652\O,0,1.99107,-0.402782,-1.4377
 01\C,0,3.445276,1.202675,-0.374735\C,0,4.618816,0.211869,-0.371617\C,0
 ,4.548324,-0.781168,0.80333\C,0,5.788597,-1.679053,0.825045\O,0,6.9891
 96,-0.9203,0.880124\C,0,7.126169,-0.067197,-0.246684\C,0,5.974708,0.93
 9377,-0.341446\I,0,-5.151726,-0.324051,0.069506\H,0,-0.810047,2.20473,
 1.501792\H,0,-3.216816,1.695421,1.525692\H,0,-2.582301,-1.377606,-1.42
 6061\H,0,-0.162434,-0.862485,-1.444772\H,0,1.273122,1.806003,0.702665\
 H,0,3.594267,1.938994,-1.178087\H,0,3.424096,1.767826,0.567494\H,0,4.5
 51868,-0.365214,-1.303932\H,0,4.497357,-0.228256,1.752425\H,0,3.646192
 ,-1.400984,0.729428\H,0,5.795692,-2.328689,-0.068148\H,0,5.796171,-2.3
 22968,1.709835\H,0,7.17218,-0.669865,-1.171414\H,0,8.087806,0.441732,-
 0.128013\H,0,6.101142,1.562897,-1.237211\H,0,6.019231,1.607461,0.53027
 \\Version=AM64L-G09RevD.01\State=1-A\HF=-716.9405995\RMSD=4.005e-09\Di
 pole=0.620114,1.2771892,0.4254265\Quadrupole=-8.9379613,7.688819,1.249
 1423,6.8541374,-4.6898669,3.1389985\PG=C01 [X(C13H16I1N1O2)]\\@


 WE THE UNWILLING
 LED BY THE UNQUALIFIED
 HAVE BEEN DOING THE UNBELIEVABLE SO LONG WITH SO LITTLE
 THAT WE NOW ATTEMPT THE IMPOSSIBLE WITH NOTHING.

                                    -- ANONYMOUS
 Job cpu time:       0 days  0 hours  3 minutes 54.6 seconds.
 File lengths (MBytes):  RWF=     40 Int=      0 D2E=      0 Chk=      4 Scr=      1
 Normal termination of Gaussian 09 at Fri Jan 17 11:58:27 2014.
234.16user 0.43system 3:55.00elapsed 99%CPU (0avgtext+0avgdata 603600maxresident)k
8inputs+188368outputs (0major+173021minor)pagefaults 0swaps
