Linux g30 2.6.38.6-client #1 SMP Tue Jun 12 11:27:21 CEST 2012 x86_64 GNU/Linux
Thu Jan 16 21:46:47 CET 2014

 Entering Gaussian System, Link 0=/usr/local/programs/common/gaussian/gaussian09_d01/arch/amd64-pgi_10.4.0-acml/g09/g09
 Initial command:
 /usr/local/programs/common/gaussian/gaussian09_d01/arch/amd64-pgi_10.4.0-acml/g09/l1.exe "/scratch/kolar/g09_17434/Gau-3050.inp" -scrdir="/scratch/kolar/g09_17434/"
 Entering Link 1 = /usr/local/programs/common/gaussian/gaussian09_d01/arch/amd64-pgi_10.4.0-acml/g09/l1.exe PID=      3058.
  
 Copyright (c) 1988,1990,1992,1993,1995,1998,2003,2009,2013,
            Gaussian, Inc.  All Rights Reserved.
  
 This is part of the Gaussian(R) 09 program.  It is based on
 the Gaussian(R) 03 system (copyright 2003, Gaussian, Inc.),
 the Gaussian(R) 98 system (copyright 1998, Gaussian, Inc.),
 the Gaussian(R) 94 system (copyright 1995, Gaussian, Inc.),
 the Gaussian 92(TM) system (copyright 1992, Gaussian, Inc.),
 the Gaussian 90(TM) system (copyright 1990, Gaussian, Inc.),
 the Gaussian 88(TM) system (copyright 1988, Gaussian, Inc.),
 the Gaussian 86(TM) system (copyright 1986, Carnegie Mellon
 University), and the Gaussian 82(TM) system (copyright 1983,
 Carnegie Mellon University). Gaussian is a federally registered
 trademark of Gaussian, Inc.
  
 This software contains proprietary and confidential information,
 including trade secrets, belonging to Gaussian, Inc.
  
 This software is provided under written license and may be
 used, copied, transmitted, or stored only in accord with that
 written license.
  
 The following legend is applicable only to US Government
 contracts under FAR:
  
                    RESTRICTED RIGHTS LEGEND
  
 Use, reproduction and disclosure by the US Government is
 subject to restrictions as set forth in subparagraphs (a)
 and (c) of the Commercial Computer Software - Restricted
 Rights clause in FAR 52.227-19.
  
 Gaussian, Inc.
 340 Quinnipiac St., Bldg. 40, Wallingford CT 06492
  
  
 ---------------------------------------------------------------
 Warning -- This program may not be used in any manner that
 competes with the business of Gaussian, Inc. or will provide
 assistance to any competitor of Gaussian, Inc.  The licensee
 of this program is prohibited from giving any competitor of
 Gaussian, Inc. access to this program.  By using this program,
 the user acknowledges that Gaussian, Inc. is engaged in the
 business of creating and licensing software in the field of
 computational chemistry and represents and warrants to the
 licensee that it is not a competitor of Gaussian, Inc. and that
 it will not use this program in any manner prohibited above.
 ---------------------------------------------------------------
  

 Cite this work as:
 Gaussian 09, Revision D.01,
 M. J. Frisch, G. W. Trucks, H. B. Schlegel, G. E. Scuseria, 
 M. A. Robb, J. R. Cheeseman, G. Scalmani, V. Barone, B. Mennucci, 
 G. A. Petersson, H. Nakatsuji, M. Caricato, X. Li, H. P. Hratchian, 
 A. F. Izmaylov, J. Bloino, G. Zheng, J. L. Sonnenberg, M. Hada, 
 M. Ehara, K. Toyota, R. Fukuda, J. Hasegawa, M. Ishida, T. Nakajima, 
 Y. Honda, O. Kitao, H. Nakai, T. Vreven, J. A. Montgomery, Jr., 
 J. E. Peralta, F. Ogliaro, M. Bearpark, J. J. Heyd, E. Brothers, 
 K. N. Kudin, V. N. Staroverov, T. Keith, R. Kobayashi, J. Normand, 
 K. Raghavachari, A. Rendell, J. C. Burant, S. S. Iyengar, J. Tomasi, 
 M. Cossi, N. Rega, J. M. Millam, M. Klene, J. E. Knox, J. B. Cross, 
 V. Bakken, C. Adamo, J. Jaramillo, R. Gomperts, R. E. Stratmann, 
 O. Yazyev, A. J. Austin, R. Cammi, C. Pomelli, J. W. Ochterski, 
 R. L. Martin, K. Morokuma, V. G. Zakrzewski, G. A. Voth, 
 P. Salvador, J. J. Dannenberg, S. Dapprich, A. D. Daniels, 
 O. Farkas, J. B. Foresman, J. V. Ortiz, J. Cioslowski, 
 and D. J. Fox, Gaussian, Inc., Wallingford CT, 2013.
 
 ******************************************
 Gaussian 09:  AM64L-G09RevD.01 24-Apr-2013
                16-Jan-2014 
 ******************************************
 %mem=1800mb
 -----------------------------------------
 # hf/gen pop=mk iop(6/33=2,6/41=5,6/42=2)
 -----------------------------------------
 1/38=1/1;
 2/12=2,17=6,18=5,40=1/2;
 3/5=7,11=9,16=1,25=1,30=1/1,2,3;
 4//1;
 5/5=2,38=5/2;
 6/7=2,8=2,9=2,10=2,15=8,20=1,28=1,33=2,41=5,42=2/1,2;
 99/5=1,9=1/99;
 -------
 na resp
 -------
 Symbolic Z-matrix:
 Charge =  0 Multiplicity = 1
 6                     4.35694  -0.29318   1.30827 
 6                     3.86177  -0.12526  -0.1219 
 1                     4.66819  -0.3101   -0.83632 
 6                     3.15544   1.23572  -0.38957 
 6                     1.70736   0.83126  -0.67485 
 1                     1.4821    0.80856  -1.75317 
 7                     1.65198  -0.51127  -0.10358 
 8                     2.86717  -1.13835  -0.44613 
 6                     0.47664  -1.23373  -0.15597 
 8                     0.38931  -2.44804  -0.1657 
 6                    -0.68821  -0.28998  -0.09092 
 6                    -1.98369  -0.81494  -0.04979 
 6                    -3.06684   0.04395   0.08475 
 6                    -2.87953   1.42581   0.19185 
 6                    -1.59267   1.95512   0.14785 
 6                    -0.49981   1.10091  -0.00002 
 8                     0.75791   1.65752  -0.02752 
 17                   -4.6976   -0.61018   0.13264 
 1                     3.52914  -0.174     2.01504 
 1                     4.79274  -1.28708   1.44691 
 1                     5.12186   0.45759   1.53949 
 1                     3.59386   1.77996  -1.22912 
 1                     3.17815   1.87844   0.49489 
 1                    -2.10965  -1.89025  -0.11033 
 1                    -3.73705   2.08134   0.2997 
 1                    -1.42353   3.02444   0.21977 
 
                          Input orientation:                          
 ---------------------------------------------------------------------
 Center     Atomic      Atomic             Coordinates (Angstroms)
 Number     Number       Type             X           Y           Z
 ---------------------------------------------------------------------
      1          6           0        4.356936   -0.293182    1.308265
      2          6           0        3.861769   -0.125264   -0.121903
      3          1           0        4.668190   -0.310099   -0.836321
      4          6           0        3.155444    1.235718   -0.389565
      5          6           0        1.707363    0.831255   -0.674848
      6          1           0        1.482098    0.808564   -1.753174
      7          7           0        1.651982   -0.511269   -0.103578
      8          8           0        2.867174   -1.138348   -0.446132
      9          6           0        0.476635   -1.233731   -0.155968
     10          8           0        0.389307   -2.448044   -0.165697
     11          6           0       -0.688211   -0.289975   -0.090921
     12          6           0       -1.983692   -0.814938   -0.049793
     13          6           0       -3.066836    0.043947    0.084748
     14          6           0       -2.879532    1.425810    0.191845
     15          6           0       -1.592672    1.955118    0.147847
     16          6           0       -0.499807    1.100913   -0.000017
     17          8           0        0.757910    1.657524   -0.027522
     18         17           0       -4.697599   -0.610183    0.132639
     19          1           0        3.529144   -0.173995    2.015036
     20          1           0        4.792744   -1.287082    1.446913
     21          1           0        5.121864    0.457591    1.539493
     22          1           0        3.593856    1.779956   -1.229115
     23          1           0        3.178147    1.878439    0.494888
     24          1           0       -2.109652   -1.890245   -0.110327
     25          1           0       -3.737053    2.081343    0.299702
     26          1           0       -1.423531    3.024442    0.219766
 ---------------------------------------------------------------------
                    Distance matrix (angstroms):
                    1          2          3          4          5
     1  C    0.000000
     2  C    1.522750   0.000000
     3  H    2.167121   1.093102   0.000000
     4  C    2.581423   1.556538   2.208516   0.000000
     5  C    3.495330   2.421186   3.177304   1.530332   0.000000
     6  H    4.341768   3.032477   3.499030   2.200449   1.101838
     7  N    3.059026   2.243322   3.110449   2.322531   1.460064
     8  O    2.451858   1.456256   2.020372   2.392172   2.297131
     9  C    4.252687   3.562161   4.345700   3.650858   2.459288
    10  O    4.749534   4.177944   4.830050   4.612129   3.570757
    11  C    5.235574   4.553066   5.408055   4.146156   2.708672
    12  C    6.505391   5.886448   6.717218   5.543587   4.089564
    13  C    7.531470   6.933751   7.797714   6.353114   4.897940
    14  C    7.521157   6.924551   7.812721   6.065897   4.705769
    15  C    6.465235   5.843944   6.730393   4.832282   3.581917
    16  C    5.219488   4.532296   5.422043   3.678421   2.323728
    17  O    4.306108   3.580668   4.451515   2.461131   1.415349
    18  Cl   9.136038   8.576871   9.420559   8.083955   6.614629
    19  H    1.094975   2.163220   3.073465   2.812303   3.400719
    20  H    1.094070   2.162804   2.486597   3.523907   4.302185
    21  H    1.096468   2.165132   2.537649   2.862438   4.086777
    22  H    3.364296   2.219811   2.382606   1.092357   2.183140
    23  H    2.601358   2.205129   2.963451   1.093555   2.151298
    24  H    6.810270   6.226810   6.997362   6.129507   4.721742
    25  H    8.495188   7.923949   8.812358   6.978301   5.670461
    26  H    6.753167   6.162125   7.024496   4.953567   3.925927
                    6          7          8          9         10
     6  H    0.000000
     7  N    2.119431   0.000000
     8  O    2.723465   1.409703   0.000000
     9  C    2.780826   1.380629   2.409973   0.000000
    10  O    3.784147   2.312856   2.816695   1.217488   0.000000
    11  C    2.946203   2.350667   3.672421   1.500591   2.413275
    12  C    4.189149   3.648730   4.877764   2.497973   2.882983
    13  C    4.965420   4.755100   6.073889   3.774466   4.268216
    14  C    4.815382   4.937020   6.325073   4.296276   5.081328
    15  C    3.792450   4.083388   5.460089   3.813541   4.838841
    16  C    2.662137   2.690734   4.068153   2.535414   3.662386
    17  O    2.055008   2.347086   3.527198   2.907743   4.124397
    18  Cl   6.614967   6.354743   7.605243   5.219656   5.416950
    19  H    4.399457   2.850617   2.724982   3.892828   4.448086
    20  H    5.058919   3.587519   2.704360   4.604440   4.831004
    21  H    4.920644   3.959603   3.401963   5.226214   5.809258
    22  H    2.382806   3.207401   3.107672   4.466657   5.410728
    23  H    3.012474   2.897938   3.175410   4.172216   5.189649
    24  H    4.783637   4.006434   5.044493   2.668703   2.561055
    25  H    5.750983   5.993828   7.385018   5.380754   6.144818
    26  H    4.152745   4.697295   6.015180   4.678017   5.777808
                   11         12         13         14         15
    11  C    0.000000
    12  C    1.398409   0.000000
    13  C    2.408365   1.388879   0.000000
    14  C    2.797456   2.425257   1.398606   0.000000
    15  C    2.432181   2.804491   2.414480   1.392161   0.000000
    16  C    1.406531   2.423815   2.777409   2.409452   1.394949
    17  O    2.426528   3.691876   4.152700   3.651410   2.375827
    18  Cl   4.028362   2.727727   1.757717   2.730227   4.027601
    19  H    4.715357   5.921629   6.876079   6.852338   5.852565
    20  H    5.779275   6.955799   8.087035   8.234003   7.278253
    21  H    6.080631   7.391487   8.327196   8.171655   7.018850
    22  H    4.890419   6.263650   7.007480   6.636965   5.369058
    23  H    4.471456   5.847695   6.521763   6.082120   4.784039
    24  H    2.140499   1.084350   2.166877   3.417637   3.888539
    25  H    3.882161   3.403655   2.155546   1.084758   2.153454
    26  H    3.409191   3.889381   3.406176   2.162485   1.085005
                   16         17         18         19         20
    16  C    0.000000
    17  O    1.375654   0.000000
    18  Cl   4.535075   5.910222   0.000000
    19  H    4.681696   3.899518   8.450620   0.000000
    20  H    5.983914   5.208123   9.604797   1.777192   0.000000
    21  H    5.864055   4.789517   9.977035   1.778145   1.777857
    22  H    4.327801   3.082435   8.735867   3.787694   4.243251
    23  H    3.791678   2.485812   8.267517   2.578087   3.678831
    24  H    3.398646   4.562503   2.897423   6.265677   7.101540
    25  H    3.395708   4.526742   2.862668   7.799137   9.242284
    26  H    2.145119   2.586175   4.892608   6.162952   7.664020
                   21         22         23         24         25
    21  H    0.000000
    22  H    3.427630   0.000000
    23  H    2.624508   1.776147   0.000000
    24  H    7.780043   6.874014   6.521509   0.000000
    25  H    9.091428   7.494688   6.920929   4.311620   0.000000
    26  H    7.153503   5.368629   4.750206   4.973316   2.499642
                   26
    26  H    0.000000
 Stoichiometry    C11H10ClNO3
 Framework group  C1[X(C11H10ClNO3)]
 Deg. of freedom    72
 Full point group                 C1      NOp   1
 Largest Abelian subgroup         C1      NOp   1
 Largest concise Abelian subgroup C1      NOp   1
                         Standard orientation:                         
 ---------------------------------------------------------------------
 Center     Atomic      Atomic             Coordinates (Angstroms)
 Number     Number       Type             X           Y           Z
 ---------------------------------------------------------------------
      1          6           0        4.356936   -0.293182    1.308265
      2          6           0        3.861769   -0.125264   -0.121903
      3          1           0        4.668190   -0.310099   -0.836321
      4          6           0        3.155444    1.235718   -0.389565
      5          6           0        1.707363    0.831255   -0.674848
      6          1           0        1.482098    0.808564   -1.753174
      7          7           0        1.651982   -0.511269   -0.103578
      8          8           0        2.867174   -1.138348   -0.446132
      9          6           0        0.476635   -1.233731   -0.155968
     10          8           0        0.389307   -2.448044   -0.165697
     11          6           0       -0.688211   -0.289975   -0.090921
     12          6           0       -1.983692   -0.814938   -0.049793
     13          6           0       -3.066836    0.043947    0.084748
     14          6           0       -2.879532    1.425810    0.191845
     15          6           0       -1.592672    1.955118    0.147847
     16          6           0       -0.499807    1.100913   -0.000017
     17          8           0        0.757910    1.657524   -0.027522
     18         17           0       -4.697599   -0.610183    0.132639
     19          1           0        3.529144   -0.173995    2.015036
     20          1           0        4.792744   -1.287082    1.446913
     21          1           0        5.121864    0.457591    1.539493
     22          1           0        3.593856    1.779956   -1.229115
     23          1           0        3.178147    1.878439    0.494888
     24          1           0       -2.109652   -1.890245   -0.110327
     25          1           0       -3.737053    2.081343    0.299702
     26          1           0       -1.423531    3.024442    0.219766
 ---------------------------------------------------------------------
 Rotational constants (GHZ):      1.2913632      0.2537881      0.2209733
 General basis read from cards:  (5D, 7F)
 There are   264 symmetry adapted cartesian basis functions of A   symmetry.
 There are   248 symmetry adapted basis functions of A   symmetry.
   248 basis functions,   512 primitive gaussians,   264 cartesian basis functions
    62 alpha electrons       62 beta electrons
       nuclear repulsion energy      1196.1875797301 Hartrees.
 NAtoms=   26 NActive=   26 NUniq=   26 SFac= 1.00D+00 NAtFMM=   60 NAOKFM=F Big=F
 Integral buffers will be    131072 words long.
 Raffenetti 1 integral format.
 Two-electron integral symmetry is turned on.
 One-electron integrals computed using PRISM.
 NBasis=   248 RedAO= T EigKep=  4.23D-04  NBF=   248
 NBsUse=   248 1.00D-06 EigRej= -1.00D+00 NBFU=   248
 ExpMin= 1.43D-01 ExpMax= 2.52D+04 ExpMxC= 3.78D+03 IAcc=1 IRadAn=         1 AccDes= 0.00D+00
 Harris functional with IExCor=  205 and IRadAn=       1 diagonalized for initial guess.
 HarFok:  IExCor=  205 AccDes= 0.00D+00 IRadAn=         1 IDoV= 1 UseB2=F ITyADJ=14
 ICtDFT=  3500011 ScaDFX=  1.000000  1.000000  1.000000  1.000000
 FoFCou: FMM=F IPFlag=           0 FMFlag=      100000 FMFlg1=           0
         NFxFlg=           0 DoJE=T BraDBF=F KetDBF=T FulRan=T
         wScrn=  0.000000 ICntrl=     500 IOpCl=  0 I1Cent=   200000004 NGrid=           0
         NMat0=    1 NMatS0=      1 NMatT0=    0 NMatD0=    1 NMtDS0=    0 NMtDT0=    0
 Petite list used in FoFCou.
 Requested convergence on RMS density matrix=1.00D-08 within 128 cycles.
 Requested convergence on MAX density matrix=1.00D-06.
 Requested convergence on             energy=1.00D-06.
 No special actions if energy rises.
 Integral accuracy reduced to 1.0D-05 until final iterations.
 Initial convergence to 1.0D-05 achieved.  Increase integral accuracy.
 SCF Done:  E(RHF) =  -1160.83086930     A.U. after   16 cycles
            NFock= 16  Conv=0.64D-08     -V/T= 2.0007

 **********************************************************************

            Population analysis using the SCF density.

 **********************************************************************

 Orbital symmetries:
 BldTbl:  Degeneracy threshold= 1.00D-02
       Occupied  (A) (A) (A) (A) (A) (A) (A) (A) (A) (A) (A) (A)
                 (A) (A) (A) (A) (A) (A) (A) (A) (A) (A) (A) (A)
                 (A) (A) (A) (A) (A) (A) (A) (A) (A) (A) (A) (A)
                 (A) (A) (A) (A) (A) (A) (A) (A) (A) (A) (A) (A)
                 (A) (A) (A) (A) (A) (A) (A) (A) (A) (A) (A) (A)
                 (A) (A)
       Virtual   (A) (A) (A) (A) (A) (A) (A) (A) (A) (A) (A) (A)
                 (A) (A) (A) (A) (A) (A) (A) (A) (A) (A) (A) (A)
                 (A) (A) (A) (A) (A) (A) (A) (A) (A) (A) (A) (A)
                 (A) (A) (A) (A) (A) (A) (A) (A) (A) (A) (A) (A)
                 (A) (A) (A) (A) (A) (A) (A) (A) (A) (A) (A) (A)
                 (A) (A) (A) (A) (A) (A) (A) (A) (A) (A) (A) (A)
                 (A) (A) (A) (A) (A) (A) (A) (A) (A) (A) (A) (A)
                 (A) (A) (A) (A) (A) (A) (A) (A) (A) (A) (A) (A)
                 (A) (A) (A) (A) (A) (A) (A) (A) (A) (A) (A) (A)
                 (A) (A) (A) (A) (A) (A) (A) (A) (A) (A) (A) (A)
                 (A) (A) (A) (A) (A) (A) (A) (A) (A) (A) (A) (A)
                 (A) (A) (A) (A) (A) (A) (A) (A) (A) (A) (A) (A)
                 (A) (A) (A) (A) (A) (A) (A) (A) (A) (A) (A) (A)
                 (A) (A) (A) (A) (A) (A) (A) (A) (A) (A) (A) (A)
                 (A) (A) (A) (A) (A) (A) (A) (A) (A) (A) (A) (A)
                 (A) (A) (A) (A) (A) (A)
 The electronic state is 1-A.
 Alpha  occ. eigenvalues -- -104.82574 -20.62393 -20.62073 -20.54552 -15.64726
 Alpha  occ. eigenvalues --  -11.37580 -11.35768 -11.33854 -11.31214 -11.31095
 Alpha  occ. eigenvalues --  -11.27674 -11.27253 -11.26907 -11.26099 -11.25650
 Alpha  occ. eigenvalues --  -11.22919 -10.56403  -8.03262  -8.02929  -8.02922
 Alpha  occ. eigenvalues --   -1.47518  -1.43889  -1.38247  -1.20100  -1.19000
 Alpha  occ. eigenvalues --   -1.13171  -1.09259  -1.05824  -1.02071  -0.98148
 Alpha  occ. eigenvalues --   -0.89867  -0.88867  -0.84795  -0.82853  -0.78857
 Alpha  occ. eigenvalues --   -0.75866  -0.72356  -0.70756  -0.67113  -0.65662
 Alpha  occ. eigenvalues --   -0.64777  -0.63641  -0.63348  -0.61815  -0.61721
 Alpha  occ. eigenvalues --   -0.59394  -0.58765  -0.56996  -0.55794  -0.54658
 Alpha  occ. eigenvalues --   -0.54187  -0.53516  -0.52486  -0.51293  -0.49996
 Alpha  occ. eigenvalues --   -0.47863  -0.46045  -0.45931  -0.43932  -0.38942
 Alpha  occ. eigenvalues --   -0.36734  -0.33330
 Alpha virt. eigenvalues --    0.07750   0.12129   0.18842   0.20013   0.22356
 Alpha virt. eigenvalues --    0.24143   0.25589   0.26733   0.27881   0.28686
 Alpha virt. eigenvalues --    0.29823   0.30483   0.30681   0.31074   0.31980
 Alpha virt. eigenvalues --    0.32156   0.36221   0.36538   0.38002   0.40329
 Alpha virt. eigenvalues --    0.41991   0.42454   0.44531   0.46331   0.47648
 Alpha virt. eigenvalues --    0.48147   0.49455   0.52775   0.57701   0.58556
 Alpha virt. eigenvalues --    0.60152   0.62050   0.62490   0.63312   0.68340
 Alpha virt. eigenvalues --    0.70355   0.71004   0.72232   0.72624   0.74326
 Alpha virt. eigenvalues --    0.75418   0.76180   0.77922   0.78577   0.78840
 Alpha virt. eigenvalues --    0.80736   0.81548   0.81884   0.82459   0.84572
 Alpha virt. eigenvalues --    0.85899   0.86140   0.86385   0.88190   0.91342
 Alpha virt. eigenvalues --    0.92136   0.93129   0.95704   0.98335   0.99085
 Alpha virt. eigenvalues --    0.99897   1.00968   1.01987   1.05680   1.07156
 Alpha virt. eigenvalues --    1.08083   1.08125   1.10158   1.10926   1.11116
 Alpha virt. eigenvalues --    1.11937   1.13872   1.14870   1.15424   1.15587
 Alpha virt. eigenvalues --    1.16730   1.17643   1.18576   1.19189   1.20131
 Alpha virt. eigenvalues --    1.20704   1.23166   1.25137   1.25305   1.26908
 Alpha virt. eigenvalues --    1.29112   1.29972   1.31798   1.34078   1.35494
 Alpha virt. eigenvalues --    1.36085   1.38431   1.41635   1.42282   1.44326
 Alpha virt. eigenvalues --    1.48019   1.49886   1.50489   1.53481   1.56208
 Alpha virt. eigenvalues --    1.57269   1.60554   1.61567   1.62818   1.64098
 Alpha virt. eigenvalues --    1.65697   1.70140   1.70663   1.72191   1.73346
 Alpha virt. eigenvalues --    1.74246   1.80980   1.81906   1.85476   1.90728
 Alpha virt. eigenvalues --    1.92141   1.97256   1.99099   2.01718   2.02233
 Alpha virt. eigenvalues --    2.03991   2.04767   2.06946   2.08370   2.10975
 Alpha virt. eigenvalues --    2.11272   2.13145   2.15808   2.16121   2.16905
 Alpha virt. eigenvalues --    2.19152   2.21555   2.23117   2.25001   2.26709
 Alpha virt. eigenvalues --    2.30042   2.30759   2.32901   2.33160   2.33972
 Alpha virt. eigenvalues --    2.36626   2.38307   2.39196   2.41995   2.44335
 Alpha virt. eigenvalues --    2.46520   2.46925   2.50490   2.51514   2.52453
 Alpha virt. eigenvalues --    2.53996   2.55883   2.57553   2.59044   2.60028
 Alpha virt. eigenvalues --    2.63667   2.68181   2.70054   2.73125   2.77902
 Alpha virt. eigenvalues --    2.81831   2.82676   2.84979   2.87410   2.89134
 Alpha virt. eigenvalues --    2.91177   2.93008   2.95836   2.97669   2.99112
 Alpha virt. eigenvalues --    3.01201   3.03051   3.08099   3.09553   3.13590
 Alpha virt. eigenvalues --    3.15961   3.17627   3.23109   3.24530   3.28743
 Alpha virt. eigenvalues --    3.36819   3.37580   3.48897   3.50546   3.67130
 Alpha virt. eigenvalues --    3.79054
          Condensed to atoms (all electrons):
               1          2          3          4          5          6
     1  C    5.154251   0.345161  -0.044324  -0.062489   0.004250   0.000028
     2  C    0.345161   4.822417   0.411180   0.326833  -0.054868   0.002548
     3  H   -0.044324   0.411180   0.495014  -0.033847   0.000977  -0.000073
     4  C   -0.062489   0.326833  -0.033847   5.287159   0.339923  -0.051921
     5  C    0.004250  -0.054868   0.000977   0.339923   4.609693   0.412177
     6  H    0.000028   0.002548  -0.000073  -0.051921   0.412177   0.542245
     7  N   -0.001514  -0.073978   0.004246  -0.056561   0.219770  -0.068409
     8  O   -0.048745   0.180122  -0.031868  -0.040585  -0.055294   0.006791
     9  C   -0.000168   0.003094  -0.000025   0.001013  -0.030896   0.000740
    10  O    0.000006  -0.000048   0.000001  -0.000111   0.000913   0.000179
    11  C   -0.000009  -0.000091   0.000004   0.000434   0.008001  -0.000809
    12  C    0.000000   0.000001   0.000000   0.000032   0.000325  -0.000433
    13  C    0.000000   0.000000   0.000000  -0.000001  -0.000064   0.000012
    14  C    0.000000   0.000000   0.000000   0.000002  -0.000007  -0.000059
    15  C    0.000000   0.000002   0.000000  -0.000134   0.000216   0.001072
    16  C    0.000014  -0.000076   0.000000   0.000803  -0.045522   0.007914
    17  O   -0.000053   0.001722  -0.000031  -0.023704   0.204384  -0.050436
    18  Cl   0.000000   0.000000   0.000000   0.000000   0.000000   0.000000
    19  H    0.389404  -0.033593   0.003315  -0.003750   0.000004   0.000025
    20  H    0.392167  -0.035400  -0.002764   0.004309  -0.000205   0.000004
    21  H    0.374996  -0.033796  -0.000052  -0.001600   0.000185  -0.000004
    22  H    0.002880  -0.029754  -0.003180   0.386922  -0.030680  -0.000713
    23  H   -0.004141  -0.032694   0.002048   0.389479  -0.035974   0.003208
    24  H    0.000000   0.000000   0.000000   0.000000  -0.000011  -0.000007
    25  H    0.000000   0.000000   0.000000   0.000000   0.000001   0.000000
    26  H    0.000000   0.000000   0.000000  -0.000014  -0.000033   0.000036
               7          8          9         10         11         12
     1  C   -0.001514  -0.048745  -0.000168   0.000006  -0.000009   0.000000
     2  C   -0.073978   0.180122   0.003094  -0.000048  -0.000091   0.000001
     3  H    0.004246  -0.031868  -0.000025   0.000001   0.000004   0.000000
     4  C   -0.056561  -0.040585   0.001013  -0.000111   0.000434   0.000032
     5  C    0.219770  -0.055294  -0.030896   0.000913   0.008001   0.000325
     6  H   -0.068409   0.006791   0.000740   0.000179  -0.000809  -0.000433
     7  N    7.277000   0.099061   0.247486  -0.083927  -0.112159   0.005591
     8  O    0.099061   8.412754  -0.018014   0.003231   0.001258  -0.000032
     9  C    0.247486  -0.018014   3.990726   0.646793   0.346140  -0.031094
    10  O   -0.083927   0.003231   0.646793   8.098092  -0.091414   0.006176
    11  C   -0.112159   0.001258   0.346140  -0.091414   5.303739   0.471577
    12  C    0.005591  -0.000032  -0.031094   0.006176   0.471577   4.985734
    13  C   -0.000070   0.000000   0.002435   0.000680  -0.040005   0.495314
    14  C    0.000011   0.000000  -0.000106  -0.000003  -0.029031  -0.041035
    15  C   -0.000301   0.000003   0.002220  -0.000030  -0.044288  -0.038475
    16  C   -0.012806   0.000239  -0.026684   0.002283   0.486321  -0.028087
    17  O   -0.039120   0.001741  -0.007349  -0.000017  -0.054981   0.004403
    18  Cl   0.000000   0.000000  -0.000061   0.000000   0.002645  -0.064357
    19  H    0.003300  -0.002232   0.000079  -0.000006  -0.000011   0.000000
    20  H    0.000166  -0.000380  -0.000003  -0.000001   0.000000   0.000000
    21  H   -0.000157   0.002723   0.000001   0.000000   0.000000   0.000000
    22  H    0.003227   0.002077  -0.000028   0.000001  -0.000002   0.000000
    23  H    0.001032   0.002152  -0.000036   0.000001  -0.000043  -0.000002
    24  H    0.000368  -0.000002  -0.001694   0.008006  -0.024626   0.373080
    25  H    0.000000   0.000000   0.000003   0.000000   0.000108   0.001992
    26  H    0.000021   0.000000  -0.000061   0.000000   0.003327  -0.000094
              13         14         15         16         17         18
     1  C    0.000000   0.000000   0.000000   0.000014  -0.000053   0.000000
     2  C    0.000000   0.000000   0.000002  -0.000076   0.001722   0.000000
     3  H    0.000000   0.000000   0.000000   0.000000  -0.000031   0.000000
     4  C   -0.000001   0.000002  -0.000134   0.000803  -0.023704   0.000000
     5  C   -0.000064  -0.000007   0.000216  -0.045522   0.204384   0.000000
     6  H    0.000012  -0.000059   0.001072   0.007914  -0.050436   0.000000
     7  N   -0.000070   0.000011  -0.000301  -0.012806  -0.039120   0.000000
     8  O    0.000000   0.000000   0.000003   0.000239   0.001741   0.000000
     9  C    0.002435  -0.000106   0.002220  -0.026684  -0.007349  -0.000061
    10  O    0.000680  -0.000003  -0.000030   0.002283  -0.000017   0.000000
    11  C   -0.040005  -0.029031  -0.044288   0.486321  -0.054981   0.002645
    12  C    0.495314  -0.041035  -0.038475  -0.028087   0.004403  -0.064357
    13  C    5.103277   0.511338  -0.039689  -0.029967  -0.000173   0.216142
    14  C    0.511338   4.933617   0.520410  -0.034155   0.002767  -0.063641
    15  C   -0.039689   0.520410   4.974913   0.569566  -0.044112   0.002363
    16  C   -0.029967  -0.034155   0.569566   4.442720   0.220185   0.000292
    17  O   -0.000173   0.002767  -0.044112   0.220185   8.511719   0.000001
    18  Cl   0.216142  -0.063641   0.002363   0.000292   0.000001  16.896260
    19  H    0.000000   0.000000   0.000000   0.000013   0.000010   0.000000
    20  H    0.000000   0.000000   0.000000   0.000000   0.000001   0.000000
    21  H    0.000000   0.000000   0.000000  -0.000001  -0.000004   0.000000
    22  H    0.000000   0.000000   0.000004  -0.000070   0.001341   0.000000
    23  H    0.000000   0.000000  -0.000015   0.000424   0.000376   0.000000
    24  H   -0.025384   0.001751   0.000121   0.001257  -0.000022   0.000312
    25  H   -0.027664   0.379998  -0.024065   0.001774  -0.000035   0.000677
    26  H    0.002327  -0.027187   0.376578  -0.027777  -0.000159  -0.000070
              19         20         21         22         23         24
     1  C    0.389404   0.392167   0.374996   0.002880  -0.004141   0.000000
     2  C   -0.033593  -0.035400  -0.033796  -0.029754  -0.032694   0.000000
     3  H    0.003315  -0.002764  -0.000052  -0.003180   0.002048   0.000000
     4  C   -0.003750   0.004309  -0.001600   0.386922   0.389479   0.000000
     5  C    0.000004  -0.000205   0.000185  -0.030680  -0.035974  -0.000011
     6  H    0.000025   0.000004  -0.000004  -0.000713   0.003208  -0.000007
     7  N    0.003300   0.000166  -0.000157   0.003227   0.001032   0.000368
     8  O   -0.002232  -0.000380   0.002723   0.002077   0.002152  -0.000002
     9  C    0.000079  -0.000003   0.000001  -0.000028  -0.000036  -0.001694
    10  O   -0.000006  -0.000001   0.000000   0.000001   0.000001   0.008006
    11  C   -0.000011   0.000000   0.000000  -0.000002  -0.000043  -0.024626
    12  C    0.000000   0.000000   0.000000   0.000000  -0.000002   0.373080
    13  C    0.000000   0.000000   0.000000   0.000000   0.000000  -0.025384
    14  C    0.000000   0.000000   0.000000   0.000000   0.000000   0.001751
    15  C    0.000000   0.000000   0.000000   0.000004  -0.000015   0.000121
    16  C    0.000013   0.000000  -0.000001  -0.000070   0.000424   0.001257
    17  O    0.000010   0.000001  -0.000004   0.001341   0.000376  -0.000022
    18  Cl   0.000000   0.000000   0.000000   0.000000   0.000000   0.000312
    19  H    0.499245  -0.022983  -0.025976   0.000050   0.001534   0.000000
    20  H   -0.022983   0.496281  -0.024923  -0.000076   0.000141   0.000000
    21  H   -0.025976  -0.024923   0.542357  -0.000240   0.000591   0.000000
    22  H    0.000050  -0.000076  -0.000240   0.482713  -0.019190   0.000000
    23  H    0.001534   0.000141   0.000591  -0.019190   0.468147   0.000000
    24  H    0.000000   0.000000   0.000000   0.000000   0.000000   0.381493
    25  H    0.000000   0.000000   0.000000   0.000000   0.000000  -0.000077
    26  H    0.000000   0.000000   0.000000   0.000000   0.000004   0.000007
              25         26
     1  C    0.000000   0.000000
     2  C    0.000000   0.000000
     3  H    0.000000   0.000000
     4  C    0.000000  -0.000014
     5  C    0.000001  -0.000033
     6  H    0.000000   0.000036
     7  N    0.000000   0.000021
     8  O    0.000000   0.000000
     9  C    0.000003  -0.000061
    10  O    0.000000   0.000000
    11  C    0.000108   0.003327
    12  C    0.001992  -0.000094
    13  C   -0.027664   0.002327
    14  C    0.379998  -0.027187
    15  C   -0.024065   0.376578
    16  C    0.001774  -0.027777
    17  O   -0.000035  -0.000159
    18  Cl   0.000677  -0.000070
    19  H    0.000000   0.000000
    20  H    0.000000   0.000000
    21  H    0.000000   0.000000
    22  H    0.000000   0.000000
    23  H    0.000000   0.000004
    24  H   -0.000077   0.000007
    25  H    0.422389  -0.001740
    26  H   -0.001740   0.434508
 Mulliken charges:
               1
     1  C   -0.501713
     2  C    0.201216
     3  H    0.199378
     4  C   -0.462195
     5  C    0.452734
     6  H    0.195887
     7  N   -0.412278
     8  O   -0.514999
     9  C    0.875489
    10  O   -0.590806
    11  C   -0.226085
    12  C   -0.140616
    13  C   -0.168509
    14  C   -0.154672
    15  C   -0.256359
    16  C    0.471339
    17  O   -0.728454
    18  Cl   0.009438
    19  H    0.191573
    20  H    0.193666
    21  H    0.165900
    22  H    0.204719
    23  H    0.222957
    24  H    0.285427
    25  H    0.246639
    26  H    0.240325
 Sum of Mulliken charges =   0.00000
 Mulliken charges with hydrogens summed into heavy atoms:
               1
     1  C    0.049426
     2  C    0.400594
     4  C   -0.034520
     5  C    0.648621
     7  N   -0.412278
     8  O   -0.514999
     9  C    0.875489
    10  O   -0.590806
    11  C   -0.226085
    12  C    0.144811
    13  C   -0.168509
    14  C    0.091967
    15  C   -0.016034
    16  C    0.471339
    17  O   -0.728454
    18  Cl   0.009438
 DipInt: DoE/N= T F RetVal/Mat= T F Init=T NMatP=  1 IDeriv=0 Min/MaxMlt=  0  4
 Entering OneElI...
 OneElI was handed   235748795 working-precision words.
 Multipole integrals L=0 to 4 MinM= 0 MaxM= 0.
 Requested accuracy = 0.1000D-12
 ShPair: Thresh= 1.00D-13 NBox=     0 BxSize= 0.00D+00 RnKept= 1.89D+01
         NSMCal=                 3655 NSMKep=                3084
 PrsmSu:  NPrtUS=   1 ThrOK=F IAlg=1 NPAlg=1 LenDen=           0.
 Prism:   IPart=     0 DynPar=F LinDyn=F Incr=          30.
 PRISM was handed   235459209 working-precision words and  3084 shell-pairs
 IPart=  0 NShTot=        3084 NBatch=         105 AvBLen=        29.4
 PrSmSu:  NxtVal=             31.
 Electronic moments (au):
       -124.00000000          1.05579246          2.07626598         -0.21615043
      -3731.30686729       -739.00054749       -184.43858736          1.65571601
         -0.75893063         -1.23697107       3248.83889492        -48.75231296
       -127.21992234         10.52295431        968.80551879      -1390.20795006
       -690.78852571        -14.79809397         84.56108661        181.45945579
    -222162.81837080     -10986.74628164      -1387.32270632      -7981.57789340
      -5867.91644121       1843.50326185       -385.09538462      -1266.40301736
        196.73369744     -12197.92900686      -7950.76230922       -801.08819139
       1146.96167460        637.47809948        133.14435046
 Electronic spatial extent (au):  <R**2>=           4654.7460
 DipInt: DoE/N= F T RetVal/Mat= T F Init=T NMatP=  1 IDeriv=0 Min/MaxMlt=  0  4
 Nuclear    moments (au):
        124.00000000          0.00000000          0.00000000          0.00000000
       3664.82181580        659.93057931        110.71085394          0.00000000
         -0.00015316          0.00006953      -3104.61601746         89.75198395
        119.67763444        -39.79202030       -931.39330538       1389.97934338
        709.45216707         10.73671521        -79.93046371       -192.26683847
     209546.18086664       8412.34766156        740.67397760       7938.99762651
       5820.11768919      -1853.43926095        386.22007340       1234.03437072
       -200.44724611       9723.44911292       5638.39772539        275.01334613
      -1161.15726965       -645.97761766       -109.97636519
 Total      moments (au):
          0.00000000          1.05579246          2.07626598         -0.21615043
        -66.48505149        -79.06996818        -73.72773342          1.65571601
         -0.75908378         -1.23690155        144.22287746         40.99967099
         -7.54228790        -29.26906599         37.41221341         -0.22860668
         18.66364137         -4.06137877          4.63062290        -10.80738268
     -12616.63750416      -2574.39862008       -646.64872871        -42.58026688
        -47.79875203         -9.93599911          1.12468878        -32.36864665
         -3.71354867      -2474.47989394      -2312.36458384       -526.07484526
        -14.19559505         -8.49951818         23.16798527
 Traceless Quadrup. (au):
          6.60919954         -5.97571715         -0.63348239          1.65571601
         -0.75908378         -1.23690155
 Charge=              0.0000 electrons
 Dipole moment (field-independent basis, Debye):
    X=              2.6836    Y=              5.2773    Z=             -0.5494  Tot=              5.9459
 Quadrupole moment (field-independent basis, Debye-Ang):
   XX=            -89.4247   YY=           -106.3518   ZZ=            -99.1663
   XY=              2.2270   XZ=             -1.0210   YZ=             -1.6637
 Traceless Quadrupole moment (field-independent basis, Debye-Ang):
   XX=              8.8896   YY=             -8.0375   ZZ=             -0.8521
   XY=              2.2270   XZ=             -1.0210   YZ=             -1.6637
 Octapole moment (field-independent basis, Debye-Ang**2):
  XXX=            102.6523  YYY=             29.1820  ZZZ=             -5.3683  XYY=            -20.8326
  XXY=             26.6286  XXZ=             -0.1627  XZZ=             13.2841  YZZ=             -2.8907
  YYZ=              3.2959  XYZ=             -7.6923
 Hexadecapole moment (field-independent basis, Debye-Ang**3):
 XXXX=          -4752.0304 YYYY=           -969.6419 ZZZZ=           -243.5589 XXXY=            -16.0378
 XXXZ=            -18.0033 YYYX=             -3.7424 YYYZ=              0.4236 ZZZX=            -12.1916
 ZZZY=             -1.3987 XXYY=           -932.0077 XXZZ=           -870.9473 YYZZ=           -198.1450
 XXYZ=             -5.3467 YYXZ=             -3.2013 ZZXY=              8.7262
 N-N= 1.196187579730D+03 E-N=-5.129099039595D+03  KE= 1.160006733908D+03
 Entering OneElI...
 OneElI was handed   235791069 working-precision words.
 Calculate electrostatic properties
    NBasis =   248  MinDer = 0  MaxDer = 0
    NGrid  =    26  NMatD  =   1
 Requested accuracy = 0.1000D-12
 PrtBox:  NBox=     1 Levels=  1 BoxLen=   32.45 SMaxX=       18.56
          Shift=            8.877176            4.626133            3.313019
 Box      1 Number                   0 centers from      1 to     85:
 ShPair: Thresh= 1.00D-13 NBox=     1 BxSize= 3.24D+01 RnKept= 1.82D+01
         NSMCal=                 3655 NSMKep=                2780
 PrsmSu:  NPrtUS=   1 ThrOK=F IAlg=1 NPAlg=1 LenDen=           0.
 Prism:   IPart=     0 DynPar=F LinDyn=F Incr=         512.
 PRISM was handed   235527945 working-precision words and  2780 shell-pairs
 IPart=  0 NShTot=       72280 NBatch=        2884 AvBLen=        25.1
 PrSmSu:  NxtVal=            513.
 --------------------------------------------------------
       Center         ----      EFG at Nuclei      ----
                      3XX-RR        3YY-RR        3ZZ-RR
 --------------------------------------------------------
     1   Atom        0.017360      0.024990     -0.042351
     2   Atom       -0.077683     -0.159659      0.237342
     3   Atom       -0.094271      0.130599     -0.036328
     4   Atom       -0.076125      0.015854      0.060272
     5   Atom        0.074370     -0.218848      0.144479
     6   Atom        0.116208      0.133284     -0.249492
     7   Atom       -0.872980     -0.398119      1.271099
     8   Atom       -2.386988      0.248914      2.138074
     9   Atom        0.161288      0.342197     -0.503484
    10   Atom        1.717257     -0.905895     -0.811362
    11   Atom        0.085824      0.061932     -0.147756
    12   Atom        0.170444      0.223541     -0.393985
    13   Atom       -0.206795      0.242916     -0.036121
    14   Atom        0.212214      0.159812     -0.372026
    15   Atom        0.124179      0.109531     -0.233711
    16   Atom       -0.058864      0.311241     -0.252377
    17   Atom       -1.583307      0.425753      1.157554
    18   Atom       -2.945662      1.126925      1.818737
    19   Atom       -0.104993      0.146078     -0.041085
    20   Atom        0.080998     -0.217015      0.136017
    21   Atom       -0.064379     -0.059721      0.124099
    22   Atom        0.072333      0.042499     -0.114832
    23   Atom        0.144045     -0.002882     -0.141163
    24   Atom        0.136263     -0.292532      0.156270
    25   Atom       -0.135916     -0.022986      0.158902
    26   Atom        0.131789     -0.297663      0.165874
 --------------------------------------------------------
                        XY            XZ            YZ
 --------------------------------------------------------
     1   Atom       -0.012724     -0.026549      0.009010
     2   Atom       -0.291482     -0.090934     -0.059436
     3   Atom        0.046530      0.208107     -0.047273
     4   Atom        0.011582     -0.041955      0.009715
     5   Atom        0.183740      0.215831     -0.025078
     6   Atom        0.001448     -0.078300     -0.008627
     7   Atom        0.425753      0.340888      0.239113
     8   Atom        0.256785      0.517421     -0.971253
     9   Atom       -0.081088     -0.052309     -0.011803
    10   Atom       -0.241393     -0.092954     -0.005817
    11   Atom        0.047178     -0.003323      0.023746
    12   Atom        0.016025     -0.030448      0.042482
    13   Atom       -0.222031     -0.004755      0.034229
    14   Atom        0.009565     -0.034128      0.044893
    15   Atom        0.026148     -0.031344      0.031371
    16   Atom       -0.206517     -0.048319      0.054717
    17   Atom       -0.033062      0.844395     -0.723585
    18   Atom       -1.932625      0.135865      0.064247
    19   Atom        0.040486      0.213445     -0.030024
    20   Atom        0.164617     -0.023995      0.049744
    21   Atom       -0.213796     -0.066599     -0.059617
    22   Atom       -0.088096      0.136806      0.171806
    23   Atom       -0.004963     -0.011648     -0.208606
    24   Atom       -0.058686     -0.001979     -0.025767
    25   Atom        0.215207      0.036604     -0.028886
    26   Atom       -0.067184     -0.002718     -0.031550
 --------------------------------------------------------


 ---------------------------------------------------------------------------------
              Nuclear Quadrupole Coupling Constant in Principal Axis System
 ---------------------------------------------------------------------------------

       Atom             a.u.   MegaHertz   Gauss  10(-4) cm-1        Axes

              Baa    -1.1362     5.457     1.947     1.820  0.8742 -0.4796 -0.0762
     7 N(14)  Bbb    -0.2409     1.157     0.413     0.386  0.4512  0.8602 -0.2378
              Bcc     1.3771    -6.614    -2.360    -2.206  0.1795  0.1735  0.9683
 
              Baa    -3.7208   -71.384   -25.472   -23.811  0.9284  0.3705 -0.0271
    18 Cl(35) Bbb     1.8217    34.948    12.470    11.658  0.0698 -0.1025  0.9923
              Bcc     1.8992    36.435    13.001    12.154 -0.3649  0.9232  0.1211
 

 ---------------------------------------------------------------------------------

 No NMR shielding tensors so no spin-rotation constants.
 Leave Link  601 at Thu Jan 16 21:50:46 2014, MaxMem=   235929600 cpu:         0.4
 FitSet:  NAtFit=    26 NAtPot=    26 NAtFrz=     0 MDM=    30 TotChg=   0.00000
 Merz-Kollman atomic radii used.
 Atom Element Radius
    1     6    1.50
    2     6    1.50
    3     1    1.20
    4     6    1.50
    5     6    1.50
    6     1    1.20
    7     7    1.50
    8     8    1.40
    9     6    1.50
   10     8    1.40
   11     6    1.50
   12     6    1.50
   13     6    1.50
   14     6    1.50
   15     6    1.50
   16     6    1.50
   17     8    1.40
   18    17    1.70
   19     1    1.20
   20     1    1.20
   21     1    1.20
   22     1    1.20
   23     1    1.20
   24     1    1.20
   25     1    1.20
   26     1    1.20
 Generate VDW surfaces: Layer= 5 Dens= 2 Start= 1.400 Inc= 0.179

 **********************************************************************

            Electrostatic Properties Using The SCF Density

 **********************************************************************

       Atomic Center    1 is at   4.356936 -0.293182  1.308265
       Atomic Center    2 is at   3.861769 -0.125264 -0.121903
       Atomic Center    3 is at   4.668190 -0.310099 -0.836321
       Atomic Center    4 is at   3.155444  1.235718 -0.389565
       Atomic Center    5 is at   1.707363  0.831255 -0.674848
       Atomic Center    6 is at   1.482098  0.808564 -1.753174
       Atomic Center    7 is at   1.651982 -0.511269 -0.103578
       Atomic Center    8 is at   2.867174 -1.138348 -0.446132
       Atomic Center    9 is at   0.476635 -1.233731 -0.155968
       Atomic Center   10 is at   0.389307 -2.448044 -0.165697
       Atomic Center   11 is at  -0.688211 -0.289975 -0.090921
       Atomic Center   12 is at  -1.983692 -0.814938 -0.049793
       Atomic Center   13 is at  -3.066836  0.043947  0.084748
       Atomic Center   14 is at  -2.879532  1.425810  0.191845
       Atomic Center   15 is at  -1.592672  1.955118  0.147847
       Atomic Center   16 is at  -0.499807  1.100913 -0.000017
       Atomic Center   17 is at   0.757910  1.657524 -0.027522
       Atomic Center   18 is at  -4.697599 -0.610183  0.132639
       Atomic Center   19 is at   3.529144 -0.173995  2.015036
       Atomic Center   20 is at   4.792744 -1.287082  1.446913
       Atomic Center   21 is at   5.121864  0.457591  1.539493
       Atomic Center   22 is at   3.593856  1.779956 -1.229115
       Atomic Center   23 is at   3.178147  1.878439  0.494888
       Atomic Center   24 is at  -2.109652 -1.890245 -0.110327
       Atomic Center   25 is at  -3.737053  2.081343  0.299702
       Atomic Center   26 is at  -1.423531  3.024442  0.219766
      ESP Fit Center   27 is at   5.075178 -0.293182  3.281619
      ESP Fit Center   28 is at   4.716057  0.328834  3.281619
      ESP Fit Center   29 is at   4.716057 -0.915198  3.281619
      ESP Fit Center   30 is at   3.447609 -1.868182  2.358265
      ESP Fit Center   31 is at   3.110629 -1.943558  1.672926
      ESP Fit Center   32 is at   6.175589 -0.293182  0.258265
      ESP Fit Center   33 is at   6.018358 -1.032895  0.258265
      ESP Fit Center   34 is at   5.390111  1.268003 -0.486564
      ESP Fit Center   35 is at   4.783599 -1.976548 -0.486564
      ESP Fit Center   36 is at   6.306069 -0.310099 -0.462486
      ESP Fit Center   37 is at   6.118460  0.451061 -0.462486
      ESP Fit Center   38 is at   5.598611  1.037849 -0.462486
      ESP Fit Center   39 is at   5.598611 -1.658047 -0.462486
      ESP Fit Center   40 is at   6.118460 -1.071259 -0.462486
      ESP Fit Center   41 is at   6.306069 -0.310099 -1.210156
      ESP Fit Center   42 is at   6.118460  0.451061 -1.210156
      ESP Fit Center   43 is at   5.598611  1.037849 -1.210156
      ESP Fit Center   44 is at   4.865614 -1.936036 -1.210156
      ESP Fit Center   45 is at   5.598611 -1.658047 -1.210156
      ESP Fit Center   46 is at   6.118460 -1.071259 -1.210156
      ESP Fit Center   47 is at   5.981667 -0.310099 -1.883784
      ESP Fit Center   48 is at   5.730815  0.461943 -1.883784
      ESP Fit Center   49 is at   5.074077  0.939092 -1.883784
      ESP Fit Center   50 is at   4.262303 -1.559290 -1.883784
      ESP Fit Center   51 is at   5.074077 -1.559290 -1.883784
      ESP Fit Center   52 is at   5.730815 -1.082141 -1.883784
      ESP Fit Center   53 is at   5.397115 -0.310099 -2.349949
      ESP Fit Center   54 is at   5.032652  0.321168 -2.349949
      ESP Fit Center   55 is at   4.303728  0.321168 -2.349949
      ESP Fit Center   56 is at   3.939265 -0.310099 -2.349949
      ESP Fit Center   57 is at   4.303728 -0.941366 -2.349949
      ESP Fit Center   58 is at   5.032652 -0.941366 -2.349949
      ESP Fit Center   59 is at   4.668190 -0.310099 -2.516321
      ESP Fit Center   60 is at   5.083886  1.982801 -0.024904
      ESP Fit Center   61 is at   4.683786  2.628985 -0.024904
      ESP Fit Center   62 is at   2.589483  3.224866 -0.754226
      ESP Fit Center   63 is at   2.246117  2.810718 -1.439565
      ESP Fit Center   64 is at   1.898183  2.890529 -1.039509
      ESP Fit Center   65 is at   1.517262  2.639946 -1.724848
      ESP Fit Center   66 is at   1.679522  2.434501 -2.127009
      ESP Fit Center   67 is at   0.901298  2.340007 -2.127009
      ESP Fit Center   68 is at   0.256128  1.894679 -2.127009
      ESP Fit Center   69 is at  -0.108187  1.200534 -2.127009
      ESP Fit Center   70 is at  -0.108187  0.416594 -2.127009
      ESP Fit Center   71 is at   0.256128 -0.277551 -2.127009
      ESP Fit Center   72 is at   2.795575  0.808564 -2.800637
      ESP Fit Center   73 is at   2.544723  1.580606 -2.800637
      ESP Fit Center   74 is at   1.887985  2.057755 -2.800637
      ESP Fit Center   75 is at   1.076211  2.057755 -2.800637
      ESP Fit Center   76 is at   0.419473  1.580606 -2.800637
      ESP Fit Center   77 is at   0.168621  0.808564 -2.800637
      ESP Fit Center   78 is at   0.419473  0.036522 -2.800637
      ESP Fit Center   79 is at   1.076211 -0.440627 -2.800637
      ESP Fit Center   80 is at   1.887985 -0.440627 -2.800637
      ESP Fit Center   81 is at   2.544723  0.036522 -2.800637
      ESP Fit Center   82 is at   2.211023  0.808564 -3.266802
      ESP Fit Center   83 is at   1.846560  1.439831 -3.266802
      ESP Fit Center   84 is at   1.117636  1.439831 -3.266802
      ESP Fit Center   85 is at   0.753173  0.808564 -3.266802
      ESP Fit Center   86 is at   1.117636  0.177297 -3.266802
      ESP Fit Center   87 is at   1.846560  0.177297 -3.266802
      ESP Fit Center   88 is at   1.482098  0.808564 -3.433174
      ESP Fit Center   89 is at   1.651982 -0.511269  1.996422
      ESP Fit Center   90 is at   1.292861  0.110747  1.869776
      ESP Fit Center   91 is at   0.933740 -0.511269  1.869776
      ESP Fit Center   92 is at   1.292861 -1.133285  1.869776
      ESP Fit Center   93 is at   2.011103 -1.133285  1.869776
      ESP Fit Center   94 is at   2.212732 -1.739139  1.505115
      ESP Fit Center   95 is at   2.492144 -1.787919  1.364672
      ESP Fit Center   96 is at   2.174209 -2.338598  0.939797
      ESP Fit Center   97 is at   2.867174 -2.524277  0.939797
      ESP Fit Center   98 is at   3.560139 -2.338598  0.939797
      ESP Fit Center   99 is at   2.677893 -2.939232  0.303927
      ESP Fit Center  100 is at   3.426743 -2.860525  0.303927
      ESP Fit Center  101 is at   4.078838 -2.484038  0.303927
      ESP Fit Center  102 is at   2.330794 -3.023526 -0.446132
      ESP Fit Center  103 is at   3.048020 -3.089987 -0.446132
      ESP Fit Center  104 is at   3.740821 -2.892868 -0.446132
      ESP Fit Center  105 is at   4.315631 -2.458791 -0.446132
      ESP Fit Center  106 is at   2.677893 -2.939232 -1.196192
      ESP Fit Center  107 is at   3.426743 -2.860525 -1.196192
      ESP Fit Center  108 is at   4.078838 -2.484038 -1.196192
      ESP Fit Center  109 is at   1.666924 -1.831313 -1.832061
      ESP Fit Center  110 is at   2.174209 -2.338598 -1.832061
      ESP Fit Center  111 is at   2.867174 -2.524277 -1.832061
      ESP Fit Center  112 is at   3.560139 -2.338598 -1.832061
      ESP Fit Center  113 is at   4.067424 -1.831313 -1.832061
      ESP Fit Center  114 is at   3.617233 -1.138348 -2.256936
      ESP Fit Center  115 is at   3.242204 -0.488777 -2.256936
      ESP Fit Center  116 is at   2.492144 -0.488777 -2.256936
      ESP Fit Center  117 is at   2.117114 -1.138348 -2.256936
      ESP Fit Center  118 is at   2.492144 -1.787919 -2.256936
      ESP Fit Center  119 is at   3.242204 -1.787919 -2.256936
      ESP Fit Center  120 is at   2.867174 -1.138348 -2.406132
      ESP Fit Center  121 is at   0.476635 -1.233731  1.944032
      ESP Fit Center  122 is at   1.194877 -1.233731  1.817386
      ESP Fit Center  123 is at  -0.241607 -1.233731  1.817386
      ESP Fit Center  124 is at   0.117514 -1.855747  1.817386
      ESP Fit Center  125 is at   0.835756 -1.855747  1.817386
      ESP Fit Center  126 is at   1.612204 -1.963517  1.452725
      ESP Fit Center  127 is at  -0.818540 -1.614029 -1.764661
      ESP Fit Center  128 is at   1.612204 -1.963517 -1.764661
      ESP Fit Center  129 is at   1.194877 -1.233731 -2.129323
      ESP Fit Center  130 is at   0.117514 -0.611715 -2.129323
      ESP Fit Center  131 is at  -0.241607 -1.233731 -2.129323
      ESP Fit Center  132 is at   0.117514 -1.855747 -2.129323
      ESP Fit Center  133 is at   0.835756 -1.855747 -2.129323
      ESP Fit Center  134 is at   0.476635 -1.233731 -2.255968
      ESP Fit Center  135 is at   0.389307 -2.448044  1.794303
      ESP Fit Center  136 is at   1.139366 -2.448044  1.645107
      ESP Fit Center  137 is at  -0.360753 -2.448044  1.645107
      ESP Fit Center  138 is at   0.014277 -3.097615  1.645107
      ESP Fit Center  139 is at   0.764337 -3.097615  1.645107
      ESP Fit Center  140 is at   1.775236 -2.448044  1.220232
      ESP Fit Center  141 is at  -0.996622 -2.448044  1.220232
      ESP Fit Center  142 is at  -0.810943 -3.141009  1.220232
      ESP Fit Center  143 is at  -0.303658 -3.648294  1.220232
      ESP Fit Center  144 is at   0.389307 -3.833973  1.220232
      ESP Fit Center  145 is at   1.082272 -3.648294  1.220232
      ESP Fit Center  146 is at   1.589557 -3.141009  1.220232
      ESP Fit Center  147 is at  -1.075664 -3.512408  0.584362
      ESP Fit Center  148 is at  -0.516095 -4.016246  0.584362
      ESP Fit Center  149 is at   0.200026 -4.248928  0.584362
      ESP Fit Center  150 is at   0.948876 -4.170221  0.584362
      ESP Fit Center  151 is at   1.600971 -3.793734  0.584362
      ESP Fit Center  152 is at   2.043559 -3.184564  0.584362
      ESP Fit Center  153 is at  -1.277119 -3.479851 -0.165697
      ESP Fit Center  154 is at  -0.791857 -4.012158 -0.165697
      ESP Fit Center  155 is at  -0.147073 -4.333222 -0.165697
      ESP Fit Center  156 is at   0.570153 -4.399683 -0.165697
      ESP Fit Center  157 is at   1.262954 -4.202564 -0.165697
      ESP Fit Center  158 is at   1.837764 -3.768487 -0.165697
      ESP Fit Center  159 is at   2.216953 -3.156078 -0.165697
      ESP Fit Center  160 is at  -1.075664 -3.512408 -0.915757
      ESP Fit Center  161 is at  -0.516095 -4.016246 -0.915757
      ESP Fit Center  162 is at   0.200026 -4.248928 -0.915757
      ESP Fit Center  163 is at   0.948876 -4.170221 -0.915757
      ESP Fit Center  164 is at   1.600971 -3.793734 -0.915757
      ESP Fit Center  165 is at   2.043559 -3.184564 -0.915757
      ESP Fit Center  166 is at   1.775236 -2.448044 -1.551626
      ESP Fit Center  167 is at  -0.996622 -2.448044 -1.551626
      ESP Fit Center  168 is at  -0.810943 -3.141009 -1.551626
      ESP Fit Center  169 is at  -0.303658 -3.648294 -1.551626
      ESP Fit Center  170 is at   0.389307 -3.833973 -1.551626
      ESP Fit Center  171 is at   1.082272 -3.648294 -1.551626
      ESP Fit Center  172 is at   1.589557 -3.141009 -1.551626
      ESP Fit Center  173 is at   1.139366 -2.448044 -1.976501
      ESP Fit Center  174 is at  -0.360753 -2.448044 -1.976501
      ESP Fit Center  175 is at   0.014277 -3.097615 -1.976501
      ESP Fit Center  176 is at   0.764337 -3.097615 -1.976501
      ESP Fit Center  177 is at   0.389307 -2.448044 -2.125697
      ESP Fit Center  178 is at  -0.688211 -0.289975  2.009079
      ESP Fit Center  179 is at   0.030031 -0.289975  1.882433
      ESP Fit Center  180 is at  -1.047332  0.332041  1.882433
      ESP Fit Center  181 is at  -1.047332 -0.911991  1.882433
      ESP Fit Center  182 is at  -0.329090 -0.911991  1.882433
      ESP Fit Center  183 is at   0.030031 -0.289975 -2.064276
      ESP Fit Center  184 is at  -0.329090  0.332041 -2.064276
      ESP Fit Center  185 is at  -1.047332  0.332041 -2.064276
      ESP Fit Center  186 is at  -1.406453 -0.289975 -2.064276
      ESP Fit Center  187 is at  -1.047332 -0.911991 -2.064276
      ESP Fit Center  188 is at  -0.688211 -0.289975 -2.190921
      ESP Fit Center  189 is at  -1.983692 -0.814938  2.050207
      ESP Fit Center  190 is at  -1.265450 -0.814938  1.923561
      ESP Fit Center  191 is at  -1.624571 -0.192922  1.923561
      ESP Fit Center  192 is at  -2.342813 -1.436954  1.923561
      ESP Fit Center  193 is at  -1.624571 -1.436954  1.923561
      ESP Fit Center  194 is at  -2.867658 -1.835090  1.558900
      ESP Fit Center  195 is at  -2.175796 -2.151052  1.558900
      ESP Fit Center  196 is at  -1.422942 -2.042808  1.558900
      ESP Fit Center  197 is at  -2.867658 -1.835090 -1.658486
      ESP Fit Center  198 is at  -1.422942 -2.042808 -1.658486
      ESP Fit Center  199 is at  -1.624571 -0.192922 -2.023148
      ESP Fit Center  200 is at  -2.342813 -0.192922 -2.023148
      ESP Fit Center  201 is at  -2.701934 -0.814938 -2.023148
      ESP Fit Center  202 is at  -2.342813 -1.436954 -2.023148
      ESP Fit Center  203 is at  -1.624571 -1.436954 -2.023148
      ESP Fit Center  204 is at  -1.983692 -0.814938 -2.149793
      ESP Fit Center  205 is at  -3.066836  0.043947  2.184748
      ESP Fit Center  206 is at  -2.348594  0.043947  2.058102
      ESP Fit Center  207 is at  -2.707715 -0.578069  2.058102
      ESP Fit Center  208 is at  -2.707715  0.665963 -1.888607
      ESP Fit Center  209 is at  -3.425957  0.665963 -1.888607
      ESP Fit Center  210 is at  -3.425957 -0.578069 -1.888607
      ESP Fit Center  211 is at  -3.066836  0.043947 -2.015252
      ESP Fit Center  212 is at  -2.879532  1.425810  2.291845
      ESP Fit Center  213 is at  -2.161290  1.425810  2.165199
      ESP Fit Center  214 is at  -2.520411  2.047826  2.165199
      ESP Fit Center  215 is at  -3.238653  2.047826  2.165199
      ESP Fit Center  216 is at  -3.597774  1.425810  2.165199
      ESP Fit Center  217 is at  -3.238653  0.803794  2.165199
      ESP Fit Center  218 is at  -2.520411  0.803794  2.165199
      ESP Fit Center  219 is at  -3.071636  2.761924  1.800538
      ESP Fit Center  220 is at  -4.174707  1.045512  1.800538
      ESP Fit Center  221 is at  -3.069633  3.234501 -0.858155
      ESP Fit Center  222 is at  -3.071636  2.761924 -1.416848
      ESP Fit Center  223 is at  -3.763498  2.445962 -1.416848
      ESP Fit Center  224 is at  -4.174707  1.806108 -1.416848
      ESP Fit Center  225 is at  -2.520411  2.047826 -1.781510
      ESP Fit Center  226 is at  -3.238653  2.047826 -1.781510
      ESP Fit Center  227 is at  -3.597774  1.425810 -1.781510
      ESP Fit Center  228 is at  -2.879532  1.425810 -1.908155
      ESP Fit Center  229 is at  -1.592672  1.955118  2.247847
      ESP Fit Center  230 is at  -0.874430  1.955118  2.121201
      ESP Fit Center  231 is at  -1.233551  2.577134  2.121201
      ESP Fit Center  232 is at  -1.951793  2.577134  2.121201
      ESP Fit Center  233 is at  -1.951793  1.333102  2.121201
      ESP Fit Center  234 is at  -1.233551  1.333102  2.121201
      ESP Fit Center  235 is at  -0.457103  2.684904  1.756540
      ESP Fit Center  236 is at  -2.476638  2.975270  1.756540
      ESP Fit Center  237 is at  -0.457103  2.684904 -1.460846
      ESP Fit Center  238 is at  -1.031922  3.182988 -1.460846
      ESP Fit Center  239 is at  -1.784776  3.291232 -1.460846
      ESP Fit Center  240 is at  -2.476638  2.975270 -1.460846
      ESP Fit Center  241 is at  -1.233551  2.577134 -1.825508
      ESP Fit Center  242 is at  -1.951793  2.577134 -1.825508
      ESP Fit Center  243 is at  -2.310914  1.955118 -1.825508
      ESP Fit Center  244 is at  -1.951793  1.333102 -1.825508
      ESP Fit Center  245 is at  -1.592672  1.955118 -1.952153
      ESP Fit Center  246 is at  -0.499807  1.100913  2.099983
      ESP Fit Center  247 is at   0.218435  1.100913  1.973337
      ESP Fit Center  248 is at  -0.140686  1.722929  1.973337
      ESP Fit Center  249 is at  -0.858928  0.478897  1.973337
      ESP Fit Center  250 is at  -0.140686  0.478897  1.973337
      ESP Fit Center  251 is at   0.635762  0.371127  1.608676
      ESP Fit Center  252 is at  -1.794982  0.720615 -1.608710
      ESP Fit Center  253 is at  -0.140686  1.722929 -1.973372
      ESP Fit Center  254 is at  -0.858928  1.722929 -1.973372
      ESP Fit Center  255 is at  -1.218049  1.100913 -1.973372
      ESP Fit Center  256 is at  -0.499807  1.100913 -2.100017
      ESP Fit Center  257 is at   0.757910  1.657524  1.932478
      ESP Fit Center  258 is at   1.507969  1.657524  1.783282
      ESP Fit Center  259 is at   1.132940  2.307095  1.783282
      ESP Fit Center  260 is at   0.382880  2.307095  1.783282
      ESP Fit Center  261 is at   1.132940  1.007953  1.783282
      ESP Fit Center  262 is at   1.450875  2.857774  1.358407
      ESP Fit Center  263 is at   0.757910  3.043453  1.358407
      ESP Fit Center  264 is at   0.064945  2.857774  1.358407
      ESP Fit Center  265 is at   1.317479  3.379701  0.722537
      ESP Fit Center  266 is at   0.568629  3.458408  0.722537
      ESP Fit Center  267 is at   1.631557  3.412044 -0.027522
      ESP Fit Center  268 is at   0.938756  3.609163 -0.027522
      ESP Fit Center  269 is at   0.221530  3.542702 -0.027522
      ESP Fit Center  270 is at   1.969574  3.003214 -0.777582
      ESP Fit Center  271 is at   1.317479  3.379701 -0.777582
      ESP Fit Center  272 is at   0.568629  3.458408 -0.777582
      ESP Fit Center  273 is at   1.450875  2.857774 -1.413451
      ESP Fit Center  274 is at   0.757910  3.043453 -1.413451
      ESP Fit Center  275 is at   0.064945  2.857774 -1.413451
      ESP Fit Center  276 is at   0.382880  2.307095 -1.838326
      ESP Fit Center  277 is at  -4.697599 -0.610183  2.512639
      ESP Fit Center  278 is at  -3.962139 -0.610183  2.396153
      ESP Fit Center  279 is at  -4.329869  0.026744  2.396153
      ESP Fit Center  280 is at  -5.065329  0.026744  2.396153
      ESP Fit Center  281 is at  -5.433060 -0.610183  2.396153
      ESP Fit Center  282 is at  -5.065329 -1.247110  2.396153
      ESP Fit Center  283 is at  -4.329869 -1.247110  2.396153
      ESP Fit Center  284 is at  -3.998135  0.601325  2.058099
      ESP Fit Center  285 is at  -4.697599  0.788746  2.058099
      ESP Fit Center  286 is at  -5.397064  0.601325  2.058099
      ESP Fit Center  287 is at  -5.909107  0.089281  2.058099
      ESP Fit Center  288 is at  -6.096528 -0.610183  2.058099
      ESP Fit Center  289 is at  -5.909107 -1.309648  2.058099
      ESP Fit Center  290 is at  -5.397064 -1.821691  2.058099
      ESP Fit Center  291 is at  -4.697599 -2.009112  2.058099
      ESP Fit Center  292 is at  -3.998135 -1.821691  2.058099
      ESP Fit Center  293 is at  -3.486091 -1.309648  2.058099
      ESP Fit Center  294 is at  -4.697599  1.315277  1.531568
      ESP Fit Center  295 is at  -5.434441  1.168710  1.531568
      ESP Fit Center  296 is at  -6.059105  0.751323  1.531568
      ESP Fit Center  297 is at  -6.476493  0.126659  1.531568
      ESP Fit Center  298 is at  -6.623060 -0.610183  1.531568
      ESP Fit Center  299 is at  -6.476493 -1.347025  1.531568
      ESP Fit Center  300 is at  -6.059105 -1.971689  1.531568
      ESP Fit Center  301 is at  -5.434441 -2.389077  1.531568
      ESP Fit Center  302 is at  -4.697599 -2.535644  1.531568
      ESP Fit Center  303 is at  -3.960757 -2.389077  1.531568
      ESP Fit Center  304 is at  -3.336093 -1.971689  1.531568
      ESP Fit Center  305 is at  -5.606842  1.462683  0.868099
      ESP Fit Center  306 is at  -6.230636  1.055139  0.868099
      ESP Fit Center  307 is at  -6.688301  0.467131  0.868099
      ESP Fit Center  308 is at  -6.930242 -0.237621  0.868099
      ESP Fit Center  309 is at  -6.930242 -0.982745  0.868099
      ESP Fit Center  310 is at  -6.688301 -1.687497  0.868099
      ESP Fit Center  311 is at  -6.230636 -2.275505  0.868099
      ESP Fit Center  312 is at  -5.606842 -2.683049  0.868099
      ESP Fit Center  313 is at  -4.884519 -2.865967  0.868099
      ESP Fit Center  314 is at  -4.141939 -2.804435  0.868099
      ESP Fit Center  315 is at  -3.459574 -2.505122  0.868099
      ESP Fit Center  316 is at  -5.887599  1.450957  0.132639
      ESP Fit Center  317 is at  -6.442263  1.008628  0.132639
      ESP Fit Center  318 is at  -6.841905  0.422460  0.132639
      ESP Fit Center  319 is at  -7.051016 -0.255462  0.132639
      ESP Fit Center  320 is at  -7.051016 -0.964904  0.132639
      ESP Fit Center  321 is at  -6.841905 -1.642826  0.132639
      ESP Fit Center  322 is at  -6.442263 -2.228994  0.132639
      ESP Fit Center  323 is at  -5.887599 -2.671324  0.132639
      ESP Fit Center  324 is at  -5.227199 -2.930511  0.132639
      ESP Fit Center  325 is at  -4.519741 -2.983528  0.132639
      ESP Fit Center  326 is at  -3.828087 -2.825663  0.132639
      ESP Fit Center  327 is at  -5.606842  1.462683 -0.602822
      ESP Fit Center  328 is at  -6.230636  1.055139 -0.602822
      ESP Fit Center  329 is at  -6.688301  0.467131 -0.602822
      ESP Fit Center  330 is at  -6.930242 -0.237621 -0.602822
      ESP Fit Center  331 is at  -6.930242 -0.982745 -0.602822
      ESP Fit Center  332 is at  -6.688301 -1.687497 -0.602822
      ESP Fit Center  333 is at  -6.230636 -2.275505 -0.602822
      ESP Fit Center  334 is at  -5.606842 -2.683049 -0.602822
      ESP Fit Center  335 is at  -4.884519 -2.865967 -0.602822
      ESP Fit Center  336 is at  -4.141939 -2.804435 -0.602822
      ESP Fit Center  337 is at  -4.697599  1.315277 -1.266290
      ESP Fit Center  338 is at  -5.434441  1.168710 -1.266290
      ESP Fit Center  339 is at  -6.059105  0.751323 -1.266290
      ESP Fit Center  340 is at  -6.476493  0.126659 -1.266290
      ESP Fit Center  341 is at  -6.623060 -0.610183 -1.266290
      ESP Fit Center  342 is at  -6.476493 -1.347025 -1.266290
      ESP Fit Center  343 is at  -6.059105 -1.971689 -1.266290
      ESP Fit Center  344 is at  -5.434441 -2.389077 -1.266290
      ESP Fit Center  345 is at  -4.697599 -2.535644 -1.266290
      ESP Fit Center  346 is at  -3.960757 -2.389077 -1.266290
      ESP Fit Center  347 is at  -3.336093 -1.971689 -1.266290
      ESP Fit Center  348 is at  -3.998135  0.601325 -1.792822
      ESP Fit Center  349 is at  -4.697599  0.788746 -1.792822
      ESP Fit Center  350 is at  -5.397064  0.601325 -1.792822
      ESP Fit Center  351 is at  -5.909107  0.089281 -1.792822
      ESP Fit Center  352 is at  -6.096528 -0.610183 -1.792822
      ESP Fit Center  353 is at  -5.909107 -1.309648 -1.792822
      ESP Fit Center  354 is at  -5.397064 -1.821691 -1.792822
      ESP Fit Center  355 is at  -4.697599 -2.009112 -1.792822
      ESP Fit Center  356 is at  -3.998135 -1.821691 -1.792822
      ESP Fit Center  357 is at  -3.486091 -1.309648 -1.792822
      ESP Fit Center  358 is at  -3.962139 -0.610183 -2.130876
      ESP Fit Center  359 is at  -4.329869  0.026744 -2.130876
      ESP Fit Center  360 is at  -5.065329  0.026744 -2.130876
      ESP Fit Center  361 is at  -5.433060 -0.610183 -2.130876
      ESP Fit Center  362 is at  -5.065329 -1.247110 -2.130876
      ESP Fit Center  363 is at  -4.329869 -1.247110 -2.130876
      ESP Fit Center  364 is at  -4.697599 -0.610183 -2.247361
      ESP Fit Center  365 is at   3.529144 -0.173995  3.695036
      ESP Fit Center  366 is at   4.258069 -0.173995  3.528664
      ESP Fit Center  367 is at   3.893606  0.457272  3.528664
      ESP Fit Center  368 is at   3.164682  0.457272  3.528664
      ESP Fit Center  369 is at   2.800219 -0.173995  3.528664
      ESP Fit Center  370 is at   3.164682 -0.805262  3.528664
      ESP Fit Center  371 is at   3.893606 -0.805262  3.528664
      ESP Fit Center  372 is at   3.935031  1.075196  3.062499
      ESP Fit Center  373 is at   3.123257  1.075196  3.062499
      ESP Fit Center  374 is at   2.466519  0.598047  3.062499
      ESP Fit Center  375 is at   2.215667 -0.173995  3.062499
      ESP Fit Center  376 is at   2.466519 -0.946037  3.062499
      ESP Fit Center  377 is at   3.123257 -1.423186  3.062499
      ESP Fit Center  378 is at   3.935031 -1.423186  3.062499
      ESP Fit Center  379 is at   3.726568  1.451942  2.388871
      ESP Fit Center  380 is at   2.948344  1.357448  2.388871
      ESP Fit Center  381 is at   2.303174  0.912120  2.388871
      ESP Fit Center  382 is at   1.938859  0.217975  2.388871
      ESP Fit Center  383 is at   1.938859 -0.565965  2.388871
      ESP Fit Center  384 is at   2.303174 -1.260110  2.388871
      ESP Fit Center  385 is at   2.948344 -1.705438  2.388871
      ESP Fit Center  386 is at   2.303174  0.912120  1.641201
      ESP Fit Center  387 is at   4.792744 -1.287082  3.126913
      ESP Fit Center  388 is at   5.521669 -1.287082  2.960541
      ESP Fit Center  389 is at   4.428282 -1.918349  2.960541
      ESP Fit Center  390 is at   5.157206 -1.918349  2.960541
      ESP Fit Center  391 is at   6.106221 -1.287082  2.494376
      ESP Fit Center  392 is at   3.730119 -2.059124  2.494376
      ESP Fit Center  393 is at   4.386857 -2.536273  2.494376
      ESP Fit Center  394 is at   5.198631 -2.536273  2.494376
      ESP Fit Center  395 is at   5.855369 -2.059124  2.494376
      ESP Fit Center  396 is at   6.430623 -1.287082  1.820748
      ESP Fit Center  397 is at   3.566774 -2.373197  1.820748
      ESP Fit Center  398 is at   4.211944 -2.818525  1.820748
      ESP Fit Center  399 is at   4.990168 -2.913019  1.820748
      ESP Fit Center  400 is at   5.723165 -2.635030  1.820748
      ESP Fit Center  401 is at   6.243014 -2.048242  1.820748
      ESP Fit Center  402 is at   6.430623 -1.287082  1.073078
      ESP Fit Center  403 is at   3.566774 -2.373197  1.073078
      ESP Fit Center  404 is at   4.211944 -2.818525  1.073078
      ESP Fit Center  405 is at   4.990168 -2.913019  1.073078
      ESP Fit Center  406 is at   5.723165 -2.635030  1.073078
      ESP Fit Center  407 is at   6.243014 -2.048242  1.073078
      ESP Fit Center  408 is at   6.106221 -1.287082  0.399450
      ESP Fit Center  409 is at   4.386857 -2.536273  0.399450
      ESP Fit Center  410 is at   5.198631 -2.536273  0.399450
      ESP Fit Center  411 is at   5.855369 -2.059124  0.399450
      ESP Fit Center  412 is at   5.157206 -1.918349 -0.066715
      ESP Fit Center  413 is at   5.121864  0.457591  3.219493
      ESP Fit Center  414 is at   5.850789  0.457591  3.053121
      ESP Fit Center  415 is at   5.486326  1.088858  3.053121
      ESP Fit Center  416 is at   4.757402  1.088858  3.053121
      ESP Fit Center  417 is at   6.435341  0.457591  2.586956
      ESP Fit Center  418 is at   6.184489  1.229633  2.586956
      ESP Fit Center  419 is at   5.527751  1.706782  2.586956
      ESP Fit Center  420 is at   4.715977  1.706782  2.586956
      ESP Fit Center  421 is at   6.184489 -0.314451  2.586956
      ESP Fit Center  422 is at   6.759743  0.457591  1.913328
      ESP Fit Center  423 is at   6.572134  1.218751  1.913328
      ESP Fit Center  424 is at   6.052285  1.805539  1.913328
      ESP Fit Center  425 is at   5.319288  2.083528  1.913328
      ESP Fit Center  426 is at   4.541064  1.989034  1.913328
      ESP Fit Center  427 is at   6.572134 -0.303569  1.913328
      ESP Fit Center  428 is at   6.759743  0.457591  1.165658
      ESP Fit Center  429 is at   6.572134  1.218751  1.165658
      ESP Fit Center  430 is at   6.052285  1.805539  1.165658
      ESP Fit Center  431 is at   5.319288  2.083528  1.165658
      ESP Fit Center  432 is at   6.572134 -0.303569  1.165658
      ESP Fit Center  433 is at   6.435341  0.457591  0.492030
      ESP Fit Center  434 is at   6.184489  1.229633  0.492030
      ESP Fit Center  435 is at   5.527751  1.706782  0.492030
      ESP Fit Center  436 is at   5.231735  1.779956 -0.855280
      ESP Fit Center  437 is at   5.044126  2.541116 -0.855280
      ESP Fit Center  438 is at   4.524277  3.127904 -0.855280
      ESP Fit Center  439 is at   3.791280  3.405893 -0.855280
      ESP Fit Center  440 is at   3.013056  3.311399 -0.855280
      ESP Fit Center  441 is at   5.231735  1.779956 -1.602950
      ESP Fit Center  442 is at   5.044126  2.541116 -1.602950
      ESP Fit Center  443 is at   4.524277  3.127904 -1.602950
      ESP Fit Center  444 is at   3.791280  3.405893 -1.602950
      ESP Fit Center  445 is at   3.013056  3.311399 -1.602950
      ESP Fit Center  446 is at   2.367886  2.866071 -1.602950
      ESP Fit Center  447 is at   4.907333  1.779956 -2.276578
      ESP Fit Center  448 is at   4.656481  2.551998 -2.276578
      ESP Fit Center  449 is at   3.999743  3.029147 -2.276578
      ESP Fit Center  450 is at   3.187969  3.029147 -2.276578
      ESP Fit Center  451 is at   2.531231  2.551998 -2.276578
      ESP Fit Center  452 is at   3.999743  0.530765 -2.276578
      ESP Fit Center  453 is at   4.656481  1.007914 -2.276578
      ESP Fit Center  454 is at   4.322781  1.779956 -2.742743
      ESP Fit Center  455 is at   3.958318  2.411223 -2.742743
      ESP Fit Center  456 is at   3.229394  2.411223 -2.742743
      ESP Fit Center  457 is at   2.864931  1.779956 -2.742743
      ESP Fit Center  458 is at   3.229394  1.148689 -2.742743
      ESP Fit Center  459 is at   3.958318  1.148689 -2.742743
      ESP Fit Center  460 is at   3.593856  1.779956 -2.909115
      ESP Fit Center  461 is at   3.178147  1.878439  2.174888
      ESP Fit Center  462 is at   3.907072  1.878439  2.008516
      ESP Fit Center  463 is at   3.542609  2.509706  2.008516
      ESP Fit Center  464 is at   2.813685  2.509706  2.008516
      ESP Fit Center  465 is at   2.449222  1.878439  2.008516
      ESP Fit Center  466 is at   4.240772  2.650481  1.542351
      ESP Fit Center  467 is at   3.584034  3.127630  1.542351
      ESP Fit Center  468 is at   2.772260  3.127630  1.542351
      ESP Fit Center  469 is at   2.115522  2.650481  1.542351
      ESP Fit Center  470 is at   2.115522  1.106397  1.542351
      ESP Fit Center  471 is at   4.628417  2.639599  0.868723
      ESP Fit Center  472 is at   4.108568  3.226387  0.868723
      ESP Fit Center  473 is at   3.375571  3.504376  0.868723
      ESP Fit Center  474 is at   2.597347  3.409882  0.868723
      ESP Fit Center  475 is at   1.952177  2.964554  0.868723
      ESP Fit Center  476 is at   4.108568  3.226387  0.121053
      ESP Fit Center  477 is at   3.375571  3.504376  0.121053
      ESP Fit Center  478 is at   2.597347  3.409882  0.121053
      ESP Fit Center  479 is at  -2.474114 -2.521512  1.403301
      ESP Fit Center  480 is at  -1.745190 -2.521512  1.403301
      ESP Fit Center  481 is at  -3.172277 -2.662287  0.937136
      ESP Fit Center  482 is at  -2.515539 -3.139436  0.937136
      ESP Fit Center  483 is at  -1.703765 -3.139436  0.937136
      ESP Fit Center  484 is at  -3.335622 -2.976360  0.263508
      ESP Fit Center  485 is at  -2.690452 -3.421688  0.263508
      ESP Fit Center  486 is at  -1.912228 -3.516182  0.263508
      ESP Fit Center  487 is at  -3.335622 -2.976360 -0.484162
      ESP Fit Center  488 is at  -2.690452 -3.421688 -0.484162
      ESP Fit Center  489 is at  -1.912228 -3.516182 -0.484162
      ESP Fit Center  490 is at  -3.172277 -2.662287 -1.157790
      ESP Fit Center  491 is at  -2.515539 -3.139436 -1.157790
      ESP Fit Center  492 is at  -1.703765 -3.139436 -1.157790
      ESP Fit Center  493 is at  -2.474114 -2.521512 -1.623955
      ESP Fit Center  494 is at  -1.745190 -2.521512 -1.623955
      ESP Fit Center  495 is at  -3.372591  2.712610  1.813330
      ESP Fit Center  496 is at  -4.101515  2.712610  1.813330
      ESP Fit Center  497 is at  -4.465978  2.081343  1.813330
      ESP Fit Center  498 is at  -3.331166  3.330534  1.347165
      ESP Fit Center  499 is at  -4.142940  3.330534  1.347165
      ESP Fit Center  500 is at  -4.799678  2.853385  1.347165
      ESP Fit Center  501 is at  -5.050530  2.081343  1.347165
      ESP Fit Center  502 is at  -3.539629  3.707280  0.673537
      ESP Fit Center  503 is at  -4.317853  3.612786  0.673537
      ESP Fit Center  504 is at  -4.963023  3.167458  0.673537
      ESP Fit Center  505 is at  -5.327338  2.473313  0.673537
      ESP Fit Center  506 is at  -5.327338  1.689373  0.673537
      ESP Fit Center  507 is at  -3.539629  3.707280 -0.074133
      ESP Fit Center  508 is at  -4.317853  3.612786 -0.074133
      ESP Fit Center  509 is at  -4.963023  3.167458 -0.074133
      ESP Fit Center  510 is at  -5.327338  2.473313 -0.074133
      ESP Fit Center  511 is at  -5.327338  1.689373 -0.074133
      ESP Fit Center  512 is at  -3.331166  3.330534 -0.747761
      ESP Fit Center  513 is at  -4.142940  3.330534 -0.747761
      ESP Fit Center  514 is at  -4.799678  2.853385 -0.747761
      ESP Fit Center  515 is at  -5.050530  2.081343 -0.747761
      ESP Fit Center  516 is at  -4.101515  2.712610 -1.213926
      ESP Fit Center  517 is at  -4.465978  2.081343 -1.213926
      ESP Fit Center  518 is at  -0.694606  3.024442  1.733394
      ESP Fit Center  519 is at  -1.059069  3.655709  1.733394
      ESP Fit Center  520 is at  -1.787993  3.655709  1.733394
      ESP Fit Center  521 is at  -0.110054  3.024442  1.267229
      ESP Fit Center  522 is at  -0.360906  3.796484  1.267229
      ESP Fit Center  523 is at  -1.017644  4.273633  1.267229
      ESP Fit Center  524 is at  -1.829418  4.273633  1.267229
      ESP Fit Center  525 is at  -2.486156  3.796484  1.267229
      ESP Fit Center  526 is at   0.026739  3.785602  0.593601
      ESP Fit Center  527 is at  -0.493110  4.372390  0.593601
      ESP Fit Center  528 is at  -1.226107  4.650379  0.593601
      ESP Fit Center  529 is at  -2.004331  4.555885  0.593601
      ESP Fit Center  530 is at  -2.649501  4.110557  0.593601
      ESP Fit Center  531 is at   0.026739  3.785602 -0.154069
      ESP Fit Center  532 is at  -0.493110  4.372390 -0.154069
      ESP Fit Center  533 is at  -1.226107  4.650379 -0.154069
      ESP Fit Center  534 is at  -2.004331  4.555885 -0.154069
      ESP Fit Center  535 is at  -2.649501  4.110557 -0.154069
      ESP Fit Center  536 is at  -0.360906  3.796484 -0.827697
      ESP Fit Center  537 is at  -1.017644  4.273633 -0.827697
      ESP Fit Center  538 is at  -1.829418  4.273633 -0.827697
      ESP Fit Center  539 is at  -2.486156  3.796484 -0.827697
      ESP Fit Center  540 is at  -1.059069  3.655709 -1.293862
      ESP Fit Center  541 is at  -1.787993  3.655709 -1.293862
      ESP Fit Center  542 is at   5.088790 -0.293182  3.560679
      ESP Fit Center  543 is at   4.722863  0.340622  3.560679
      ESP Fit Center  544 is at   4.722863 -0.926986  3.560679
      ESP Fit Center  545 is at   5.749004 -0.293182  3.224283
      ESP Fit Center  546 is at   4.158824 -1.671081  3.224283
      ESP Fit Center  547 is at   5.528018 -1.045791  3.224283
      ESP Fit Center  548 is at   2.831417 -1.950337  2.040119
      ESP Fit Center  549 is at   6.609350 -0.293182  0.576411
      ESP Fit Center  550 is at   6.487308 -1.024540  0.576411
      ESP Fit Center  551 is at   5.777787  1.266804 -0.121903
      ESP Fit Center  552 is at   6.418630 -0.310099 -0.111265
      ESP Fit Center  553 is at   6.245282  0.449388 -0.111265
      ESP Fit Center  554 is at   6.245282 -1.069586 -0.111265
      ESP Fit Center  555 is at   6.562852 -0.310099 -0.836321
      ESP Fit Center  556 is at   6.418630  0.414957 -0.836321
      ESP Fit Center  557 is at   6.007919  1.029630 -0.836321
      ESP Fit Center  558 is at   5.393246 -2.060539 -0.836321
      ESP Fit Center  559 is at   6.007919 -1.649828 -0.836321
      ESP Fit Center  560 is at   6.418630 -1.035155 -0.836321
      ESP Fit Center  561 is at   6.418630 -0.310099 -1.561377
      ESP Fit Center  562 is at   6.245282  0.449388 -1.561377
      ESP Fit Center  563 is at   5.759571  1.058450 -1.561377
[...]
 2589 Fit       0.013347
 2590 Fit       0.010451
 2591 Fit       0.021981
 2592 Fit       0.014170
 2593 Fit       0.011591
 2594 Fit       0.013283
 2595 Fit       0.014474
 2596 Fit       0.017153
 2597 Fit       0.014184
 2598 Fit       0.013825
 2599 Fit       0.012384
 2600 Fit       0.019442
 2601 Fit       0.016695
 2602 Fit       0.014568
 2603 Fit       0.012984
 2604 Fit       0.011505
 2605 Fit       0.010044
 2606 Fit       0.008791
 2607 Fit       0.007398
 2608 Fit       0.005069
 2609 Fit       0.002779
 2610 Fit       0.002990
 2611 Fit       0.007649
 2612 Fit       0.014804
 2613 Fit       0.016870
 2614 Fit       0.018583
 2615 Fit       0.017622
 2616 Fit       0.015654
 2617 Fit       0.013787
 2618 Fit       0.012094
 2619 Fit       0.010507
 2620 Fit       0.008960
 2621 Fit       0.007728
 2622 Fit       0.008621
 2623 Fit       0.012587
 2624 Fit       0.014782
 2625 Fit       0.015646
 2626 Fit       0.014186
 2627 Fit       0.012324
 2628 Fit       0.011017
 2629 Fit       0.011855
 2630 Fit       0.013404
 2631 Fit      -0.004688
 2632 Fit      -0.007239
 2633 Fit      -0.013278
 2634 Fit      -0.028439
 2635 Fit      -0.035544
 2636 Fit      -0.025326
 2637 Fit      -0.034597
 2638 Fit      -0.024817
 2639 Fit      -0.015886
 2640 Fit      -0.033840
 2641 Fit      -0.024790
 2642 Fit      -0.016474
 2643 Fit      -0.007926
 2644 Fit      -0.033038
 2645 Fit      -0.025035
 2646 Fit      -0.017456
 2647 Fit      -0.009523
 2648 Fit      -0.026448
 2649 Fit      -0.019795
 2650 Fit      -0.012528
 2651 Fit      -0.004349
 2652 Fit      -0.024709
 2653 Fit      -0.021015
 2654 Fit      -0.015311
 2655 Fit      -0.008149
 2656 Fit      -0.009129
 2657 Fit      -0.015711
 2658 Fit      -0.015642
 2659 Fit      -0.011106
 2660 Fit      -0.003973
 2661 Fit       0.001008
 2662 Fit       0.007895
 2663 Fit       0.000433
 2664 Fit      -0.007834
 2665 Fit      -0.006593
 2666 Fit      -0.000201
 2667 Fit      -0.008323
 2668 Fit      -0.008564
 2669 Fit      -0.012335
 2670 Fit      -0.012591
 2671 Fit      -0.012653
 2672 Fit      -0.018617
 2673 Fit      -0.007466
 2674 Fit       0.001824
 2675 Fit       0.000229
 2676 Fit      -0.006042
 2677 Fit      -0.006380
 2678 Fit       0.001717
 2679 Fit      -0.017925
 2680 Fit      -0.018783
 2681 Fit      -0.017205
 2682 Fit      -0.021517
 2683 Fit      -0.022387
 2684 Fit      -0.020560
 2685 Fit      -0.024221
 2686 Fit      -0.026171
 2687 Fit      -0.026247
 2688 Fit      -0.024284
 2689 Fit      -0.020790
 2690 Fit      -0.025010
 2691 Fit      -0.027741
 2692 Fit      -0.029182
 2693 Fit      -0.029510
 2694 Fit      -0.028686
 2695 Fit      -0.026534
 2696 Fit      -0.023193
 2697 Fit      -0.027231
 2698 Fit      -0.029714
 2699 Fit      -0.031176
 2700 Fit      -0.031894
 2701 Fit      -0.031942
 2702 Fit      -0.031332
 2703 Fit      -0.023473
 2704 Fit      -0.027835
 2705 Fit      -0.030473
 2706 Fit      -0.032138
 2707 Fit      -0.033207
 2708 Fit      -0.033848
 2709 Fit      -0.034187
 2710 Fit      -0.034585
 2711 Fit      -0.025202
 2712 Fit      -0.029126
 2713 Fit      -0.031513
 2714 Fit      -0.033091
 2715 Fit      -0.034211
 2716 Fit      -0.035069
 2717 Fit      -0.035943
 2718 Fit      -0.025083
 2719 Fit      -0.029032
 2720 Fit      -0.031463
 2721 Fit      -0.033104
 2722 Fit      -0.034323
 2723 Fit      -0.035353
 2724 Fit      -0.036574
 2725 Fit      -0.023075
 2726 Fit      -0.027503
 2727 Fit      -0.030265
 2728 Fit      -0.032102
 2729 Fit      -0.033429
 2730 Fit      -0.034504
 2731 Fit      -0.035682
 2732 Fit      -0.022405
 2733 Fit      -0.026626
 2734 Fit      -0.029347
 2735 Fit      -0.031128
 2736 Fit      -0.032334
 2737 Fit      -0.033252
 2738 Fit      -0.034406
 2739 Fit      -0.019299
 2740 Fit      -0.023919
 2741 Fit      -0.027028
 2742 Fit      -0.028917
 2743 Fit      -0.029904
 2744 Fit      -0.030212
 2745 Fit      -0.012641
 2746 Fit      -0.018348
 2747 Fit      -0.022726
 2748 Fit      -0.025257
 2749 Fit      -0.025971
 2750 Fit      -0.024701
 2751 Fit      -0.015929
 2752 Fit      -0.013312
 2753 Fit      -0.019167
 2754 Fit      -0.020651
 2755 Fit      -0.014055
 2756 Fit      -0.005837
 2757 Fit      -0.004880
 2758 Fit      -0.007848
 2759 Fit      -0.007203
 2760 Fit      -0.011033
 2761 Fit       0.004725
 2762 Fit       0.000614
 2763 Fit      -0.000338
 2764 Fit       0.004669
 2765 Fit      -0.007939
 2766 Fit      -0.007739
 2767 Fit      -0.006768
 2768 Fit      -0.008963
 2769 Fit      -0.009088
 2770 Fit      -0.009748
 2771 Fit      -0.010527
 2772 Fit      -0.011504
 2773 Fit      -0.010472
 2774 Fit      -0.013046
 2775 Fit      -0.016321
 2776 Fit      -0.007870
 2777 Fit      -0.011080
 2778 Fit      -0.000143
 2779 Fit      -0.006441
 2780 Fit      -0.007352
 2781 Fit      -0.007726
 2782 Fit      -0.000226
 2783 Fit      -0.002639
 2784 Fit      -0.004563
 2785 Fit      -0.005020
 2786 Fit      -0.004295
 2787 Fit      -0.002946
 2788 Fit      -0.006483
 2789 Fit      -0.007886
 2790 Fit      -0.001994
 2791 Fit      -0.003284
 2792 Fit      -0.004021
 2793 Fit      -0.001873
 2794 Fit      -0.002561
 2795 Fit       0.000099
 2796 Fit       0.001059
 2797 Fit      -0.001251
 2798 Fit      -0.004022
 2799 Fit      -0.004302
 2800 Fit       0.004267
 2801 Fit       0.004448
 2802 Fit       0.002651
 2803 Fit       0.008426
 2804 Fit       0.007838
 2805 Fit       0.005651
 2806 Fit       0.012356
 2807 Fit       0.014282
 2808 Fit       0.010637
 2809 Fit       0.009873
 2810 Fit       0.007127
 2811 Fit       0.006143
 2812 Fit       0.003877
 2813 Fit       0.004255
 2814 Fit       0.003720
 2815 Fit       0.001746
 2816 Fit       0.001827
 2817 Fit       0.001411
 2818 Fit      -0.000953
 2819 Fit      -0.000270
 2820 Fit      -0.000936
 2821 Fit      -0.000938
 2822 Fit       0.001159
 2823 Fit       0.001632
 2824 Fit      -0.002991
 2825 Fit      -0.002789
 2826 Fit       0.001021
 2827 Fit       0.003323
 2828 Fit       0.004777
 2829 Fit       0.004891
 2830 Fit      -0.005210
 2831 Fit       0.003009
 2832 Fit       0.006011
 2833 Fit       0.007926
 2834 Fit       0.008653
 2835 Fit       0.008569
 2836 Fit       0.012585
 2837 Fit       0.008931
 2838 Fit       0.011385
 2839 Fit       0.010863
 2840 Fit       0.009046
 2841 Fit       0.009000
 2842 Fit       0.008487
 2843 Fit       0.007474
 2844 Fit       0.007964
 2845 Fit       0.006900
 2846 Fit       0.005596
 2847 Fit       0.006391
 2848 Fit       0.004343
 2849 Fit       0.002021
 2850 Fit       0.001693
 2851 Fit       0.004270
 2852 Fit      -0.002681
 2853 Fit      -0.002012
 2854 Fit      -0.001373
 2855 Fit      -0.004384
 2856 Fit      -0.003381
 2857 Fit      -0.000654
 2858 Fit      -0.002585
 2859 Fit       0.009751
 2860 Fit       0.008189
 2861 Fit       0.005363
 2862 Fit      -0.001197
 2863 Fit       0.001077
 2864 Fit       0.000022
 2865 Fit      -0.000850
 2866 Fit      -0.000854
 2867 Fit       0.001546
 2868 Fit       0.000468
 2869 Fit       0.002855
 2870 Fit       0.001687
 2871 Fit       0.003534
 2872 Fit       0.003017
 2873 Fit       0.003913
 2874 Fit       0.004879
 2875 Fit       0.005152
 2876 Fit       0.005253
 2877 Fit       0.006382
 2878 Fit       0.006000
 2879 Fit       0.007595
 2880 Fit       0.007041
 2881 Fit       0.011086
 2882 Fit       0.008396
 2883 Fit       0.008452
 2884 Fit       0.010876
 2885 Fit       0.009389
 2886 Fit       0.011392
 2887 Fit      -0.008448
 2888 Fit      -0.008167
 2889 Fit      -0.006835
 2890 Fit      -0.007180
 2891 Fit      -0.008513
 2892 Fit      -0.009485
 2893 Fit      -0.009425
 2894 Fit      -0.007952
 2895 Fit      -0.006308
 2896 Fit      -0.004675
 2897 Fit      -0.004363
 2898 Fit      -0.005596
 2899 Fit      -0.007100
 2900 Fit      -0.008218
 2901 Fit      -0.009134
 2902 Fit      -0.009967
 2903 Fit      -0.010410
 2904 Fit      -0.010138
 2905 Fit      -0.009235
 2906 Fit      -0.000689
 2907 Fit      -0.001631
 2908 Fit      -0.003700
 2909 Fit      -0.005571
 2910 Fit      -0.006796
 2911 Fit      -0.007569
 2912 Fit      -0.008256
 2913 Fit      -0.009080
 2914 Fit      -0.009980
 2915 Fit      -0.010686
 2916 Fit      -0.010916
 2917 Fit      -0.010592
 2918 Fit      -0.009893
 2919 Fit      -0.009070
 2920 Fit       0.000538
 2921 Fit      -0.002497
 2922 Fit      -0.004620
 2923 Fit      -0.005833
 2924 Fit      -0.006466
 2925 Fit      -0.006915
 2926 Fit      -0.007487
 2927 Fit      -0.008313
 2928 Fit      -0.009325
 2929 Fit      -0.010304
 2930 Fit      -0.010977
 2931 Fit      -0.011148
 2932 Fit      -0.010814
 2933 Fit      -0.010207
 2934 Fit       0.003692
 2935 Fit      -0.000691
 2936 Fit      -0.003418
 2937 Fit      -0.004861
 2938 Fit      -0.005495
 2939 Fit      -0.005784
 2940 Fit      -0.006109
 2941 Fit      -0.006710
 2942 Fit      -0.007647
 2943 Fit      -0.008810
 2944 Fit      -0.009963
 2945 Fit      -0.010820
 2946 Fit      -0.011140
 2947 Fit      -0.010820
 2948 Fit      -0.010018
 2949 Fit       0.000776
 2950 Fit      -0.002426
 2951 Fit      -0.004089
 2952 Fit      -0.004790
 2953 Fit      -0.005005
 2954 Fit      -0.005129
 2955 Fit      -0.005447
 2956 Fit      -0.006110
 2957 Fit      -0.007122
 2958 Fit      -0.008354
 2959 Fit      -0.009580
 2960 Fit      -0.010527
 2961 Fit      -0.010935
 2962 Fit      -0.010580
 2963 Fit       0.003101
 2964 Fit      -0.001110
 2965 Fit      -0.003343
 2966 Fit      -0.004340
 2967 Fit      -0.004641
 2968 Fit      -0.004684
 2969 Fit      -0.004810
 2970 Fit      -0.005240
 2971 Fit      -0.006058
 2972 Fit      -0.007205
 2973 Fit      -0.008505
 2974 Fit      -0.009703
 2975 Fit      -0.010506
 2976 Fit      -0.010605
 2977 Fit      -0.009614
 2978 Fit       0.002670
 2979 Fit      -0.001324
 2980 Fit      -0.003472
 2981 Fit      -0.004431
 2982 Fit      -0.004714
 2983 Fit      -0.004746
 2984 Fit      -0.004862
 2985 Fit      -0.005280
 2986 Fit      -0.006079
 2987 Fit      -0.007201
 2988 Fit      -0.008467
 2989 Fit      -0.009615
 2990 Fit      -0.010339
 2991 Fit      -0.010297
 2992 Fit      -0.008984
 2993 Fit       0.004522
 2994 Fit      -0.000066
 2995 Fit      -0.002887
 2996 Fit      -0.004386
 2997 Fit      -0.005012
 2998 Fit      -0.005188
 2999 Fit      -0.005282
 3000 Fit      -0.005566
 3001 Fit      -0.006181
 3002 Fit      -0.007128
 3003 Fit      -0.008268
 3004 Fit      -0.009363
 3005 Fit      -0.010118
 3006 Fit      -0.010203
 3007 Fit      -0.009213
 3008 Fit       0.001781
 3009 Fit      -0.001675
 3010 Fit      -0.003975
 3011 Fit      -0.005225
 3012 Fit      -0.005767
 3013 Fit      -0.005999
 3014 Fit      -0.006269
 3015 Fit      -0.006794
 3016 Fit      -0.007624
 3017 Fit      -0.008636
 3018 Fit      -0.009573
 3019 Fit      -0.010109
 3020 Fit      -0.009908
 3021 Fit      -0.008649
 3022 Fit       0.001457
 3023 Fit      -0.000870
 3024 Fit      -0.003305
 3025 Fit      -0.005096
 3026 Fit      -0.006142
 3027 Fit      -0.006682
 3028 Fit      -0.007053
 3029 Fit      -0.007527
 3030 Fit      -0.008213
 3031 Fit      -0.009024
 3032 Fit      -0.009716
 3033 Fit      -0.009974
 3034 Fit      -0.009526
 3035 Fit      -0.008278
 3036 Fit      -0.001416
 3037 Fit      -0.002409
 3038 Fit      -0.004214
 3039 Fit      -0.005854
 3040 Fit      -0.006937
 3041 Fit      -0.007602
 3042 Fit      -0.008163
 3043 Fit      -0.008796
 3044 Fit      -0.009412
 3045 Fit      -0.009706
 3046 Fit      -0.009357
 3047 Fit      -0.008288
 3048 Fit      -0.005444
 3049 Fit      -0.004455
 3050 Fit      -0.003865
 3051 Fit      -0.004212
 3052 Fit      -0.005568
 3053 Fit      -0.007000
 3054 Fit      -0.007996
 3055 Fit      -0.008708
 3056 Fit      -0.009197
 3057 Fit      -0.009121
 3058 Fit      -0.008200
 3059 Fit      -0.006762
 3060 Fit      -0.006450
 3061 Fit      -0.005760
 3062 Fit      -0.006605
 3063 Fit      -0.007919
 3064 Fit      -0.008525
 3065 Fit      -0.007883
 3066 Fit      -0.007361
 3067 Fit       0.003532
 3068 Fit       0.005293
 3069 Fit       0.004584
 3070 Fit       0.002656
 3071 Fit       0.001455
 3072 Fit       0.002427
 3073 Fit       0.006530
 3074 Fit       0.004881
 3075 Fit       0.002612
 3076 Fit       0.000322
 3077 Fit      -0.001142
 3078 Fit      -0.000832
 3079 Fit       0.008711
 3080 Fit       0.007109
 3081 Fit       0.004732
 3082 Fit       0.002218
 3083 Fit      -0.000300
 3084 Fit      -0.002813
 3085 Fit      -0.004668
 3086 Fit      -0.004828
 3087 Fit       0.009424
 3088 Fit       0.005899
 3089 Fit       0.002537
 3090 Fit      -0.000028
 3091 Fit      -0.002544
 3092 Fit      -0.005519
 3093 Fit      -0.008665
 3094 Fit      -0.010373
 3095 Fit      -0.001036
 3096 Fit       0.001407
 3097 Fit       0.003427
 3098 Fit      -0.005044
 3099 Fit      -0.001969
 3100 Fit       0.000853
 3101 Fit       0.003033
 3102 Fit       0.004621
 3103 Fit      -0.011912
 3104 Fit      -0.007803
 3105 Fit      -0.003723
 3106 Fit      -0.000336
 3107 Fit       0.002249
 3108 Fit       0.004145
 3109 Fit       0.005570
 3110 Fit      -0.016567
 3111 Fit      -0.009916
 3112 Fit      -0.004505
 3113 Fit      -0.000438
 3114 Fit       0.002521
 3115 Fit       0.004661
 3116 Fit       0.006294
 3117 Fit      -0.013485
 3118 Fit      -0.006267
 3119 Fit      -0.001187
 3120 Fit       0.002402
 3121 Fit       0.005003
 3122 Fit       0.007039
 3123 Fit      -0.009662
 3124 Fit      -0.002844
 3125 Fit       0.001826
 3126 Fit       0.005217
 3127 Fit       0.007953
 3128 Fit      -0.001482
 3129 Fit       0.004297
 3130 Fit       0.008779
 3131 Fit       0.008271
 3132 Fit       0.008137
 3133 Fit       0.009321
 3134 Fit       0.009937
 3135 Fit       0.009873
 3136 Fit       0.008987
 3137 Fit       0.010203
 3138 Fit       0.011124
 3139 Fit       0.011699
 3140 Fit       0.011940
 3141 Fit       0.009899
 3142 Fit       0.011119
 3143 Fit       0.012156
 3144 Fit       0.012987
 3145 Fit       0.013661
 3146 Fit       0.014295
 3147 Fit       0.014993
 3148 Fit       0.008613
 3149 Fit       0.010946
 3150 Fit       0.012253
 3151 Fit       0.013424
 3152 Fit       0.014459
 3153 Fit       0.015449
 3154 Fit       0.016647
 3155 Fit       0.009605
 3156 Fit       0.012303
 3157 Fit       0.013655
 3158 Fit       0.014945
 3159 Fit       0.016197
 3160 Fit       0.017545
 3161 Fit       0.014309
 3162 Fit       0.015635
 3163 Fit       0.017051
 3164 Fit       0.018607
 3165 Fit       0.018910
 3166 Fit       0.020802
 3167 Fit       0.019197
 3168 Fit       0.017959
 3169 Fit       0.016930
 3170 Fit       0.021882
 3171 Fit       0.020021
 3172 Fit       0.018789
 3173 Fit       0.017862
 3174 Fit       0.017066
 3175 Fit       0.016290
 3176 Fit       0.015432
 3177 Fit       0.020571
 3178 Fit       0.019386
 3179 Fit       0.018558
 3180 Fit       0.017907
 3181 Fit       0.017346
 3182 Fit       0.016863
 3183 Fit       0.016527
 3184 Fit       0.016586
 3185 Fit       0.019507
 3186 Fit       0.018831
 3187 Fit       0.018302
 3188 Fit       0.017885
 3189 Fit       0.017632
 3190 Fit       0.017783
 3191 Fit       0.018967
 3192 Fit       0.020281
 3193 Fit       0.018766
 3194 Fit       0.018486
 3195 Fit       0.018255
 3196 Fit       0.018351
 3197 Fit       0.019383
 3198 Fit       0.017924
 3199 Fit       0.018744
 3200 Fit       0.018489
 3201 Fit       0.018546
 3202 Fit       0.019146
 3203 Fit       0.020501
 3204 Fit       0.019599
 3205 Fit       0.018408
 3206 Fit       0.018918
 3207 Fit       0.012238
 3208 Fit       0.009737
 3209 Fit       0.014833
 3210 Fit       0.013114
 3211 Fit       0.010631
 3212 Fit       0.007097
 3213 Fit       0.015531
 3214 Fit       0.013751
 3215 Fit       0.011573
 3216 Fit       0.008381
 3217 Fit       0.017357
 3218 Fit       0.015554
 3219 Fit       0.013870
 3220 Fit       0.011791
 3221 Fit       0.008712
 3222 Fit       0.018392
 3223 Fit       0.016440
 3224 Fit       0.014730
 3225 Fit       0.012744
 3226 Fit       0.009827
 3227 Fit       0.013529
 3228 Fit       0.010547
 3229 Fit      -0.011939
 3230 Fit      -0.010527
 3231 Fit      -0.014954
 3232 Fit      -0.011034
 3233 Fit      -0.016476
 3234 Fit      -0.009182
 3235 Fit      -0.012174
 3236 Fit      -0.019729
 3237 Fit      -0.008858
 3238 Fit      -0.011987
 3239 Fit      -0.019694
 3240 Fit      -0.008337
 3241 Fit      -0.010344
 3242 Fit      -0.016156
 3243 Fit      -0.009210
 3244 Fit      -0.014187
 3245 Fit      -0.007510
 3246 Fit      -0.010314
 3247 Fit       0.010195
 3248 Fit       0.008723
 3249 Fit       0.005693
 3250 Fit       0.013358
 3251 Fit       0.012019
 3252 Fit       0.010144
 3253 Fit       0.007323
 3254 Fit       0.015711
 3255 Fit       0.013959
 3256 Fit       0.012248
 3257 Fit       0.010089
 3258 Fit       0.007013
 3259 Fit       0.017735
 3260 Fit       0.015330
 3261 Fit       0.013488
 3262 Fit       0.011466
 3263 Fit       0.008736
 3264 Fit       0.017725
 3265 Fit       0.015264
 3266 Fit       0.013391
 3267 Fit       0.011341
 3268 Fit       0.008568
 3269 Fit       0.015589
 3270 Fit       0.013729
 3271 Fit       0.011939
 3272 Fit       0.009691
 3273 Fit       0.006457
 3274 Fit       0.011610
 3275 Fit       0.009607
 3276 Fit       0.006593
 3277 Fit       0.008761
 3278 Fit       0.010336
 3279 Fit       0.007910
 3280 Fit       0.010557
 3281 Fit       0.012076
 3282 Fit       0.013026
 3283 Fit       0.013922
 3284 Fit       0.006230
 3285 Fit       0.010016
 3286 Fit       0.012140
 3287 Fit       0.013423
 3288 Fit       0.014351
 3289 Fit       0.015420
 3290 Fit       0.010092
 3291 Fit       0.012489
 3292 Fit       0.013866
 3293 Fit       0.014806
 3294 Fit       0.015812
 3295 Fit       0.017674
 3296 Fit       0.010379
 3297 Fit       0.012687
 3298 Fit       0.013968
 3299 Fit       0.014813
 3300 Fit       0.015705
 3301 Fit       0.017374
 3302 Fit       0.010898
 3303 Fit       0.012703
 3304 Fit       0.013689
 3305 Fit       0.014322
 3306 Fit       0.015019
 3307 Fit       0.009827
 3308 Fit       0.011714
 3309 Fit       0.012621
 3310 Fit       0.013005
 3311 Fit       0.010591
 3312 Fit       0.011078
 -----------------------------------------------------------------
 Leave Link  602 at Thu Jan 16 21:50:47 2014, MaxMem=   235929600 cpu:         1.4

 Test job not archived.
 1\1\GINC-G30\SP\RHF\Gen\C11H10Cl1N1O3\KOLAR\16-Jan-2014\0\\# hf/gen po
 p=mk iop(6/33=2,6/41=5,6/42=2)\\na resp\\0,1\C,0,4.356936,-0.293182,1.
 308265\C,0,3.861769,-0.125264,-0.121903\H,0,4.66819,-0.310099,-0.83632
 1\C,0,3.155444,1.235718,-0.389565\C,0,1.707363,0.831255,-0.674848\H,0,
 1.482098,0.808564,-1.753174\N,0,1.651982,-0.511269,-0.103578\O,0,2.867
 174,-1.138348,-0.446132\C,0,0.476635,-1.233731,-0.155968\O,0,0.389307,
 -2.448044,-0.165697\C,0,-0.688211,-0.289975,-0.090921\C,0,-1.983692,-0
 .814938,-0.049793\C,0,-3.066836,0.043947,0.084748\C,0,-2.879532,1.4258
 1,0.191845\C,0,-1.592672,1.955118,0.147847\C,0,-0.499807,1.100913,-0.0
 00017\O,0,0.75791,1.657524,-0.027522\Cl,0,-4.697599,-0.610183,0.132639
 \H,0,3.529144,-0.173995,2.015036\H,0,4.792744,-1.287082,1.446913\H,0,5
 .121864,0.457591,1.539493\H,0,3.593856,1.779956,-1.229115\H,0,3.178147
 ,1.878439,0.494888\H,0,-2.109652,-1.890245,-0.110327\H,0,-3.737053,2.0
 81343,0.299702\H,0,-1.423531,3.024442,0.219766\\Version=AM64L-G09RevD.
 01\State=1-A\HF=-1160.8308693\RMSD=6.391e-09\Dipole=1.0557925,2.076266
 ,-0.2161504\Quadrupole=6.6091996,-5.9757172,-0.6334824,1.6557159,-0.75
 90838,-1.2369015\PG=C01 [X(C11H10Cl1N1O3)]\\@


 SEEN ON A WALL AT THE UNIVERSITY OF ILLINOIS AT CHICAGO CIRCLE:

 TO DO IS TO BE  -- SOCRATES
 TO BE IS TO DO  -- SARTRE
 OO BE DO BE DO  -- SINATRA
 Job cpu time:       0 days  0 hours  3 minutes 55.4 seconds.
 File lengths (MBytes):  RWF=     35 Int=      0 D2E=      0 Chk=      3 Scr=      1
 Normal termination of Gaussian 09 at Thu Jan 16 21:50:47 2014.
235.07user 0.39system 3:59.60elapsed 98%CPU (0avgtext+0avgdata 603376maxresident)k
24inputs+164304outputs (0major+171554minor)pagefaults 0swaps
