Linux g54 2.6.38.6-client #1 SMP Tue Jun 12 11:27:21 CEST 2012 x86_64 GNU/Linux
Thu Jan 16 22:36:46 CET 2014

 Entering Gaussian System, Link 0=/usr/local/programs/common/gaussian/gaussian09_d01/arch/amd64-pgi_10.4.0-acml/g09/g09
 Initial command:
 /usr/local/programs/common/gaussian/gaussian09_d01/arch/amd64-pgi_10.4.0-acml/g09/l1.exe "/scratch/kolar/g09_25490/Gau-1668.inp" -scrdir="/scratch/kolar/g09_25490/"
 Entering Link 1 = /usr/local/programs/common/gaussian/gaussian09_d01/arch/amd64-pgi_10.4.0-acml/g09/l1.exe PID=      1673.
  
 Copyright (c) 1988,1990,1992,1993,1995,1998,2003,2009,2013,
            Gaussian, Inc.  All Rights Reserved.
  
 This is part of the Gaussian(R) 09 program.  It is based on
 the Gaussian(R) 03 system (copyright 2003, Gaussian, Inc.),
 the Gaussian(R) 98 system (copyright 1998, Gaussian, Inc.),
 the Gaussian(R) 94 system (copyright 1995, Gaussian, Inc.),
 the Gaussian 92(TM) system (copyright 1992, Gaussian, Inc.),
 the Gaussian 90(TM) system (copyright 1990, Gaussian, Inc.),
 the Gaussian 88(TM) system (copyright 1988, Gaussian, Inc.),
 the Gaussian 86(TM) system (copyright 1986, Carnegie Mellon
 University), and the Gaussian 82(TM) system (copyright 1983,
 Carnegie Mellon University). Gaussian is a federally registered
 trademark of Gaussian, Inc.
  
 This software contains proprietary and confidential information,
 including trade secrets, belonging to Gaussian, Inc.
  
 This software is provided under written license and may be
 used, copied, transmitted, or stored only in accord with that
 written license.
  
 The following legend is applicable only to US Government
 contracts under FAR:
  
                    RESTRICTED RIGHTS LEGEND
  
 Use, reproduction and disclosure by the US Government is
 subject to restrictions as set forth in subparagraphs (a)
 and (c) of the Commercial Computer Software - Restricted
 Rights clause in FAR 52.227-19.
  
 Gaussian, Inc.
 340 Quinnipiac St., Bldg. 40, Wallingford CT 06492
  
  
 ---------------------------------------------------------------
 Warning -- This program may not be used in any manner that
 competes with the business of Gaussian, Inc. or will provide
 assistance to any competitor of Gaussian, Inc.  The licensee
 of this program is prohibited from giving any competitor of
 Gaussian, Inc. access to this program.  By using this program,
 the user acknowledges that Gaussian, Inc. is engaged in the
 business of creating and licensing software in the field of
 computational chemistry and represents and warrants to the
 licensee that it is not a competitor of Gaussian, Inc. and that
 it will not use this program in any manner prohibited above.
 ---------------------------------------------------------------
  

 Cite this work as:
 Gaussian 09, Revision D.01,
 M. J. Frisch, G. W. Trucks, H. B. Schlegel, G. E. Scuseria, 
 M. A. Robb, J. R. Cheeseman, G. Scalmani, V. Barone, B. Mennucci, 
 G. A. Petersson, H. Nakatsuji, M. Caricato, X. Li, H. P. Hratchian, 
 A. F. Izmaylov, J. Bloino, G. Zheng, J. L. Sonnenberg, M. Hada, 
 M. Ehara, K. Toyota, R. Fukuda, J. Hasegawa, M. Ishida, T. Nakajima, 
 Y. Honda, O. Kitao, H. Nakai, T. Vreven, J. A. Montgomery, Jr., 
 J. E. Peralta, F. Ogliaro, M. Bearpark, J. J. Heyd, E. Brothers, 
 K. N. Kudin, V. N. Staroverov, T. Keith, R. Kobayashi, J. Normand, 
 K. Raghavachari, A. Rendell, J. C. Burant, S. S. Iyengar, J. Tomasi, 
 M. Cossi, N. Rega, J. M. Millam, M. Klene, J. E. Knox, J. B. Cross, 
 V. Bakken, C. Adamo, J. Jaramillo, R. Gomperts, R. E. Stratmann, 
 O. Yazyev, A. J. Austin, R. Cammi, C. Pomelli, J. W. Ochterski, 
 R. L. Martin, K. Morokuma, V. G. Zakrzewski, G. A. Voth, 
 P. Salvador, J. J. Dannenberg, S. Dapprich, A. D. Daniels, 
 O. Farkas, J. B. Foresman, J. V. Ortiz, J. Cioslowski, 
 and D. J. Fox, Gaussian, Inc., Wallingford CT, 2013.
 
 ******************************************
 Gaussian 09:  AM64L-G09RevD.01 24-Apr-2013
                16-Jan-2014 
 ******************************************
 %mem=1800mb
 -----------------------------------------
 # hf/gen pop=mk iop(6/33=2,6/41=5,6/42=2)
 -----------------------------------------
 1/38=1/1;
 2/12=2,17=6,18=5,40=1/2;
 3/5=7,11=9,16=1,25=1,30=1/1,2,3;
 4//1;
 5/5=2,38=5/2;
 6/7=2,8=2,9=2,10=2,15=8,20=1,28=1,33=2,41=5,42=2/1,2;
 99/5=1,9=1/99;
 -------
 na resp
 -------
 Symbolic Z-matrix:
 Charge =  0 Multiplicity = 1
 6                     2.39302   1.49164  -1.02841 
 6                     1.52411   0.65946  -0.10133 
 6                     2.09205   0.46411   1.34387 
 6                     1.27762  -0.73442   1.91981 
 6                     0.27248  -1.04888   0.77862 
 1                    -0.21328  -2.02434   0.8548 
 6                     1.14057  -0.81147  -0.50773 
 6                     2.33637  -1.77378  -0.61397 
 6                     0.37787  -0.89145  -1.84351 
 6                    -0.70612   0.13814   0.80076 
 1                    -0.99166   0.43975   1.80962 
 6                     0.12382   1.25433   0.1211 
 8                    -0.25301   2.36928  -0.14842 
 35                   -2.45532  -0.16162  -0.07269 
 1                     1.94156   1.58706  -2.02124 
 1                     2.51535   2.50472  -0.6309 
 1                     3.38759   1.04587  -1.14163 
 1                     3.16258   0.24192   1.28889 
 1                     1.98989   1.37547   1.94279 
 1                     1.91658  -1.59667   2.12911 
 1                     0.76634  -0.48588   2.85561 
 1                     2.99555  -1.76896   0.25735 
 1                     1.97654  -2.80115  -0.74976 
 1                     2.94748  -1.5262   -1.48935 
 1                     1.06361  -0.69708  -2.67632 
 1                    -0.03909  -1.8948   -1.98751 
 1                    -0.44932  -0.18334  -1.92514 
 
                          Input orientation:                          
 ---------------------------------------------------------------------
 Center     Atomic      Atomic             Coordinates (Angstroms)
 Number     Number       Type             X           Y           Z
 ---------------------------------------------------------------------
      1          6           0        2.393018    1.491644   -1.028413
      2          6           0        1.524107    0.659459   -0.101327
      3          6           0        2.092045    0.464108    1.343870
      4          6           0        1.277616   -0.734421    1.919813
      5          6           0        0.272475   -1.048883    0.778615
      6          1           0       -0.213276   -2.024339    0.854797
      7          6           0        1.140568   -0.811469   -0.507731
      8          6           0        2.336370   -1.773778   -0.613969
      9          6           0        0.377871   -0.891453   -1.843507
     10          6           0       -0.706122    0.138136    0.800759
     11          1           0       -0.991660    0.439749    1.809620
     12          6           0        0.123815    1.254332    0.121097
     13          8           0       -0.253008    2.369278   -0.148423
     14         35           0       -2.455321   -0.161619   -0.072690
     15          1           0        1.941560    1.587064   -2.021238
     16          1           0        2.515353    2.504719   -0.630898
     17          1           0        3.387592    1.045871   -1.141627
     18          1           0        3.162584    0.241922    1.288893
     19          1           0        1.989893    1.375467    1.942790
     20          1           0        1.916576   -1.596668    2.129108
     21          1           0        0.766342   -0.485875    2.855606
     22          1           0        2.995547   -1.768960    0.257352
     23          1           0        1.976536   -2.801148   -0.749760
     24          1           0        2.947477   -1.526199   -1.489353
     25          1           0        1.063610   -0.697081   -2.676321
     26          1           0       -0.039089   -1.894798   -1.987512
     27          1           0       -0.449318   -0.183342   -1.925140
 ---------------------------------------------------------------------
                    Distance matrix (angstroms):
                    1          2          3          4          5
     1  C    0.000000
     2  C    1.518890   0.000000
     3  C    2.602718   1.565027   0.000000
     4  C    3.858954   2.467522   1.559319   0.000000
     5  C    3.770455   2.293319   2.433000   1.552909   0.000000
     6  H    4.764597   3.336981   3.427253   2.240738   1.092370
     7  C    2.672839   1.573498   2.441481   2.432630   1.569916
     8  C    3.292105   2.615954   2.983448   2.936201   2.593150
     9  C    3.225577   2.598918   3.864623   3.872567   2.628957
    10  C    3.844805   2.461597   2.868966   2.439027   1.538557
    11  H    4.540590   3.166871   3.118774   2.557427   2.208401
    12  C    2.554794   1.537584   2.448174   2.919208   2.399839
    13  O    2.923367   2.466543   3.369849   4.031545   3.580413
    14  Br   5.210861   4.063353   4.803823   4.270010   2.992128
    15  H    1.094815   2.172735   3.550722   4.621904   4.192045
    16  H    1.095128   2.160555   2.871061   4.304666   4.432304
    17  H    1.095768   2.168897   2.862619   4.122360   4.216548
    18  H    2.742981   2.188985   1.094734   2.214590   3.206133
    19  H    3.000676   2.215409   1.095315   2.226992   3.190972
    20  H    4.442365   3.196714   2.212281   1.093409   2.197036
    21  H    4.652124   3.260284   2.223803   1.094936   2.207889
    22  H    3.556371   2.861993   2.642618   2.604867   2.864498
    23  H    4.321940   3.549783   3.880532   3.447676   2.882739
    24  H    3.102784   2.954606   3.566544   3.877855   3.539371
    25  H    3.045233   2.946668   4.309057   4.601265   3.561775
    26  H    4.278201   3.539139   4.604810   4.283384   2.909313
    27  H    3.418855   2.816206   4.190960   4.250841   2.929238
                    6          7          8          9         10
     6  H    0.000000
     7  C    2.271658   0.000000
     8  C    2.953091   1.538593   0.000000
     9  C    2.985587   1.540260   2.475072   0.000000
    10  C    2.218584   2.454416   3.861817   3.037637   0.000000
    11  H    2.754868   3.388519   4.674320   4.122263   1.091010
    12  C    3.376630   2.386786   3.821671   2.920378   1.548105
    13  O    4.506872   3.491176   4.907802   3.728765   2.466628
    14  Br   3.058876   3.679943   5.084520   3.419858   1.977995
    15  H    5.094814   2.947075   3.664907   2.935942   4.131983
    16  H    5.492274   3.591978   4.282273   4.192044   4.245970
    17  H    5.135966   2.983396   3.055145   3.647503   4.621184
    18  H    4.089109   2.902764   2.892501   4.341785   3.900760
    19  H    4.194802   3.392506   4.071217   4.698254   3.178635
    20  H    2.518539   2.858609   2.780659   4.318172   3.413591
    21  H    2.707353   3.399719   4.020153   4.732554   2.603831
    22  H    3.273943   2.223306   1.092583   3.469273   4.199364
    23  H    2.823705   2.171691   1.097000   2.720101   4.270849
    24  H    3.966553   2.177003   1.095922   2.670431   4.622057
    25  H    3.982568   2.172968   2.651884   1.096174   3.989940
    26  H    2.850586   2.180583   2.746647   1.096036   3.514571
    27  H    3.342609   2.220660   3.465359   1.091937   2.756777
                   11         12         13         14         15
    11  H    0.000000
    12  C    2.181499   0.000000
    13  O    2.846510   1.207370   0.000000
    14  Br   2.459073   2.948629   3.355795   0.000000
    15  H    4.959394   2.829224   2.989218   5.117352   0.000000
    16  H    4.745458   2.801503   2.813352   5.668206   1.761924
    17  H    5.315552   3.505734   3.998978   6.061377   1.776968
    18  H    4.191424   3.409228   4.272913   5.794619   3.775881
    19  H    3.127772   2.610649   3.223575   5.117101   3.969966
    20  H    3.564674   3.921008   5.061914   5.101055   5.230884
    21  H    2.245315   3.304346   4.267923   4.365681   5.427874
    22  H    4.815158   4.172014   5.276626   5.692489   4.191152
    23  H    5.085669   4.542894   5.662665   5.202585   4.568838
    24  H    5.501361   4.277613   5.216890   5.749716   3.314691
    25  H    5.063614   3.537905   4.186443   4.410044   2.533229
    26  H    4.558038   3.793388   4.648694   3.536754   4.005929
    27  H    3.825024   2.565633   3.116269   2.730584   2.976553
                   16         17         18         19         20
    16  H    0.000000
    17  H    1.774791   0.000000
    18  H    3.037228   2.569901   0.000000
    19  H    2.859229   3.402326   1.757188   0.000000
    20  H    4.979713   4.454729   2.374639   2.978872   0.000000
    21  H    4.915120   5.019469   2.954023   2.407261   1.756331
    22  H    4.391345   3.167667   2.266192   3.706678   2.167333
    23  H    5.334480   4.116333   3.850077   4.969318   3.121257
    24  H    4.143908   2.632519   3.300178   4.595241   3.763108
    25  H    4.067289   3.285431   4.583704   5.146809   4.962757
    26  H    5.265104   4.594039   5.054811   5.500789   4.567282
    27  H    4.205949   4.104478   4.853524   4.831203   4.902231
                   21         22         23         24         25
    21  H    0.000000
    22  H    3.656034   0.000000
    23  H    4.452384   1.765806   0.000000
    24  H    4.971749   1.764149   1.764998   0.000000
    25  H    5.543933   3.672566   2.995358   2.375981   0.000000
    26  H    5.107796   3.776806   2.533031   3.050181   1.767747
    27  H    4.942154   4.375449   3.757552   3.678504   1.765546
                   26         27
    26  H    0.000000
    27  H    1.761039   0.000000
 Stoichiometry    C10H15BrO
 Framework group  C1[X(C10H15BrO)]
 Deg. of freedom    75
 Full point group                 C1      NOp   1
 Largest Abelian subgroup         C1      NOp   1
 Largest concise Abelian subgroup C1      NOp   1
                         Standard orientation:                         
 ---------------------------------------------------------------------
 Center     Atomic      Atomic             Coordinates (Angstroms)
 Number     Number       Type             X           Y           Z
 ---------------------------------------------------------------------
      1          6           0        2.393018    1.491644   -1.028413
      2          6           0        1.524107    0.659459   -0.101327
      3          6           0        2.092045    0.464108    1.343870
      4          6           0        1.277616   -0.734421    1.919813
      5          6           0        0.272475   -1.048883    0.778615
      6          1           0       -0.213276   -2.024339    0.854797
      7          6           0        1.140568   -0.811469   -0.507731
      8          6           0        2.336370   -1.773778   -0.613969
      9          6           0        0.377871   -0.891453   -1.843507
     10          6           0       -0.706122    0.138136    0.800759
     11          1           0       -0.991660    0.439749    1.809620
     12          6           0        0.123815    1.254332    0.121097
     13          8           0       -0.253008    2.369278   -0.148423
     14         35           0       -2.455321   -0.161619   -0.072690
     15          1           0        1.941560    1.587064   -2.021238
     16          1           0        2.515353    2.504719   -0.630898
     17          1           0        3.387592    1.045871   -1.141627
     18          1           0        3.162584    0.241922    1.288893
     19          1           0        1.989893    1.375467    1.942790
     20          1           0        1.916576   -1.596668    2.129108
     21          1           0        0.766342   -0.485875    2.855606
     22          1           0        2.995547   -1.768960    0.257352
     23          1           0        1.976536   -2.801148   -0.749760
     24          1           0        2.947477   -1.526199   -1.489353
     25          1           0        1.063610   -0.697081   -2.676321
     26          1           0       -0.039089   -1.894798   -1.987512
     27          1           0       -0.449318   -0.183342   -1.925140
 ---------------------------------------------------------------------
 Rotational constants (GHZ):      1.1339784      0.5157117      0.4822965
 General basis read from cards:  (5D, 7F)
 There are   225 symmetry adapted cartesian basis functions of A   symmetry.
 There are   212 symmetry adapted basis functions of A   symmetry.
   212 basis functions,   451 primitive gaussians,   225 cartesian basis functions
    59 alpha electrons       59 beta electrons
       nuclear repulsion energy      1090.4588884616 Hartrees.
 NAtoms=   27 NActive=   27 NUniq=   27 SFac= 1.00D+00 NAtFMM=   60 NAOKFM=F Big=F
 Integral buffers will be    131072 words long.
 Raffenetti 1 integral format.
 Two-electron integral symmetry is turned on.
 One-electron integrals computed using PRISM.
 NBasis=   212 RedAO= T EigKep=  1.62D-03  NBF=   212
 NBsUse=   212 1.00D-06 EigRej= -1.00D+00 NBFU=   212
 ExpMin= 1.43D-01 ExpMax= 5.74D+05 ExpMxC= 5.74D+03 IAcc=2 IRadAn=         4 AccDes= 0.00D+00
 Harris functional with IExCor=  205 and IRadAn=       4 diagonalized for initial guess.
 HarFok:  IExCor=  205 AccDes= 0.00D+00 IRadAn=         4 IDoV= 1 UseB2=F ITyADJ=14
 ICtDFT=  3500011 ScaDFX=  1.000000  1.000000  1.000000  1.000000
 FoFCou: FMM=F IPFlag=           0 FMFlag=      100000 FMFlg1=           0
         NFxFlg=           0 DoJE=T BraDBF=F KetDBF=T FulRan=T
         wScrn=  0.000000 ICntrl=     500 IOpCl=  0 I1Cent=   200000004 NGrid=           0
         NMat0=    1 NMatS0=      1 NMatT0=    0 NMatD0=    1 NMtDS0=    0 NMtDT0=    0
 Petite list used in FoFCou.
 Requested convergence on RMS density matrix=1.00D-08 within 128 cycles.
 Requested convergence on MAX density matrix=1.00D-06.
 Requested convergence on             energy=1.00D-06.
 No special actions if energy rises.
 Integral accuracy reduced to 1.0D-05 until final iterations.
 Initial convergence to 1.0D-05 achieved.  Increase integral accuracy.
 SCF Done:  E(RHF) =  -3031.86021811     A.U. after   16 cycles
            NFock= 16  Conv=0.25D-08     -V/T= 1.9989

 **********************************************************************

            Population analysis using the SCF density.

 **********************************************************************

 Orbital symmetries:
 BldTbl:  Degeneracy threshold= 1.00D-02
       Occupied  (A) (A) (A) (A) (A) (A) (A) (A) (A) (A) (A) (A)
                 (A) (A) (A) (A) (A) (A) (A) (A) (A) (A) (A) (A)
                 (A) (A) (A) (A) (A) (A) (A) (A) (A) (A) (A) (A)
                 (A) (A) (A) (A) (A) (A) (A) (A) (A) (A) (A) (A)
                 (A) (A) (A) (A) (A) (A) (A) (A) (A) (A) (A)
       Virtual   (A) (A) (A) (A) (A) (A) (A) (A) (A) (A) (A) (A)
                 (A) (A) (A) (A) (A) (A) (A) (A) (A) (A) (A) (A)
                 (A) (A) (A) (A) (A) (A) (A) (A) (A) (A) (A) (A)
                 (A) (A) (A) (A) (A) (A) (A) (A) (A) (A) (A) (A)
                 (A) (A) (A) (A) (A) (A) (A) (A) (A) (A) (A) (A)
                 (A) (A) (A) (A) (A) (A) (A) (A) (A) (A) (A) (A)
                 (A) (A) (A) (A) (A) (A) (A) (A) (A) (A) (A) (A)
                 (A) (A) (A) (A) (A) (A) (A) (A) (A) (A) (A) (A)
                 (A) (A) (A) (A) (A) (A) (A) (A) (A) (A) (A) (A)
                 (A) (A) (A) (A) (A) (A) (A) (A) (A) (A) (A) (A)
                 (A) (A) (A) (A) (A) (A) (A) (A) (A) (A) (A) (A)
                 (A) (A) (A) (A) (A) (A) (A) (A) (A) (A) (A) (A)
                 (A) (A) (A) (A) (A) (A) (A) (A) (A)
 The electronic state is 1-A.
 Alpha  occ. eigenvalues -- -489.83268 -64.37681 -58.54342 -58.54177 -58.54174
 Alpha  occ. eigenvalues --  -20.56687 -11.34268 -11.30297 -11.25732 -11.25386
 Alpha  occ. eigenvalues --  -11.25377 -11.24320 -11.24201 -11.22664 -11.22196
 Alpha  occ. eigenvalues --  -11.21835  -9.65418  -7.46973  -7.46104  -7.46096
 Alpha  occ. eigenvalues --   -3.21275  -3.20873  -3.20865  -3.19855  -3.19854
 Alpha  occ. eigenvalues --   -1.39760  -1.19934  -1.06871  -1.04385  -1.02300
 Alpha  occ. eigenvalues --   -0.95833  -0.93355  -0.92094  -0.86501  -0.81197
 Alpha  occ. eigenvalues --   -0.74772  -0.71246  -0.67353  -0.66359  -0.64492
 Alpha  occ. eigenvalues --   -0.62226  -0.60999  -0.58306  -0.57405  -0.56069
 Alpha  occ. eigenvalues --   -0.54719  -0.54052  -0.53559  -0.52950  -0.51809
 Alpha  occ. eigenvalues --   -0.50490  -0.49684  -0.48384  -0.46537  -0.45713
 Alpha  occ. eigenvalues --   -0.43390  -0.41108  -0.39423  -0.38313
 Alpha virt. eigenvalues --    0.11080   0.18788   0.21222   0.23531   0.24267
 Alpha virt. eigenvalues --    0.26738   0.27006   0.28457   0.29163   0.29901
 Alpha virt. eigenvalues --    0.30631   0.31439   0.32702   0.33481   0.33722
 Alpha virt. eigenvalues --    0.35001   0.35939   0.36771   0.36970   0.38740
 Alpha virt. eigenvalues --    0.40221   0.41458   0.41847   0.42874   0.44285
 Alpha virt. eigenvalues --    0.47297   0.47538   0.50697   0.52466   0.62289
 Alpha virt. eigenvalues --    0.63464   0.65102   0.66659   0.67077   0.68146
 Alpha virt. eigenvalues --    0.69916   0.70519   0.72032   0.72605   0.74393
 Alpha virt. eigenvalues --    0.75354   0.80016   0.80433   0.83051   0.84609
 Alpha virt. eigenvalues --    0.86017   0.88234   0.90016   0.91456   0.91654
 Alpha virt. eigenvalues --    0.92897   0.93299   0.95714   0.98521   1.00240
 Alpha virt. eigenvalues --    1.01778   1.02777   1.03304   1.06878   1.08198
 Alpha virt. eigenvalues --    1.10549   1.11026   1.11494   1.11956   1.13855
 Alpha virt. eigenvalues --    1.14751   1.15548   1.16384   1.16601   1.16767
 Alpha virt. eigenvalues --    1.17332   1.18435   1.18534   1.21253   1.22596
 Alpha virt. eigenvalues --    1.23575   1.24273   1.25699   1.26713   1.27294
 Alpha virt. eigenvalues --    1.29506   1.29747   1.32950   1.36134   1.39463
 Alpha virt. eigenvalues --    1.43519   1.48042   1.53926   1.56485   1.61764
 Alpha virt. eigenvalues --    1.65483   1.68993   1.73583   1.75486   1.80210
 Alpha virt. eigenvalues --    1.86044   1.91201   1.93386   1.94177   1.98871
 Alpha virt. eigenvalues --    2.00328   2.00657   2.04917   2.06305   2.06934
 Alpha virt. eigenvalues --    2.11009   2.14176   2.17299   2.18327   2.20233
 Alpha virt. eigenvalues --    2.20522   2.22431   2.24116   2.24863   2.26939
 Alpha virt. eigenvalues --    2.31142   2.32752   2.33913   2.37356   2.37849
 Alpha virt. eigenvalues --    2.42144   2.43516   2.46891   2.48670   2.49731
 Alpha virt. eigenvalues --    2.49861   2.55018   2.56159   2.57643   2.61972
 Alpha virt. eigenvalues --    2.63293   2.67686   2.68919   2.69867   2.70663
 Alpha virt. eigenvalues --    2.73863   2.76031   2.77819   2.84584   2.87818
 Alpha virt. eigenvalues --    2.91812   2.97855   3.05283   3.07086   3.08098
 Alpha virt. eigenvalues --    3.10427   3.13761   3.15937   3.20428   3.22095
 Alpha virt. eigenvalues --    3.40577   3.43989   9.22268
          Condensed to atoms (all electrons):
               1          2          3          4          5          6
     1  C    5.081404   0.333791  -0.044201   0.003921   0.004401  -0.000030
     2  C    0.333791   5.409192   0.352462  -0.057304  -0.079396   0.004668
     3  C   -0.044201   0.352462   5.210034   0.306119  -0.064539   0.003611
     4  C    0.003921  -0.057304   0.306119   5.203294   0.338291  -0.024703
     5  C    0.004401  -0.079396  -0.064539   0.338291   5.289550   0.395543
     6  H   -0.000030   0.004668   0.003611  -0.024703   0.395543   0.466793
     7  C   -0.039411   0.325212  -0.085856  -0.080518   0.337181  -0.025653
     8  C   -0.001049  -0.051851  -0.006285  -0.007012  -0.055228  -0.001423
     9  C   -0.000260  -0.064250   0.004727   0.004329  -0.051590  -0.000444
    10  C    0.005081  -0.141396   0.003568  -0.072235   0.288975  -0.028203
    11  H   -0.000081   0.003060  -0.000497  -0.005574  -0.039093  -0.000143
    12  C   -0.047740   0.350621  -0.062162  -0.001124  -0.057646   0.002767
    13  O    0.006860  -0.068989  -0.000378  -0.000047   0.002670  -0.000036
    14  Br  -0.000197   0.005269  -0.000153   0.004255  -0.051641  -0.001715
    15  H    0.393770  -0.034584   0.003845  -0.000136   0.000047   0.000000
    16  H    0.392840  -0.034875  -0.002988  -0.000020  -0.000202   0.000002
    17  H    0.392951  -0.039713  -0.004090   0.000011  -0.000033   0.000000
    18  H   -0.003315  -0.037821   0.401425  -0.031804   0.003858  -0.000110
    19  H    0.000062  -0.040944   0.396494  -0.031803   0.001150  -0.000048
    20  H   -0.000128   0.003098  -0.032236   0.401395  -0.035216  -0.002423
    21  H   -0.000061   0.001651  -0.034004   0.401186  -0.039286  -0.000094
    22  H    0.000141  -0.004234  -0.000494  -0.001480  -0.003518  -0.000019
    23  H   -0.000053   0.004573  -0.000052  -0.000093  -0.003790   0.001575
    24  H    0.000863  -0.004206   0.000018   0.000032   0.004318  -0.000062
    25  H    0.000721  -0.004045  -0.000078  -0.000118   0.004270  -0.000063
    26  H   -0.000028   0.004701  -0.000114  -0.000023  -0.004147   0.001378
    27  H    0.000070  -0.005128   0.000020  -0.000101  -0.002051  -0.000011
               7          8          9         10         11         12
     1  C   -0.039411  -0.001049  -0.000260   0.005081  -0.000081  -0.047740
     2  C    0.325212  -0.051851  -0.064250  -0.141396   0.003060   0.350621
     3  C   -0.085856  -0.006285   0.004727   0.003568  -0.000497  -0.062162
     4  C   -0.080518  -0.007012   0.004329  -0.072235  -0.005574  -0.001124
     5  C    0.337181  -0.055228  -0.051590   0.288975  -0.039093  -0.057646
     6  H   -0.025653  -0.001423  -0.000444  -0.028203  -0.000143   0.002767
     7  C    5.226903   0.357314   0.355831  -0.055750   0.004698  -0.079309
     8  C    0.357314   5.150661  -0.074095   0.003460  -0.000075   0.003938
     9  C    0.355831  -0.074095   5.170879  -0.003581  -0.000035   0.000187
    10  C   -0.055750   0.003460  -0.003581   5.353133   0.390536   0.295596
    11  H    0.004698  -0.000075  -0.000035   0.390536   0.458285  -0.030076
    12  C   -0.079309   0.003938   0.000187   0.295596  -0.030076   4.494977
    13  O    0.001692  -0.000045  -0.000485  -0.065296   0.000411   0.579498
    14  Br   0.000206  -0.000172  -0.012290   0.275704  -0.039748  -0.048279
    15  H   -0.004154   0.000079   0.000711  -0.000032  -0.000001  -0.003741
    16  H    0.004006  -0.000091  -0.000088   0.000113  -0.000004  -0.005576
    17  H   -0.004312   0.000753   0.000085  -0.000061   0.000001   0.004311
    18  H   -0.002808   0.000367  -0.000066  -0.000557   0.000038   0.004175
    19  H    0.005789   0.000109  -0.000085   0.001688  -0.000112  -0.003700
    20  H   -0.001948  -0.001002  -0.000076   0.004525   0.000104  -0.000264
    21  H    0.005131   0.000171  -0.000067  -0.006949   0.003201   0.000849
    22  H   -0.032274   0.392736   0.004339  -0.000028   0.000001  -0.000045
    23  H   -0.038118   0.391767  -0.004008   0.000002  -0.000001  -0.000082
    24  H   -0.035646   0.392182  -0.005112  -0.000121   0.000002  -0.000073
    25  H   -0.035618  -0.006503   0.387835  -0.000183   0.000005  -0.000315
    26  H   -0.036192  -0.004043   0.391048   0.000103  -0.000010  -0.000102
    27  H   -0.032123   0.004326   0.393232  -0.002300   0.000151   0.004695
              13         14         15         16         17         18
     1  C    0.006860  -0.000197   0.393770   0.392840   0.392951  -0.003315
     2  C   -0.068989   0.005269  -0.034584  -0.034875  -0.039713  -0.037821
     3  C   -0.000378  -0.000153   0.003845  -0.002988  -0.004090   0.401425
     4  C   -0.000047   0.004255  -0.000136  -0.000020   0.000011  -0.031804
     5  C    0.002670  -0.051641   0.000047  -0.000202  -0.000033   0.003858
     6  H   -0.000036  -0.001715   0.000000   0.000002   0.000000  -0.000110
     7  C    0.001692   0.000206  -0.004154   0.004006  -0.004312  -0.002808
     8  C   -0.000045  -0.000172   0.000079  -0.000091   0.000753   0.000367
     9  C   -0.000485  -0.012290   0.000711  -0.000088   0.000085  -0.000066
    10  C   -0.065296   0.275704  -0.000032   0.000113  -0.000061  -0.000557
    11  H    0.000411  -0.039748  -0.000001  -0.000004   0.000001   0.000038
    12  C    0.579498  -0.048279  -0.003741  -0.005576   0.004311   0.004175
    13  O    8.071882   0.001216   0.001085   0.003187   0.000066  -0.000056
    14  Br   0.001216  35.015521  -0.000008  -0.000002   0.000002   0.000004
    15  H    0.001085  -0.000008   0.510663  -0.025083  -0.026726   0.000000
    16  H    0.003187  -0.000002  -0.025083   0.505103  -0.027556  -0.000177
    17  H    0.000066   0.000002  -0.026726  -0.027556   0.535202   0.002202
    18  H   -0.000056   0.000004   0.000000  -0.000177   0.002202   0.501157
    19  H    0.001006  -0.000005  -0.000106   0.001406  -0.000066  -0.024040
    20  H    0.000002  -0.000092   0.000002   0.000001  -0.000007  -0.005915
    21  H   -0.000012   0.000068   0.000002  -0.000002   0.000000   0.001866
    22  H    0.000000   0.000001   0.000004  -0.000010   0.000016  -0.000598
    23  H    0.000000  -0.000008  -0.000010   0.000002   0.000000  -0.000030
    24  H    0.000000   0.000002   0.000034  -0.000016   0.000281   0.000131
    25  H    0.000013   0.000545   0.000106  -0.000011   0.000031   0.000003
    26  H    0.000005   0.000543   0.000010   0.000002  -0.000011  -0.000001
    27  H    0.000258  -0.002347   0.000109  -0.000016   0.000006  -0.000001
              19         20         21         22         23         24
     1  C    0.000062  -0.000128  -0.000061   0.000141  -0.000053   0.000863
     2  C   -0.040944   0.003098   0.001651  -0.004234   0.004573  -0.004206
     3  C    0.396494  -0.032236  -0.034004  -0.000494  -0.000052   0.000018
     4  C   -0.031803   0.401395   0.401186  -0.001480  -0.000093   0.000032
     5  C    0.001150  -0.035216  -0.039286  -0.003518  -0.003790   0.004318
     6  H   -0.000048  -0.002423  -0.000094  -0.000019   0.001575  -0.000062
     7  C    0.005789  -0.001948   0.005131  -0.032274  -0.038118  -0.035646
     8  C    0.000109  -0.001002   0.000171   0.392736   0.391767   0.392182
     9  C   -0.000085  -0.000076  -0.000067   0.004339  -0.004008  -0.005112
    10  C    0.001688   0.004525  -0.006949  -0.000028   0.000002  -0.000121
    11  H   -0.000112   0.000104   0.003201   0.000001  -0.000001   0.000002
    12  C   -0.003700  -0.000264   0.000849  -0.000045  -0.000082  -0.000073
    13  O    0.001006   0.000002  -0.000012   0.000000   0.000000   0.000000
    14  Br  -0.000005  -0.000092   0.000068   0.000001  -0.000008   0.000002
    15  H   -0.000106   0.000002   0.000002   0.000004  -0.000010   0.000034
    16  H    0.001406   0.000001  -0.000002  -0.000010   0.000002  -0.000016
    17  H   -0.000066  -0.000007   0.000000   0.000016   0.000000   0.000281
    18  H   -0.024040  -0.005915   0.001866  -0.000598  -0.000030   0.000131
    19  H    0.502270   0.001986  -0.004123   0.000099   0.000003  -0.000010
    20  H    0.001986   0.500747  -0.024343  -0.001403   0.000275   0.000047
    21  H   -0.004123  -0.024343   0.511358   0.000154  -0.000020   0.000001
    22  H    0.000099  -0.001403   0.000154   0.529275  -0.027137  -0.027193
    23  H    0.000003   0.000275  -0.000020  -0.027137   0.525936  -0.027109
    24  H   -0.000010   0.000047   0.000001  -0.027193  -0.027109   0.523398
    25  H   -0.000001   0.000000   0.000002   0.000026   0.000024   0.002725
    26  H    0.000002   0.000001  -0.000001  -0.000064   0.002308   0.000052
    27  H   -0.000001   0.000001   0.000000  -0.000080  -0.000059  -0.000010
              25         26         27
     1  C    0.000721  -0.000028   0.000070
     2  C   -0.004045   0.004701  -0.005128
     3  C   -0.000078  -0.000114   0.000020
     4  C   -0.000118  -0.000023  -0.000101
     5  C    0.004270  -0.004147  -0.002051
     6  H   -0.000063   0.001378  -0.000011
     7  C   -0.035618  -0.036192  -0.032123
     8  C   -0.006503  -0.004043   0.004326
     9  C    0.387835   0.391048   0.393232
    10  C   -0.000183   0.000103  -0.002300
    11  H    0.000005  -0.000010   0.000151
    12  C   -0.000315  -0.000102   0.004695
    13  O    0.000013   0.000005   0.000258
    14  Br   0.000545   0.000543  -0.002347
    15  H    0.000106   0.000010   0.000109
    16  H   -0.000011   0.000002  -0.000016
    17  H    0.000031  -0.000011   0.000006
    18  H    0.000003  -0.000001  -0.000001
    19  H   -0.000001   0.000002  -0.000001
    20  H    0.000000   0.000001   0.000001
    21  H    0.000002  -0.000001   0.000000
    22  H    0.000026  -0.000064  -0.000080
    23  H    0.000024   0.002308  -0.000059
    24  H    0.002725   0.000052  -0.000010
    25  H    0.534011  -0.027765  -0.025956
    26  H   -0.027765   0.521351  -0.024769
    27  H   -0.025956  -0.024769   0.491452
 Mulliken charges:
               1
     1  C   -0.480322
     2  C   -0.129560
     3  C   -0.344195
     4  C   -0.348738
     5  C   -0.182879
     6  H    0.208846
     7  C   -0.034272
     8  C   -0.488989
     9  C   -0.496671
    10  C   -0.245790
    11  H    0.254958
    12  C    0.598623
    13  O   -0.534506
    14  Br  -0.146677
    15  H    0.184115
    16  H    0.190055
    17  H    0.166657
    18  H    0.192074
    19  H    0.192980
    20  H    0.192871
    21  H    0.183322
    22  H    0.171784
    23  H    0.174105
    24  H    0.175470
    25  H    0.170341
    26  H    0.175764
    27  H    0.200632
 Sum of Mulliken charges =   0.00000
 Mulliken charges with hydrogens summed into heavy atoms:
               1
     1  C    0.060506
     2  C   -0.129560
     3  C    0.040859
     4  C    0.027455
     5  C    0.025967
     7  C   -0.034272
     8  C    0.032371
     9  C    0.050066
    10  C    0.009168
    12  C    0.598623
    13  O   -0.534506
    14  Br  -0.146677
 DipInt: DoE/N= T F RetVal/Mat= T F Init=T NMatP=  1 IDeriv=0 Min/MaxMlt=  0  4
 Entering OneElI...
 OneElI was handed   235797319 working-precision words.
 Multipole integrals L=0 to 4 MinM= 0 MaxM= 0.
 Requested accuracy = 0.1000D-12
 ShPair: Thresh= 1.00D-13 NBox=     0 BxSize= 0.00D+00 RnKept= 1.15D+01
         NSMCal=                 3741 NSMKep=                3538
 PrsmSu:  NPrtUS=   1 ThrOK=F IAlg=1 NPAlg=1 LenDen=           0.
 Prism:   IPart=     0 DynPar=F LinDyn=F Incr=          35.
 PRISM was handed   235496883 working-precision words and  3538 shell-pairs
 IPart=  0 NShTot=        3538 NBatch=         130 AvBLen=        27.2
 PrSmSu:  NxtVal=             36.
 Electronic moments (au):
       -118.00000000          1.31781413         -1.08755890          0.53766045
      -1509.77926871       -592.61957734       -479.80593138          1.16217917
          0.00730584          1.05289466        540.16507566       -457.62818519
       -117.95332452      -1019.15819061        254.98096446        202.93456364
       -914.18300211        294.66609979        290.45313723         69.29307727
     -33950.67989329      -9015.81257440      -6865.86386266      -1013.43799302
        622.90048297       1119.80688087        137.49364735       -666.62101273
        -70.10333224      -5835.20664384      -4360.99474886      -2209.75756573
        216.99880116       1013.20151575        151.71990798
 Electronic spatial extent (au):  <R**2>=           2582.2048
 DipInt: DoE/N= F T RetVal/Mat= T F Init=T NMatP=  1 IDeriv=0 Min/MaxMlt=  0  4
 Nuclear    moments (au):
        118.00000000          0.00000000          0.00000000          0.00000000
       1444.61069187        522.76968331        418.07144687          0.00000000
         -0.00005977          0.00002843       -634.86996757        424.86809334
        119.48117904        991.27518595       -253.71822022       -207.55386706
        877.52191089       -289.99162294       -286.31406166        -71.33134310
      29480.53135412       6843.71224533       5136.15955727       1050.97905769
       -555.57856196      -1050.85111709       -120.92487552        662.71557857
         70.52454285       4726.36378783       3323.79707419       1582.42214145
       -218.50162270       -997.97114948       -146.42013231
 Total      moments (au):
          0.00000000          1.31781413         -1.08755890          0.53766045
        -65.16857684        -69.84989404        -61.73448451          1.16217917
          0.00724608          1.05292309        -94.70489191        -32.76009184
          1.52785452        -27.88300466          1.26274424         -4.61930342
        -36.66109122          4.67447685          4.13907557         -2.03826583
      -4470.14853917      -2172.10032907      -1729.70430540         37.54106467
         67.32192101         68.95576379         16.56877183         -3.90543416
          0.42121061      -1108.84285601      -1037.19767467       -627.33542428
         -1.50282155         15.23036627          5.29977567
 Traceless Quadrup. (au):
          0.41574163         -4.26557558          3.84983395          1.16217917
          0.00724608          1.05292309
 Charge=              0.0000 electrons
 Dipole moment (field-independent basis, Debye):
    X=              3.3495    Y=             -2.7643    Z=              1.3666  Tot=              4.5528
 Quadrupole moment (field-independent basis, Debye-Ang):
   XX=            -87.6540   YY=            -93.9505   ZZ=            -83.0350
   XY=              1.5632   XZ=              0.0097   YZ=              1.4162
 Traceless Quadrupole moment (field-independent basis, Debye-Ang):
   XX=              0.5592   YY=             -5.7373   ZZ=              5.1782
   XY=              1.5632   XZ=              0.0097   YZ=              1.4162
 Octapole moment (field-independent basis, Debye-Ang**2):
  XXX=            -67.4073  YYY=            -23.3174  ZZZ=              1.0875  XYY=            -19.8460
  XXY=              0.8988  XXZ=             -3.2878  XZZ=            -26.0940  YZZ=              3.3271
  YYZ=              2.9460  XYZ=             -1.4508
 Hexadecapole moment (field-independent basis, Debye-Ang**3):
 XXXX=          -1683.6722 YYYY=           -818.1171 ZZZZ=           -651.4895 XXXY=             14.1398
 XXXZ=             25.3567 YYYX=             25.9720 YYYZ=              6.2406 ZZZX=             -1.4710
 ZZZY=              0.1586 XXYY=           -417.6434 XXZZ=           -390.6584 YYZZ=           -236.2846
 XXYZ=             -0.5660 YYXZ=              5.7365 ZZXY=              1.9961
 N-N= 1.090458888462D+03 E-N=-9.411048450084D+03  KE= 3.035120374116D+03
 Entering OneElI...
 OneElI was handed   235827538 working-precision words.
 Calculate electrostatic properties
    NBasis =   212  MinDer = 0  MaxDer = 0
    NGrid  =    27  NMatD  =   1
 Requested accuracy = 0.1000D-12
 ShPair: Thresh= 1.00D-13 NBox=     0 BxSize= 0.00D+00 RnKept= 1.15D+01
         NSMCal=                 3741 NSMKep=                3315
 PrsmSu:  NPrtUS=   1 ThrOK=F IAlg=1 NPAlg=1 LenDen=           0.
 Prism:   IPart=     0 DynPar=F LinDyn=F Incr=         512.
 PRISM was handed   235554836 working-precision words and  3315 shell-pairs
 IPart=  0 NShTot=       89505 NBatch=        3405 AvBLen=        26.3
 PrSmSu:  NxtVal=            513.
 --------------------------------------------------------
       Center         ----      EFG at Nuclei      ----
                      3XX-RR        3YY-RR        3ZZ-RR
 --------------------------------------------------------
     1   Atom       -0.016088      0.013876      0.002212
     2   Atom       -0.023934      0.031005     -0.007072
     3   Atom        0.022044      0.013815     -0.035859
     4   Atom        0.001952      0.002934     -0.004885
     5   Atom       -0.011530     -0.002941      0.014471
     6   Atom        0.060283     -0.209506      0.149222
     7   Atom        0.009019     -0.022777      0.013758
     8   Atom       -0.010527     -0.008994      0.019521
     9   Atom        0.025368      0.018369     -0.043737
    10   Atom       -0.281920      0.198787      0.083133
    11   Atom        0.109627      0.120538     -0.230166
    12   Atom        0.254272      0.209395     -0.463667
    13   Atom        1.472263     -0.565998     -0.906266
    14   Atom       -4.775736      3.114707      1.661030
    15   Atom        0.071066      0.147693     -0.218759
    16   Atom        0.145276     -0.230436      0.085160
    17   Atom       -0.217860      0.073314      0.144546
    18   Atom       -0.274397      0.128251      0.146147
    19   Atom        0.142383     -0.156874      0.014492
    20   Atom       -0.006045     -0.127585      0.133629
    21   Atom        0.047362      0.125537     -0.172899
    22   Atom       -0.011221      0.151140     -0.139919
    23   Atom        0.094761     -0.240120      0.145359
    24   Atom        0.009500      0.124805     -0.134305
    25   Atom       -0.030657      0.138810     -0.108153
    26   Atom        0.087838     -0.225759      0.137921
    27   Atom       -0.098736     -0.038215      0.136951
 --------------------------------------------------------
                        XY            XZ            YZ
 --------------------------------------------------------
     1   Atom       -0.021157      0.032820      0.024775
     2   Atom        0.022200     -0.004189     -0.033257
     3   Atom       -0.017142     -0.022461      0.038533
     4   Atom       -0.046306     -0.021404      0.000073
     5   Atom        0.070970     -0.003961     -0.002382
     6   Atom       -0.174467      0.013832      0.027968
     7   Atom       -0.022779      0.024600      0.008737
     8   Atom        0.022300      0.007000     -0.005789
     9   Atom       -0.015124     -0.021271     -0.008086
    10   Atom       -0.129067     -0.278217     -0.054334
    11   Atom        0.029381      0.100456     -0.112355
    12   Atom       -0.141446     -0.221192     -0.247145
    13   Atom        0.417421     -1.037714     -0.431128
    14   Atom       -1.462582     -3.745773     -0.625734
    15   Atom        0.009735     -0.165154      0.036126
    16   Atom       -0.051249     -0.014364     -0.148822
    17   Atom        0.165485      0.043408     -0.014027
    18   Atom        0.090617      0.023172     -0.003298
    19   Atom        0.036810      0.022738     -0.199975
    20   Atom        0.206302     -0.048091      0.065406
    21   Atom        0.049466      0.176457     -0.086890
    22   Atom        0.001948     -0.215573     -0.007126
    23   Atom       -0.135359     -0.018596     -0.051183
    24   Atom       -0.052442      0.197132      0.083958
    25   Atom       -0.050672      0.208023      0.059930
    26   Atom       -0.154609     -0.025758     -0.050352
    27   Atom        0.220454     -0.025867      0.013352
 --------------------------------------------------------


 ---------------------------------------------------------------------------------
              Nuclear Quadrupole Coupling Constant in Principal Axis System
 ---------------------------------------------------------------------------------

       Atom             a.u.   MegaHertz   Gauss  10(-4) cm-1        Axes

              Baa    -6.7522   496.581   177.193   165.642  0.8975  0.1591  0.4114
    14 Br(79) Bbb     3.3346  -245.239   -87.507   -81.803  0.1678  0.7394 -0.6520
              Bcc     3.4176  -251.343   -89.685   -83.839 -0.4080  0.6541  0.6369
 

 ---------------------------------------------------------------------------------

 No NMR shielding tensors so no spin-rotation constants.
 Leave Link  601 at Thu Jan 16 22:40:37 2014, MaxMem=   235929600 cpu:         0.3
 FitSet:  NAtFit=    27 NAtPot=    27 NAtFrz=     0 MDM=    31 TotChg=   0.00000
 Merz-Kollman atomic radii used.
 Atom Element Radius
    1     6    1.50
    2     6    1.50
    3     6    1.50
    4     6    1.50
    5     6    1.50
    6     1    1.20
    7     6    1.50
    8     6    1.50
    9     6    1.50
   10     6    1.50
   11     1    1.20
   12     6    1.50
   13     8    1.40
   14    35    2.30
   15     1    1.20
   16     1    1.20
   17     1    1.20
   18     1    1.20
   19     1    1.20
   20     1    1.20
   21     1    1.20
   22     1    1.20
   23     1    1.20
   24     1    1.20
   25     1    1.20
   26     1    1.20
   27     1    1.20
 Generate VDW surfaces: Layer= 5 Dens= 2 Start= 1.400 Inc= 0.179

 **********************************************************************

            Electrostatic Properties Using The SCF Density

 **********************************************************************

       Atomic Center    1 is at   2.393018  1.491644 -1.028413
       Atomic Center    2 is at   1.524107  0.659459 -0.101327
       Atomic Center    3 is at   2.092045  0.464108  1.343870
       Atomic Center    4 is at   1.277616 -0.734421  1.919813
       Atomic Center    5 is at   0.272475 -1.048883  0.778615
       Atomic Center    6 is at  -0.213276 -2.024339  0.854797
       Atomic Center    7 is at   1.140568 -0.811469 -0.507731
       Atomic Center    8 is at   2.336370 -1.773778 -0.613969
       Atomic Center    9 is at   0.377871 -0.891453 -1.843507
       Atomic Center   10 is at  -0.706122  0.138136  0.800759
       Atomic Center   11 is at  -0.991660  0.439749  1.809620
       Atomic Center   12 is at   0.123815  1.254332  0.121097
       Atomic Center   13 is at  -0.253008  2.369278 -0.148423
       Atomic Center   14 is at  -2.455321 -0.161619 -0.072690
       Atomic Center   15 is at   1.941560  1.587064 -2.021238
       Atomic Center   16 is at   2.515353  2.504719 -0.630898
       Atomic Center   17 is at   3.387592  1.045871 -1.141627
       Atomic Center   18 is at   3.162584  0.241922  1.288893
       Atomic Center   19 is at   1.989893  1.375467  1.942790
       Atomic Center   20 is at   1.916576 -1.596668  2.129108
       Atomic Center   21 is at   0.766342 -0.485875  2.855606
       Atomic Center   22 is at   2.995547 -1.768960  0.257352
       Atomic Center   23 is at   1.976536 -2.801148 -0.749760
       Atomic Center   24 is at   2.947477 -1.526199 -1.489353
       Atomic Center   25 is at   1.063610 -0.697081 -2.676321
       Atomic Center   26 is at  -0.039089 -1.894798 -1.987512
       Atomic Center   27 is at  -0.449318 -0.183342 -1.925140
      ESP Fit Center   28 is at   4.054441  2.231357  0.021587
      ESP Fit Center   29 is at   1.146712  3.142020 -1.393074
      ESP Fit Center   30 is at   3.609935  2.843167 -2.078413
      ESP Fit Center   31 is at   2.202917  3.300334 -2.078413
      ESP Fit Center   32 is at   3.528588  2.221430 -2.637107
      ESP Fit Center   33 is at   2.953768  0.263773 -2.637107
      ESP Fit Center   34 is at   2.092045  0.464108  3.443870
      ESP Fit Center   35 is at   2.810287  0.464108  3.317224
      ESP Fit Center   36 is at   3.441899  0.464108  2.952563
      ESP Fit Center   37 is at   3.227614 -0.265678  2.952563
      ESP Fit Center   38 is at   3.620387  1.857375  1.708531
      ESP Fit Center   39 is at   3.620387  1.857375  0.979209
      ESP Fit Center   40 is at   3.013875  2.315392  0.979209
      ESP Fit Center   41 is at   2.627470 -0.734421  3.528506
      ESP Fit Center   42 is at   2.413185 -0.004635  3.528506
      ESP Fit Center   43 is at   1.085512 -2.070535  3.528506
      ESP Fit Center   44 is at   3.096269 -0.734421  2.969813
      ESP Fit Center   45 is at   0.368289 -2.309421  2.969813
      ESP Fit Center   46 is at   1.194305 -2.900167  1.143276
      ESP Fit Center   47 is at  -0.942201 -2.024339  2.368424
      ESP Fit Center   48 is at  -0.577739 -2.655606  2.368424
      ESP Fit Center   49 is at   0.151186 -2.655606  2.368424
      ESP Fit Center   50 is at  -1.275901 -2.796381  1.902260
      ESP Fit Center   51 is at  -0.619163 -3.273530  1.902260
      ESP Fit Center   52 is at   0.192610 -3.273530  1.902260
      ESP Fit Center   53 is at  -1.439246 -3.110454  1.228632
      ESP Fit Center   54 is at  -0.794076 -3.555782  1.228632
      ESP Fit Center   55 is at  -0.015852 -3.650276  1.228632
      ESP Fit Center   56 is at   0.717145 -3.372287  1.228632
      ESP Fit Center   57 is at  -0.794076 -3.555782  0.480962
      ESP Fit Center   58 is at  -0.015852 -3.650276  0.480962
      ESP Fit Center   59 is at   0.717145 -3.372287  0.480962
      ESP Fit Center   60 is at  -0.619163 -3.273530 -0.192666
      ESP Fit Center   61 is at   0.192610 -3.273530 -0.192666
      ESP Fit Center   62 is at   1.452403 -2.793930  0.994724
      ESP Fit Center   63 is at   2.144265 -3.109893  0.994724
      ESP Fit Center   64 is at   3.864711 -0.380511 -0.249308
      ESP Fit Center   65 is at   3.864711 -3.167046 -0.249308
      ESP Fit Center   66 is at   3.864711 -3.167046 -0.978630
      ESP Fit Center   67 is at   4.264812 -2.520861 -0.978630
      ESP Fit Center   68 is at   3.553286 -3.125301 -1.663969
      ESP Fit Center   69 is at   1.977249 -2.395794 -2.587324
      ESP Fit Center   70 is at  -0.917305 -1.271751 -3.452201
      ESP Fit Center   71 is at  -0.340371 -0.891453 -3.816862
      ESP Fit Center   72 is at   0.018750 -1.513469 -3.816862
      ESP Fit Center   73 is at  -0.991660  0.439749  3.489620
      ESP Fit Center   74 is at  -0.627198  1.071016  3.323247
      ESP Fit Center   75 is at  -1.356122  1.071016  3.323247
      ESP Fit Center   76 is at  -1.720585  0.439749  3.323247
      ESP Fit Center   77 is at  -1.356122 -0.191518  3.323247
      ESP Fit Center   78 is at   0.070965  1.211792  2.857083
      ESP Fit Center   79 is at  -0.585773  1.688940  2.857083
      ESP Fit Center   80 is at  -1.397547  1.688940  2.857083
      ESP Fit Center   81 is at  -2.054285  1.211792  2.857083
      ESP Fit Center   82 is at  -0.061239  1.787697  2.183455
      ESP Fit Center   83 is at  -0.794236  2.065686  2.183455
      ESP Fit Center   84 is at  -1.572460  1.971193  2.183455
      ESP Fit Center   85 is at   0.684565  2.482202  1.729790
      ESP Fit Center   86 is at   0.122022  3.018849  1.662381
      ESP Fit Center   87 is at  -0.628038  3.018849  1.662381
      ESP Fit Center   88 is at  -1.003067  2.369278  1.662381
      ESP Fit Center   89 is at   0.947242  3.062243  1.237506
      ESP Fit Center   90 is at   0.439957  3.569528  1.237506
      ESP Fit Center   91 is at  -0.253008  3.755207  1.237506
      ESP Fit Center   92 is at  -0.945972  3.569528  1.237506
      ESP Fit Center   93 is at  -1.453258  3.062243  1.237506
      ESP Fit Center   94 is at   1.401244  3.105798  0.601636
      ESP Fit Center   95 is at   0.958657  3.714968  0.601636
      ESP Fit Center   96 is at   0.306561  4.091455  0.601636
      ESP Fit Center   97 is at  -0.442288  4.170162  0.601636
      ESP Fit Center   98 is at  -1.158410  3.937480  0.601636
      ESP Fit Center   99 is at  -1.717979  3.433642  0.601636
      ESP Fit Center  100 is at   1.195450  3.689722 -0.148423
      ESP Fit Center  101 is at   0.620639  4.123798 -0.148423
      ESP Fit Center  102 is at  -0.072162  4.320917 -0.148423
      ESP Fit Center  103 is at  -0.789387  4.254456 -0.148423
      ESP Fit Center  104 is at  -1.434172  3.933392 -0.148423
      ESP Fit Center  105 is at  -1.919433  3.401085 -0.148423
      ESP Fit Center  106 is at   0.958657  3.714968 -0.898483
      ESP Fit Center  107 is at   0.306561  4.091455 -0.898483
      ESP Fit Center  108 is at  -0.442288  4.170162 -0.898483
      ESP Fit Center  109 is at  -1.158410  3.937480 -0.898483
      ESP Fit Center  110 is at  -1.717979  3.433642 -0.898483
      ESP Fit Center  111 is at   0.947242  3.062243 -1.534353
      ESP Fit Center  112 is at   0.439957  3.569528 -1.534353
      ESP Fit Center  113 is at  -0.253008  3.755207 -1.534353
      ESP Fit Center  114 is at  -0.945972  3.569528 -1.534353
      ESP Fit Center  115 is at  -1.453258  3.062243 -1.534353
      ESP Fit Center  116 is at   0.122022  3.018849 -1.959227
      ESP Fit Center  117 is at  -0.628038  3.018849 -1.959227
      ESP Fit Center  118 is at  -1.003067  2.369278 -1.959227
      ESP Fit Center  119 is at  -0.628038  1.719708 -1.959227
      ESP Fit Center  120 is at   0.122022  1.719708 -1.959227
      ESP Fit Center  121 is at  -0.253008  2.369278 -2.108423
      ESP Fit Center  122 is at  -2.455321 -0.161619  3.147310
      ESP Fit Center  123 is at  -2.813580  0.458904  3.066578
      ESP Fit Center  124 is at  -3.171838 -0.161619  3.066578
      ESP Fit Center  125 is at  -2.813580 -0.782141  3.066578
      ESP Fit Center  126 is at  -2.097062 -0.782141  3.066578
      ESP Fit Center  127 is at  -2.455321  1.235487  2.828430
      ESP Fit Center  128 is at  -3.153874  1.048310  2.828430
      ESP Fit Center  129 is at  -3.665250  0.536934  2.828430
      ESP Fit Center  130 is at  -3.852427 -0.161619  2.828430
      ESP Fit Center  131 is at  -3.665250 -0.860171  2.828430
      ESP Fit Center  132 is at  -3.153874 -1.371548  2.828430
      ESP Fit Center  133 is at  -2.455321 -1.558724  2.828430
      ESP Fit Center  134 is at  -1.756768 -1.371548  2.828430
      ESP Fit Center  135 is at  -2.270080  1.837454  2.444807
      ESP Fit Center  136 is at  -3.004737  1.769378  2.444807
      ESP Fit Center  137 is at  -3.665193  1.440510  2.444807
      ESP Fit Center  138 is at  -4.162249  0.895266  2.444807
      ESP Fit Center  139 is at  -4.428774  0.207284  2.444807
      ESP Fit Center  140 is at  -4.428774 -0.530521  2.444807
      ESP Fit Center  141 is at  -4.162249 -1.218503  2.444807
      ESP Fit Center  142 is at  -3.665193 -1.763748  2.444807
      ESP Fit Center  143 is at  -3.004737 -2.092616  2.444807
      ESP Fit Center  144 is at  -2.270080 -2.160692  2.444807
      ESP Fit Center  145 is at  -1.560440 -1.958782  2.444807
      ESP Fit Center  146 is at  -0.971659 -1.514155  2.444807
      ESP Fit Center  147 is at  -1.535576  2.181854  1.934947
      ESP Fit Center  148 is at  -2.267188  2.348839  1.934947
      ESP Fit Center  149 is at  -3.015517  2.292760  1.934947
      ESP Fit Center  150 is at  -3.714070  2.018598  1.934947
      ESP Fit Center  151 is at  -4.300777  1.550714  1.934947
      ESP Fit Center  152 is at  -4.723508  0.930683  1.934947
      ESP Fit Center  153 is at  -4.944700  0.213595  1.934947
      ESP Fit Center  154 is at  -4.944700 -0.536832  1.934947
      ESP Fit Center  155 is at  -4.723508 -1.253920  1.934947
      ESP Fit Center  156 is at  -4.300777 -1.873952  1.934947
      ESP Fit Center  157 is at  -3.714070 -2.341835  1.934947
      ESP Fit Center  158 is at  -3.015517 -2.615997  1.934947
      ESP Fit Center  159 is at  -2.267188 -2.672077  1.934947
      ESP Fit Center  160 is at  -1.535576 -2.505091  1.934947
      ESP Fit Center  161 is at  -1.558826  2.597510  1.324415
      ESP Fit Center  162 is at  -2.273158  2.733776  1.324415
      ESP Fit Center  163 is at  -2.998937  2.688114  1.324415
      ESP Fit Center  164 is at  -3.690558  2.463393  1.324415
      ESP Fit Center  165 is at  -4.304564  2.073733  1.324415
      ESP Fit Center  166 is at  -4.802376  1.543617  1.324415
      ESP Fit Center  167 is at  -5.152714  0.906355  1.324415
      ESP Fit Center  168 is at  -5.333565  0.201988  1.324415
      ESP Fit Center  169 is at  -5.333565 -0.525225  1.324415
      ESP Fit Center  170 is at  -5.152714 -1.229592  1.324415
      ESP Fit Center  171 is at  -4.802376 -1.866854  1.324415
      ESP Fit Center  172 is at  -4.304564 -2.396970  1.324415
      ESP Fit Center  173 is at  -3.690558 -2.786630  1.324415
      ESP Fit Center  174 is at  -2.998937 -3.011352  1.324415
      ESP Fit Center  175 is at  -2.273158 -3.057014  1.324415
      ESP Fit Center  176 is at  -1.558826 -2.920747  1.324415
      ESP Fit Center  177 is at  -2.637853  2.972338  0.643827
      ESP Fit Center  178 is at  -3.355673  2.845767  0.643827
      ESP Fit Center  179 is at  -4.024955  2.557067  0.643827
      ESP Fit Center  180 is at  -4.609617  2.121802  0.643827
      ESP Fit Center  181 is at  -5.078141  1.563437  0.643827
      ESP Fit Center  182 is at  -5.405268  0.912074  0.643827
      ESP Fit Center  183 is at  -5.573362  0.202828  0.643827
      ESP Fit Center  184 is at  -5.573362 -0.526065  0.643827
      ESP Fit Center  185 is at  -5.405268 -1.235311  0.643827
      ESP Fit Center  186 is at  -5.078141 -1.886675  0.643827
      ESP Fit Center  187 is at  -4.609617 -2.445039  0.643827
      ESP Fit Center  188 is at  -4.024955 -2.880304  0.643827
      ESP Fit Center  189 is at  -3.355673 -3.169004  0.643827
      ESP Fit Center  190 is at  -2.637853 -3.295575  0.643827
      ESP Fit Center  191 is at  -1.910193 -3.253194  0.643827
      ESP Fit Center  192 is at  -2.455321  3.058381 -0.072690
      ESP Fit Center  193 is at  -3.171838  2.977649 -0.072690
      ESP Fit Center  194 is at  -3.852427  2.739501 -0.072690
      ESP Fit Center  195 is at  -4.462958  2.355879 -0.072690
      ESP Fit Center  196 is at  -4.972818  1.846019 -0.072690
      ESP Fit Center  197 is at  -5.356441  1.235487 -0.072690
      ESP Fit Center  198 is at  -5.594589  0.554899 -0.072690
      ESP Fit Center  199 is at  -5.675321 -0.161619 -0.072690
      ESP Fit Center  200 is at  -5.594589 -0.878136 -0.072690
      ESP Fit Center  201 is at  -5.356441 -1.558724 -0.072690
      ESP Fit Center  202 is at  -4.972818 -2.169256 -0.072690
      ESP Fit Center  203 is at  -4.462958 -2.679116 -0.072690
      ESP Fit Center  204 is at  -3.852427 -3.062738 -0.072690
      ESP Fit Center  205 is at  -3.171838 -3.300887 -0.072690
      ESP Fit Center  206 is at  -2.455321 -3.381619 -0.072690
      ESP Fit Center  207 is at  -1.738804 -3.300887 -0.072690
      ESP Fit Center  208 is at  -2.637853  2.972338 -0.789208
      ESP Fit Center  209 is at  -3.355673  2.845767 -0.789208
      ESP Fit Center  210 is at  -4.024955  2.557067 -0.789208
      ESP Fit Center  211 is at  -4.609617  2.121802 -0.789208
      ESP Fit Center  212 is at  -5.078141  1.563437 -0.789208
      ESP Fit Center  213 is at  -5.405268  0.912074 -0.789208
      ESP Fit Center  214 is at  -5.573362  0.202828 -0.789208
      ESP Fit Center  215 is at  -5.573362 -0.526065 -0.789208
      ESP Fit Center  216 is at  -5.405268 -1.235311 -0.789208
      ESP Fit Center  217 is at  -5.078141 -1.886675 -0.789208
      ESP Fit Center  218 is at  -4.609617 -2.445039 -0.789208
      ESP Fit Center  219 is at  -4.024955 -2.880304 -0.789208
      ESP Fit Center  220 is at  -3.355673 -3.169004 -0.789208
      ESP Fit Center  221 is at  -2.637853 -3.295575 -0.789208
      ESP Fit Center  222 is at  -1.910193 -3.253194 -0.789208
      ESP Fit Center  223 is at  -1.211921 -3.044145 -0.789208
      ESP Fit Center  224 is at  -2.273158  2.733776 -1.469796
      ESP Fit Center  225 is at  -2.998937  2.688114 -1.469796
      ESP Fit Center  226 is at  -3.690558  2.463393 -1.469796
      ESP Fit Center  227 is at  -4.304564  2.073733 -1.469796
      ESP Fit Center  228 is at  -4.802376  1.543617 -1.469796
      ESP Fit Center  229 is at  -5.152714  0.906355 -1.469796
      ESP Fit Center  230 is at  -5.333565  0.201988 -1.469796
      ESP Fit Center  231 is at  -5.333565 -0.525225 -1.469796
      ESP Fit Center  232 is at  -5.152714 -1.229592 -1.469796
      ESP Fit Center  233 is at  -4.802376 -1.866854 -1.469796
      ESP Fit Center  234 is at  -4.304564 -2.396970 -1.469796
      ESP Fit Center  235 is at  -3.690558 -2.786630 -1.469796
      ESP Fit Center  236 is at  -2.998937 -3.011352 -1.469796
      ESP Fit Center  237 is at  -2.273158 -3.057014 -1.469796
      ESP Fit Center  238 is at  -1.558826 -2.920747 -1.469796
      ESP Fit Center  239 is at  -0.885687  1.806640 -2.080327
      ESP Fit Center  240 is at  -1.535576  2.181854 -2.080327
      ESP Fit Center  241 is at  -2.267188  2.348839 -2.080327
      ESP Fit Center  242 is at  -3.015517  2.292760 -2.080327
      ESP Fit Center  243 is at  -3.714070  2.018598 -2.080327
      ESP Fit Center  244 is at  -4.300777  1.550714 -2.080327
      ESP Fit Center  245 is at  -4.723508  0.930683 -2.080327
      ESP Fit Center  246 is at  -4.944700  0.213595 -2.080327
      ESP Fit Center  247 is at  -4.944700 -0.536832 -2.080327
      ESP Fit Center  248 is at  -4.723508 -1.253920 -2.080327
      ESP Fit Center  249 is at  -4.300777 -1.873952 -2.080327
      ESP Fit Center  250 is at  -3.714070 -2.341835 -2.080327
      ESP Fit Center  251 is at  -3.015517 -2.615997 -2.080327
      ESP Fit Center  252 is at  -2.267188 -2.672077 -2.080327
      ESP Fit Center  253 is at  -1.560440  1.635544 -2.590188
      ESP Fit Center  254 is at  -2.270080  1.837454 -2.590188
      ESP Fit Center  255 is at  -3.004737  1.769378 -2.590188
      ESP Fit Center  256 is at  -3.665193  1.440510 -2.590188
      ESP Fit Center  257 is at  -4.162249  0.895266 -2.590188
      ESP Fit Center  258 is at  -4.428774  0.207284 -2.590188
      ESP Fit Center  259 is at  -4.428774 -0.530521 -2.590188
      ESP Fit Center  260 is at  -4.162249 -1.218503 -2.590188
      ESP Fit Center  261 is at  -3.665193 -1.763748 -2.590188
      ESP Fit Center  262 is at  -3.004737 -2.092616 -2.590188
      ESP Fit Center  263 is at  -2.270080 -2.160692 -2.590188
      ESP Fit Center  264 is at  -1.756768  1.048310 -2.973810
      ESP Fit Center  265 is at  -2.455321  1.235487 -2.973810
      ESP Fit Center  266 is at  -3.153874  1.048310 -2.973810
      ESP Fit Center  267 is at  -3.665250  0.536934 -2.973810
      ESP Fit Center  268 is at  -3.852427 -0.161619 -2.973810
      ESP Fit Center  269 is at  -3.665250 -0.860171 -2.973810
      ESP Fit Center  270 is at  -3.153874 -1.371548 -2.973810
      ESP Fit Center  271 is at  -2.455321 -1.558724 -2.973810
      ESP Fit Center  272 is at  -1.756768 -1.371548 -2.973810
      ESP Fit Center  273 is at  -1.738804 -0.161619 -3.211958
      ESP Fit Center  274 is at  -2.097062  0.458904 -3.211958
      ESP Fit Center  275 is at  -2.813580  0.458904 -3.211958
      ESP Fit Center  276 is at  -3.171838 -0.161619 -3.211958
      ESP Fit Center  277 is at  -2.813580 -0.782141 -3.211958
      ESP Fit Center  278 is at  -2.097062 -0.782141 -3.211958
      ESP Fit Center  279 is at  -2.455321 -0.161619 -3.292690
      ESP Fit Center  280 is at   2.138985  3.213001 -2.395073
      ESP Fit Center  281 is at   1.360760  3.118507 -2.395073
      ESP Fit Center  282 is at   0.715590  2.673178 -2.395073
      ESP Fit Center  283 is at   0.351275  1.979034 -2.395073
      ESP Fit Center  284 is at   3.255037  1.587064 -3.068701
      ESP Fit Center  285 is at   3.004185  2.359106 -3.068701
      ESP Fit Center  286 is at   2.347447  2.836255 -3.068701
      ESP Fit Center  287 is at   1.535673  2.836255 -3.068701
      ESP Fit Center  288 is at   0.878935  2.359106 -3.068701
      ESP Fit Center  289 is at   0.628083  1.587064 -3.068701
      ESP Fit Center  290 is at   2.347447  0.337873 -3.068701
      ESP Fit Center  291 is at   3.004185  0.815021 -3.068701
      ESP Fit Center  292 is at   2.670485  1.587064 -3.534866
      ESP Fit Center  293 is at   2.306022  2.218331 -3.534866
      ESP Fit Center  294 is at   1.577098  2.218331 -3.534866
      ESP Fit Center  295 is at   1.212635  1.587064 -3.534866
      ESP Fit Center  296 is at   1.577098  0.955797 -3.534866
      ESP Fit Center  297 is at   2.306022  0.955797 -3.534866
      ESP Fit Center  298 is at   1.941560  1.587064 -3.701238
      ESP Fit Center  299 is at   3.244278  2.504719  0.882729
      ESP Fit Center  300 is at   2.879816  3.135986  0.882729
      ESP Fit Center  301 is at   2.150891  3.135986  0.882729
      ESP Fit Center  302 is at   3.828830  2.504719  0.416565
      ESP Fit Center  303 is at   3.577978  3.276761  0.416565
      ESP Fit Center  304 is at   2.921240  3.753910  0.416565
      ESP Fit Center  305 is at   2.109467  3.753910  0.416565
      ESP Fit Center  306 is at   1.452728  3.276761  0.416565
      ESP Fit Center  307 is at   4.153232  2.504719 -0.257063
      ESP Fit Center  308 is at   3.965623  3.265879 -0.257063
      ESP Fit Center  309 is at   3.445775  3.852667 -0.257063
      ESP Fit Center  310 is at   2.712778  4.130656 -0.257063
      ESP Fit Center  311 is at   1.934553  4.036162 -0.257063
      ESP Fit Center  312 is at   1.289383  3.590833 -0.257063
      ESP Fit Center  313 is at   3.965623  3.265879 -1.004733
      ESP Fit Center  314 is at   3.445775  3.852667 -1.004733
      ESP Fit Center  315 is at   2.712778  4.130656 -1.004733
      ESP Fit Center  316 is at   1.934553  4.036162 -1.004733
      ESP Fit Center  317 is at   1.289383  3.590833 -1.004733
      ESP Fit Center  318 is at   3.577978  3.276761 -1.678361
      ESP Fit Center  319 is at   2.921240  3.753910 -1.678361
      ESP Fit Center  320 is at   2.109467  3.753910 -1.678361
      ESP Fit Center  321 is at   1.452728  3.276761 -1.678361
      ESP Fit Center  322 is at   4.701069  1.045871 -0.094164
      ESP Fit Center  323 is at   4.450217  1.817913 -0.094164
      ESP Fit Center  324 is at   4.450217  0.273828 -0.094164
      ESP Fit Center  325 is at   5.025471  1.045871 -0.767792
      ESP Fit Center  326 is at   4.837862  1.807031 -0.767792
      ESP Fit Center  327 is at   4.318013  2.393819 -0.767792
      ESP Fit Center  328 is at   4.318013 -0.302077 -0.767792
      ESP Fit Center  329 is at   4.837862  0.284710 -0.767792
      ESP Fit Center  330 is at   5.025471  1.045871 -1.515462
      ESP Fit Center  331 is at   4.837862  1.807031 -1.515462
      ESP Fit Center  332 is at   4.318013  2.393819 -1.515462
      ESP Fit Center  333 is at   4.318013 -0.302077 -1.515462
      ESP Fit Center  334 is at   4.837862  0.284710 -1.515462
      ESP Fit Center  335 is at   4.701069  1.045871 -2.189090
      ESP Fit Center  336 is at   4.450217  1.817913 -2.189090
      ESP Fit Center  337 is at   3.793479 -0.203320 -2.189090
      ESP Fit Center  338 is at   4.450217  0.273828 -2.189090
      ESP Fit Center  339 is at   4.116517  1.045871 -2.655255
      ESP Fit Center  340 is at   3.752054  1.677138 -2.655255
      ESP Fit Center  341 is at   3.752054  0.414603 -2.655255
      ESP Fit Center  342 is at   3.891509  0.241922  2.802520
      ESP Fit Center  343 is at   3.527046 -0.389346  2.802520
      ESP Fit Center  344 is at   4.476061  0.241922  2.336356
      ESP Fit Center  345 is at   4.225209  1.013964  2.336356
      ESP Fit Center  346 is at   3.568471 -1.007269  2.336356
      ESP Fit Center  347 is at   4.225209 -0.530121  2.336356
      ESP Fit Center  348 is at   4.800463  0.241922  1.662728
      ESP Fit Center  349 is at   4.612854  1.003082  1.662728
      ESP Fit Center  350 is at   4.093005  1.589870  1.662728
      ESP Fit Center  351 is at   4.093005 -1.106026  1.662728
      ESP Fit Center  352 is at   4.612854 -0.519239  1.662728
      ESP Fit Center  353 is at   4.800463  0.241922  0.915058
      ESP Fit Center  354 is at   4.612854  1.003082  0.915058
      ESP Fit Center  355 is at   4.093005  1.589870  0.915058
      ESP Fit Center  356 is at   4.612854 -0.519239  0.915058
      ESP Fit Center  357 is at   4.476061  0.241922  0.241430
      ESP Fit Center  358 is at   4.225209 -0.530121  0.241430
      ESP Fit Center  359 is at   1.989893  1.375467  3.622790
      ESP Fit Center  360 is at   2.718818  1.375467  3.456417
      ESP Fit Center  361 is at   2.354355  2.006734  3.456417
      ESP Fit Center  362 is at   1.625431  2.006734  3.456417
      ESP Fit Center  363 is at   1.260968  1.375467  3.456417
      ESP Fit Center  364 is at   2.354355  0.744200  3.456417
      ESP Fit Center  365 is at   3.303370  1.375467  2.990253
      ESP Fit Center  366 is at   3.052518  2.147509  2.990253
      ESP Fit Center  367 is at   2.395780  2.624658  2.990253
      ESP Fit Center  368 is at   1.584006  2.624658  2.990253
      ESP Fit Center  369 is at   0.927268  2.147509  2.990253
      ESP Fit Center  370 is at   0.676416  1.375467  2.990253
      ESP Fit Center  371 is at   3.440163  2.136627  2.316625
      ESP Fit Center  372 is at   2.920314  2.723415  2.316625
      ESP Fit Center  373 is at   2.187318  3.001404  2.316625
      ESP Fit Center  374 is at   1.409093  2.906910  2.316625
      ESP Fit Center  375 is at   0.763923  2.461581  2.316625
      ESP Fit Center  376 is at   0.399608  1.767437  2.316625
      ESP Fit Center  377 is at   3.440163  2.136627  1.568955
      ESP Fit Center  378 is at   2.920314  2.723415  1.568955
      ESP Fit Center  379 is at   2.187318  3.001404  1.568955
      ESP Fit Center  380 is at   1.409093  2.906910  1.568955
      ESP Fit Center  381 is at   1.584006  2.624658  0.895327
      ESP Fit Center  382 is at   1.916576 -1.596668  3.809108
      ESP Fit Center  383 is at   2.645500 -1.596668  3.642735
      ESP Fit Center  384 is at   1.552113 -2.227935  3.642735
      ESP Fit Center  385 is at   2.281038 -2.227935  3.642735
      ESP Fit Center  386 is at   3.230053 -1.596668  3.176571
      ESP Fit Center  387 is at   2.979201 -0.824626  3.176571
      ESP Fit Center  388 is at   0.853951 -2.368710  3.176571
      ESP Fit Center  389 is at   1.510689 -2.845859  3.176571
      ESP Fit Center  390 is at   2.322462 -2.845859  3.176571
      ESP Fit Center  391 is at   2.979201 -2.368710  3.176571
      ESP Fit Center  392 is at   3.554455 -1.596668  2.502943
      ESP Fit Center  393 is at   0.690606 -2.682783  2.502943
      ESP Fit Center  394 is at   1.335776 -3.128112  2.502943
      ESP Fit Center  395 is at   2.114000 -3.222605  2.502943
      ESP Fit Center  396 is at   2.846997 -2.944616  2.502943
      ESP Fit Center  397 is at   3.366845 -2.357828  2.502943
      ESP Fit Center  398 is at   1.335776 -3.128112  1.755273
      ESP Fit Center  399 is at   2.114000 -3.222605  1.755273
      ESP Fit Center  400 is at   2.846997 -2.944616  1.755273
      ESP Fit Center  401 is at   1.510689 -2.845859  1.081645
      ESP Fit Center  402 is at   0.766342 -0.485875  4.535606
      ESP Fit Center  403 is at   1.495267 -0.485875  4.369233
      ESP Fit Center  404 is at   1.130804  0.145392  4.369233
      ESP Fit Center  405 is at   0.401880  0.145392  4.369233
      ESP Fit Center  406 is at   0.037417 -0.485875  4.369233
      ESP Fit Center  407 is at   0.401880 -1.117142  4.369233
      ESP Fit Center  408 is at   1.130804 -1.117142  4.369233
      ESP Fit Center  409 is at   2.079819 -0.485875  3.903069
      ESP Fit Center  410 is at   1.828967  0.286167  3.903069
      ESP Fit Center  411 is at   1.172229  0.763316  3.903069
      ESP Fit Center  412 is at   0.360455  0.763316  3.903069
      ESP Fit Center  413 is at  -0.296283  0.286167  3.903069
      ESP Fit Center  414 is at  -0.547135 -0.485875  3.903069
      ESP Fit Center  415 is at  -0.296283 -1.257917  3.903069
      ESP Fit Center  416 is at   0.360455 -1.735066  3.903069
      ESP Fit Center  417 is at   1.172229 -1.735066  3.903069
      ESP Fit Center  418 is at   1.828967 -1.257917  3.903069
      ESP Fit Center  419 is at   0.185542  1.045568  3.229441
      ESP Fit Center  420 is at  -0.823943 -0.877845  3.229441
      ESP Fit Center  421 is at  -0.459628 -1.571990  3.229441
      ESP Fit Center  422 is at   0.185542 -2.017318  3.229441
      ESP Fit Center  423 is at   3.724471 -1.768960  1.770979
      ESP Fit Center  424 is at   3.360009 -2.400228  1.770979
      ESP Fit Center  425 is at   4.309024 -1.768960  1.304815
      ESP Fit Center  426 is at   2.589660 -3.018151  1.304815
      ESP Fit Center  427 is at   3.401433 -3.018151  1.304815
      ESP Fit Center  428 is at   4.058172 -2.541003  1.304815
      ESP Fit Center  429 is at   4.633426 -1.768960  0.631187
      ESP Fit Center  430 is at   4.445816 -1.007800  0.631187
      ESP Fit Center  431 is at   3.192971 -3.394897  0.631187
      ESP Fit Center  432 is at   3.925968 -3.116908  0.631187
      ESP Fit Center  433 is at   4.445816 -2.530121  0.631187
      ESP Fit Center  434 is at   4.633426 -1.768960 -0.116483
      ESP Fit Center  435 is at   4.445816 -1.007800 -0.116483
      ESP Fit Center  436 is at   3.925968 -0.421012 -0.116483
      ESP Fit Center  437 is at   3.925968 -3.116908 -0.116483
      ESP Fit Center  438 is at   4.445816 -2.530121 -0.116483
      ESP Fit Center  439 is at   1.612073 -3.432415  0.763867
      ESP Fit Center  440 is at   2.340998 -3.432415  0.763867
      ESP Fit Center  441 is at   0.913910 -3.573191  0.297703
      ESP Fit Center  442 is at   1.570649 -4.050339  0.297703
      ESP Fit Center  443 is at   2.382422 -4.050339  0.297703
      ESP Fit Center  444 is at   3.039161 -3.573191  0.297703
      ESP Fit Center  445 is at   0.386251 -3.193118 -0.375925
      ESP Fit Center  446 is at   0.750566 -3.887263 -0.375925
      ESP Fit Center  447 is at   1.395736 -4.332592 -0.375925
      ESP Fit Center  448 is at   2.173960 -4.427085 -0.375925
      ESP Fit Center  449 is at   2.906957 -4.149096 -0.375925
      ESP Fit Center  450 is at   3.426805 -3.562308 -0.375925
      ESP Fit Center  451 is at   0.750566 -3.887263 -1.123595
      ESP Fit Center  452 is at   1.395736 -4.332592 -1.123595
      ESP Fit Center  453 is at   2.173960 -4.427085 -1.123595
      ESP Fit Center  454 is at   2.906957 -4.149096 -1.123595
      ESP Fit Center  455 is at   3.426805 -3.562308 -1.123595
      ESP Fit Center  456 is at   0.913910 -3.573191 -1.797223
      ESP Fit Center  457 is at   1.570649 -4.050339 -1.797223
      ESP Fit Center  458 is at   2.382422 -4.050339 -1.797223
      ESP Fit Center  459 is at   3.039161 -3.573191 -1.797223
      ESP Fit Center  460 is at   1.612073 -3.432415 -2.263388
      ESP Fit Center  461 is at   2.340998 -3.432415 -2.263388
      ESP Fit Center  462 is at   1.976536 -2.801148 -2.429760
      ESP Fit Center  463 is at   4.585356 -1.526199 -1.115518
      ESP Fit Center  464 is at   4.397747 -0.765039 -1.115518
      ESP Fit Center  465 is at   4.397747 -2.287360 -1.115518
      ESP Fit Center  466 is at   4.585356 -1.526199 -1.863188
      ESP Fit Center  467 is at   4.397747 -0.765039 -1.863188
      ESP Fit Center  468 is at   3.877898 -2.874147 -1.863188
      ESP Fit Center  469 is at   4.397747 -2.287360 -1.863188
      ESP Fit Center  470 is at   4.260954 -1.526199 -2.536816
      ESP Fit Center  471 is at   4.010102 -0.754157 -2.536816
      ESP Fit Center  472 is at   3.353363 -0.277009 -2.536816
      ESP Fit Center  473 is at   2.541590 -2.775390 -2.536816
      ESP Fit Center  474 is at   3.353363 -2.775390 -2.536816
      ESP Fit Center  475 is at   4.010102 -2.298242 -2.536816
      ESP Fit Center  476 is at   3.676401 -1.526199 -3.002981
      ESP Fit Center  477 is at   3.311939 -0.894932 -3.002981
      ESP Fit Center  478 is at   2.583014 -2.157467 -3.002981
      ESP Fit Center  479 is at   3.311939 -2.157467 -3.002981
      ESP Fit Center  480 is at   2.947477 -1.526199 -3.169353
      ESP Fit Center  481 is at   2.701489 -0.697081 -3.050156
      ESP Fit Center  482 is at   2.513880  0.064079 -3.050156
      ESP Fit Center  483 is at   0.482810  0.834362 -3.050156
      ESP Fit Center  484 is at   1.994031 -2.045029 -3.050156
      ESP Fit Center  485 is at   2.377087 -0.697081 -3.723784
      ESP Fit Center  486 is at   2.126235  0.074961 -3.723784
      ESP Fit Center  487 is at   1.469497  0.552110 -3.723784
      ESP Fit Center  488 is at   0.657723  0.552110 -3.723784
      ESP Fit Center  489 is at   0.000985  0.074961 -3.723784
      ESP Fit Center  490 is at   0.657723 -1.946272 -3.723784
      ESP Fit Center  491 is at   1.469497 -1.946272 -3.723784
      ESP Fit Center  492 is at   2.126235 -1.469123 -3.723784
      ESP Fit Center  493 is at   1.792535 -0.697081 -4.189949
      ESP Fit Center  494 is at   1.428072 -0.065814 -4.189949
      ESP Fit Center  495 is at   0.699148 -0.065814 -4.189949
      ESP Fit Center  496 is at   0.334685 -0.697081 -4.189949
      ESP Fit Center  497 is at   0.699148 -1.328348 -4.189949
      ESP Fit Center  498 is at   1.428072 -1.328348 -4.189949
      ESP Fit Center  499 is at   1.063610 -0.697081 -4.356321
      ESP Fit Center  500 is at  -0.444976 -3.143989 -0.940049
      ESP Fit Center  501 is at  -1.265059 -2.980913 -1.613677
      ESP Fit Center  502 is at  -0.619889 -3.426241 -1.613677
      ESP Fit Center  503 is at   0.158335 -3.520735 -1.613677
      ESP Fit Center  504 is at  -1.629374 -2.286768 -2.361347
      ESP Fit Center  505 is at  -1.265059 -2.980913 -2.361347
      ESP Fit Center  506 is at  -0.619889 -3.426241 -2.361347
      ESP Fit Center  507 is at   0.158335 -3.520735 -2.361347
      ESP Fit Center  508 is at   0.891332 -3.242746 -2.361347
      ESP Fit Center  509 is at   1.411180 -2.655958 -2.361347
      ESP Fit Center  510 is at  -1.352566 -1.894798 -3.034975
      ESP Fit Center  511 is at  -1.101714 -2.666840 -3.034975
      ESP Fit Center  512 is at  -0.444976 -3.143989 -3.034975
      ESP Fit Center  513 is at   0.366797 -3.143989 -3.034975
      ESP Fit Center  514 is at   1.023536 -2.666840 -3.034975
      ESP Fit Center  515 is at  -0.768014 -1.894798 -3.501140
      ESP Fit Center  516 is at  -0.403552 -2.526065 -3.501140
      ESP Fit Center  517 is at   0.325373 -2.526065 -3.501140
      ESP Fit Center  518 is at  -0.039089 -1.894798 -3.667512
      ESP Fit Center  519 is at  -0.251894  1.442595 -2.298975
      ESP Fit Center  520 is at  -0.043431  1.065849 -2.972603
      ESP Fit Center  521 is at  -0.855205  1.065849 -2.972603
      ESP Fit Center  522 is at  -0.084856  0.447925 -3.438768
      ESP Fit Center  523 is at  -0.813780  0.447925 -3.438768
      ESP Fit Center  524 is at  -1.178243 -0.183342 -3.438768
      ESP Fit Center  525 is at   4.163188  2.224872  0.363655
      ESP Fit Center  526 is at   4.170489  2.875105 -1.760267
      ESP Fit Center  527 is at   4.163188  2.224872 -2.420482
      ESP Fit Center  528 is at   3.747847  2.846473 -2.420482
      ESP Fit Center  529 is at   3.126246  3.261813 -2.420482
      ESP Fit Center  530 is at   2.393018  3.407662 -2.420482
      ESP Fit Center  531 is at   3.785086  1.491644 -2.944431
      ESP Fit Center  532 is at   3.564101  2.244253 -2.944431
      ESP Fit Center  533 is at   2.971304  0.225374 -2.944431
      ESP Fit Center  534 is at   2.823899  0.464108  3.596284
      ESP Fit Center  535 is at   3.484113  0.464108  3.259888
      ESP Fit Center  536 is at   3.263127 -0.288501  3.259888
      ESP Fit Center  537 is at   3.869516  1.847569  2.075723
      ESP Fit Center  538 is at   3.484113  2.380126  1.343870
      ESP Fit Center  539 is at   2.669684 -0.734421  3.835831
      ESP Fit Center  540 is at   2.448698  0.018188  3.835831
      ESP Fit Center  541 is at   1.079504 -2.112320  3.835831
      ESP Fit Center  542 is at   3.193634 -0.734421  3.311881
      ESP Fit Center  543 is at   0.544388 -2.504591  3.311881
      ESP Fit Center  544 is at   0.372831 -2.797122  2.651666
      ESP Fit Center  545 is at  -0.575804 -2.652256  2.605237
      ESP Fit Center  546 is at  -1.090612 -3.036838  2.194526
      ESP Fit Center  547 is at  -0.403940 -3.350431  2.194526
      ESP Fit Center  548 is at   0.343267 -3.242999  2.194526
      ESP Fit Center  549 is at  -1.304658 -3.392888  1.579853
      ESP Fit Center  550 is at  -0.602786 -3.730892  1.579853
      ESP Fit Center  551 is at   0.176233 -3.730892  1.579853
      ESP Fit Center  552 is at   0.878105 -3.392888  1.579853
      ESP Fit Center  553 is at  -0.938332 -3.774779  0.854797
      ESP Fit Center  554 is at  -0.213276 -3.919001  0.854797
      ESP Fit Center  555 is at   0.511780 -3.774779  0.854797
      ESP Fit Center  556 is at   1.126452 -3.364068  0.854797
      ESP Fit Center  557 is at  -0.602786 -3.730892  0.129741
      ESP Fit Center  558 is at   0.176233 -3.730892  0.129741
      ESP Fit Center  559 is at  -0.403940 -3.350431 -0.484932
      ESP Fit Center  560 is at   3.568323 -3.659424  0.117884
      ESP Fit Center  561 is at   4.704698 -1.773778 -0.613969
      ESP Fit Center  562 is at   4.588784 -1.041925 -0.613969
[...]
 2523 Fit       0.005073
 2524 Fit       0.005980
 2525 Fit      -0.002961
 2526 Fit       0.003206
 2527 Fit       0.004286
 2528 Fit      -0.001942
 2529 Fit      -0.002726
 2530 Fit      -0.002344
 2531 Fit      -0.001064
 2532 Fit       0.000604
 2533 Fit       0.002144
 2534 Fit      -0.000566
 2535 Fit       0.000808
 2536 Fit       0.013259
 2537 Fit      -0.004254
 2538 Fit      -0.009289
 2539 Fit      -0.009924
 2540 Fit      -0.014214
 2541 Fit      -0.016727
 2542 Fit      -0.010019
 2543 Fit      -0.015062
 2544 Fit      -0.018509
 2545 Fit      -0.020827
 2546 Fit      -0.022281
 2547 Fit      -0.015662
 2548 Fit      -0.019525
 2549 Fit      -0.022215
 2550 Fit      -0.024149
 2551 Fit      -0.025565
 2552 Fit      -0.017018
 2553 Fit      -0.021060
 2554 Fit      -0.023772
 2555 Fit      -0.025719
 2556 Fit      -0.027216
 2557 Fit      -0.018660
 2558 Fit      -0.022546
 2559 Fit      -0.025086
 2560 Fit      -0.026890
 2561 Fit      -0.028289
 2562 Fit      -0.020596
 2563 Fit      -0.023880
 2564 Fit      -0.026068
 2565 Fit      -0.027627
 2566 Fit      -0.028835
 2567 Fit      -0.022734
 2568 Fit      -0.025235
 2569 Fit      -0.026916
 2570 Fit      -0.028094
 2571 Fit      -0.021060
 2572 Fit      -0.023923
 2573 Fit      -0.025697
 2574 Fit      -0.018739
 2575 Fit      -0.022154
 2576 Fit       0.005140
 2577 Fit       0.008824
 2578 Fit       0.006654
 2579 Fit       0.003197
 2580 Fit       0.002074
 2581 Fit       0.003542
 2582 Fit       0.006697
 2583 Fit       0.011718
 2584 Fit       0.007726
 2585 Fit       0.003677
 2586 Fit       0.000962
 2587 Fit      -0.000306
 2588 Fit      -0.000428
 2589 Fit       0.000379
 2590 Fit       0.002060
 2591 Fit       0.004596
 2592 Fit       0.007820
 2593 Fit       0.011263
 2594 Fit       0.012865
 2595 Fit       0.007881
 2596 Fit       0.003495
 2597 Fit       0.000409
 2598 Fit      -0.001439
 2599 Fit      -0.002361
 2600 Fit      -0.002628
 2601 Fit      -0.002411
 2602 Fit      -0.001784
 2603 Fit      -0.000742
 2604 Fit       0.000779
 2605 Fit       0.002843
 2606 Fit       0.005452
 2607 Fit       0.008530
 2608 Fit       0.012236
 2609 Fit       0.006655
 2610 Fit       0.002136
 2611 Fit      -0.000948
 2612 Fit      -0.002830
 2613 Fit      -0.003873
 2614 Fit      -0.004357
 2615 Fit      -0.004461
 2616 Fit      -0.004295
 2617 Fit      -0.003923
 2618 Fit      -0.003368
 2619 Fit      -0.002614
 2620 Fit      -0.001609
 2621 Fit      -0.000281
 2622 Fit       0.001446
 2623 Fit       0.003611
 2624 Fit       0.006173
 2625 Fit       0.008999
 2626 Fit       0.008849
 2627 Fit       0.002766
 2628 Fit      -0.001486
 2629 Fit      -0.004024
 2630 Fit      -0.005384
 2631 Fit      -0.006035
 2632 Fit      -0.006266
 2633 Fit      -0.006232
 2634 Fit      -0.006021
 2635 Fit      -0.005685
 2636 Fit      -0.005259
 2637 Fit      -0.004758
 2638 Fit      -0.004178
 2639 Fit      -0.003490
 2640 Fit      -0.002639
 2641 Fit      -0.001554
 2642 Fit      -0.000156
 2643 Fit       0.001625
 2644 Fit       0.003825
 2645 Fit       0.006392
 2646 Fit       0.009125
 2647 Fit       0.001705
 2648 Fit      -0.004129
 2649 Fit      -0.007204
 2650 Fit      -0.008468
 2651 Fit      -0.008792
 2652 Fit      -0.008689
 2653 Fit      -0.008397
 2654 Fit      -0.008008
 2655 Fit      -0.007557
 2656 Fit      -0.007065
 2657 Fit      -0.006547
 2658 Fit      -0.006018
 2659 Fit      -0.005482
 2660 Fit      -0.004932
 2661 Fit      -0.004340
 2662 Fit      -0.003662
 2663 Fit      -0.002834
 2664 Fit      -0.001779
 2665 Fit      -0.000416
 2666 Fit       0.001337
 2667 Fit       0.003539
 2668 Fit       0.006184
 2669 Fit       0.009108
 2670 Fit      -0.013949
 2671 Fit      -0.013430
 2672 Fit      -0.012470
 2673 Fit      -0.011486
 2674 Fit      -0.010593
 2675 Fit      -0.009791
 2676 Fit      -0.009052
 2677 Fit      -0.008355
 2678 Fit      -0.007691
 2679 Fit      -0.007061
 2680 Fit      -0.006468
 2681 Fit      -0.005913
 2682 Fit      -0.005386
 2683 Fit      -0.004866
 2684 Fit      -0.004315
 2685 Fit      -0.003682
 2686 Fit      -0.002902
 2687 Fit      -0.001900
 2688 Fit      -0.000594
 2689 Fit       0.001101
 2690 Fit       0.003266
 2691 Fit       0.005950
 2692 Fit       0.009098
 2693 Fit      -0.020514
 2694 Fit      -0.017867
 2695 Fit      -0.015593
 2696 Fit      -0.013780
 2697 Fit      -0.012339
 2698 Fit      -0.011157
 2699 Fit      -0.010144
 2700 Fit      -0.009243
 2701 Fit      -0.008424
 2702 Fit      -0.007677
 2703 Fit      -0.006998
 2704 Fit      -0.006388
 2705 Fit      -0.005843
 2706 Fit      -0.005347
 2707 Fit      -0.004877
 2708 Fit      -0.004392
 2709 Fit      -0.003842
 2710 Fit      -0.003164
 2711 Fit      -0.002287
 2712 Fit      -0.001130
 2713 Fit       0.000391
 2714 Fit       0.002369
 2715 Fit       0.004895
 2716 Fit       0.008018
 2717 Fit      -0.023087
 2718 Fit      -0.019242
 2719 Fit      -0.016413
 2720 Fit      -0.014301
 2721 Fit      -0.012659
 2722 Fit      -0.011316
 2723 Fit      -0.010169
 2724 Fit      -0.009158
 2725 Fit      -0.008255
 2726 Fit      -0.007451
 2727 Fit      -0.006744
 2728 Fit      -0.006130
 2729 Fit      -0.005601
 2730 Fit      -0.005138
 2731 Fit      -0.004707
 2732 Fit      -0.004263
 2733 Fit      -0.003749
 2734 Fit      -0.003096
 2735 Fit      -0.002228
 2736 Fit      -0.001059
 2737 Fit       0.000503
 2738 Fit       0.002558
 2739 Fit       0.005202
 2740 Fit       0.008489
 2741 Fit      -0.027842
 2742 Fit      -0.022550
 2743 Fit      -0.018798
 2744 Fit      -0.016078
 2745 Fit      -0.014020
 2746 Fit      -0.012381
 2747 Fit      -0.011012
 2748 Fit      -0.009827
 2749 Fit      -0.008783
 2750 Fit      -0.007861
 2751 Fit      -0.007055
 2752 Fit      -0.006363
 2753 Fit      -0.005780
 2754 Fit      -0.005292
 2755 Fit      -0.004874
 2756 Fit      -0.004489
 2757 Fit      -0.004087
 2758 Fit      -0.003607
 2759 Fit      -0.002979
 2760 Fit      -0.002126
 2761 Fit      -0.000962
 2762 Fit       0.000601
 2763 Fit       0.002654
 2764 Fit       0.005278
 2765 Fit       0.008499
 2766 Fit      -0.029283
 2767 Fit      -0.023618
 2768 Fit      -0.019609
 2769 Fit      -0.016693
 2770 Fit      -0.014476
 2771 Fit      -0.012704
 2772 Fit      -0.011223
 2773 Fit      -0.009944
 2774 Fit      -0.008821
 2775 Fit      -0.007837
 2776 Fit      -0.006984
 2777 Fit      -0.006260
 2778 Fit      -0.005661
 2779 Fit      -0.005172
 2780 Fit      -0.004768
 2781 Fit      -0.004412
 2782 Fit      -0.004052
 2783 Fit      -0.003628
 2784 Fit      -0.003069
 2785 Fit      -0.002297
 2786 Fit      -0.001230
 2787 Fit       0.000218
 2788 Fit       0.002132
 2789 Fit       0.004582
 2790 Fit       0.007611
 2791 Fit       0.011249
 2792 Fit      -0.026978
 2793 Fit      -0.022171
 2794 Fit      -0.018644
 2795 Fit      -0.015986
 2796 Fit      -0.013896
 2797 Fit      -0.012179
 2798 Fit      -0.010716
 2799 Fit      -0.009441
 2800 Fit      -0.008324
 2801 Fit      -0.007353
 2802 Fit      -0.006527
 2803 Fit      -0.005841
 2804 Fit      -0.005288
 2805 Fit      -0.004845
 2806 Fit      -0.004480
 2807 Fit      -0.004146
 2808 Fit      -0.003783
 2809 Fit      -0.003321
 2810 Fit      -0.002683
 2811 Fit      -0.001784
 2812 Fit      -0.000539
 2813 Fit       0.001141
 2814 Fit       0.003339
 2815 Fit       0.006125
 2816 Fit       0.009568
 2817 Fit      -0.028173
 2818 Fit      -0.023630
 2819 Fit      -0.020016
 2820 Fit      -0.017180
 2821 Fit      -0.014915
 2822 Fit      -0.013049
 2823 Fit      -0.011461
 2824 Fit      -0.010078
 2825 Fit      -0.008863
 2826 Fit      -0.007799
 2827 Fit      -0.006883
 2828 Fit      -0.006116
 2829 Fit      -0.005491
 2830 Fit      -0.004993
 2831 Fit      -0.004596
 2832 Fit      -0.004258
 2833 Fit      -0.003925
 2834 Fit      -0.003530
 2835 Fit      -0.002999
 2836 Fit      -0.002251
 2837 Fit      -0.001198
 2838 Fit       0.000250
 2839 Fit       0.002192
 2840 Fit       0.004733
 2841 Fit      -0.024515
 2842 Fit      -0.021531
 2843 Fit      -0.018734
 2844 Fit      -0.016321
 2845 Fit      -0.014272
 2846 Fit      -0.012514
 2847 Fit      -0.010979
 2848 Fit      -0.009623
 2849 Fit      -0.008428
 2850 Fit      -0.007388
 2851 Fit      -0.006506
 2852 Fit      -0.005781
 2853 Fit      -0.005202
 2854 Fit      -0.004745
 2855 Fit      -0.004370
 2856 Fit      -0.004018
 2857 Fit      -0.003618
 2858 Fit      -0.003089
 2859 Fit      -0.002341
 2860 Fit      -0.001275
 2861 Fit       0.000217
 2862 Fit       0.002265
 2863 Fit      -0.017212
 2864 Fit      -0.019696
 2865 Fit      -0.019544
 2866 Fit      -0.018134
 2867 Fit      -0.016321
 2868 Fit      -0.014499
 2869 Fit      -0.012803
 2870 Fit      -0.011259
 2871 Fit      -0.009862
 2872 Fit      -0.008614
 2873 Fit      -0.007520
 2874 Fit      -0.006590
 2875 Fit      -0.005828
 2876 Fit      -0.005221
 2877 Fit      -0.004739
 2878 Fit      -0.004330
 2879 Fit      -0.003919
 2880 Fit      -0.003419
 2881 Fit      -0.002730
 2882 Fit      -0.001743
 2883 Fit      -0.000344
 2884 Fit       0.001593
 2885 Fit      -0.010371
 2886 Fit      -0.013824
 2887 Fit      -0.015102
 2888 Fit      -0.014898
 2889 Fit      -0.013928
 2890 Fit      -0.012652
 2891 Fit      -0.011302
 2892 Fit      -0.009984
 2893 Fit      -0.008754
 2894 Fit      -0.007650
 2895 Fit      -0.006699
 2896 Fit      -0.005913
 2897 Fit      -0.005282
 2898 Fit      -0.004767
 2899 Fit      -0.004304
 2900 Fit      -0.003804
 2901 Fit      -0.003164
 2902 Fit      -0.002279
 2903 Fit      -0.001056
 2904 Fit       0.000542
 2905 Fit      -0.006969
 2906 Fit      -0.010066
 2907 Fit      -0.011718
 2908 Fit      -0.012039
 2909 Fit      -0.011513
 2910 Fit      -0.010560
 2911 Fit      -0.009443
 2912 Fit      -0.008317
 2913 Fit      -0.007276
 2914 Fit      -0.006375
 2915 Fit      -0.005631
 2916 Fit      -0.005017
 2917 Fit      -0.004463
 2918 Fit      -0.003867
 2919 Fit      -0.003122
 2920 Fit      -0.002152
 2921 Fit      -0.000991
 2922 Fit      -0.005523
 2923 Fit      -0.008032
 2924 Fit      -0.009514
 2925 Fit      -0.009804
 2926 Fit      -0.009283
 2927 Fit      -0.008368
 2928 Fit      -0.007350
 2929 Fit      -0.006400
 2930 Fit      -0.005588
 2931 Fit      -0.004882
 2932 Fit      -0.004184
 2933 Fit      -0.003384
 2934 Fit      -0.002480
 2935 Fit      -0.001709
 2936 Fit      -0.003273
 2937 Fit      -0.004792
 2938 Fit      -0.006780
 2939 Fit      -0.007967
 2940 Fit      -0.007970
 2941 Fit      -0.007242
 2942 Fit      -0.006295
 2943 Fit      -0.005392
 2944 Fit      -0.004549
 2945 Fit      -0.003712
 2946 Fit      -0.003028
 2947 Fit      -0.002798
 2948 Fit      -0.004518
 2949 Fit      -0.005978
 2950 Fit      -0.006667
 2951 Fit      -0.005987
 2952 Fit      -0.004955
 2953 Fit      -0.004214
 2954 Fit      -0.005412
 2955 Fit      -0.006856
 2956 Fit      -0.010645
 2957 Fit      -0.014157
 2958 Fit      -0.015809
 2959 Fit      -0.001609
 2960 Fit      -0.004079
 2961 Fit      -0.006531
 2962 Fit      -0.008033
 2963 Fit      -0.007420
 2964 Fit       0.003933
 2965 Fit       0.001975
 2966 Fit      -0.000063
 2967 Fit      -0.002058
 2968 Fit      -0.003225
 2969 Fit      -0.002445
 2970 Fit       0.005897
 2971 Fit       0.003489
 2972 Fit       0.001460
 2973 Fit       0.000128
 2974 Fit       0.001148
 2975 Fit       0.005007
 2976 Fit       0.002663
 2977 Fit       0.006503
 2978 Fit       0.003976
 2979 Fit       0.000550
 2980 Fit       0.005893
 2981 Fit       0.004040
 2982 Fit       0.001601
 2983 Fit      -0.002180
 2984 Fit      -0.008265
 2985 Fit       0.005260
 2986 Fit       0.003796
 2987 Fit       0.002064
 2988 Fit      -0.000463
 2989 Fit      -0.004429
 2990 Fit      -0.010917
 2991 Fit       0.003064
 2992 Fit       0.001468
 2993 Fit      -0.000861
 2994 Fit      -0.004521
 2995 Fit      -0.010490
 2996 Fit       0.002219
 2997 Fit       0.000635
 2998 Fit      -0.001662
 2999 Fit      -0.005232
 3000 Fit      -0.010936
 3001 Fit      -0.000450
 3002 Fit      -0.002879
 3003 Fit      -0.006556
 3004 Fit      -0.012186
 3005 Fit      -0.002641
 3006 Fit      -0.006133
 3007 Fit       0.009618
 3008 Fit       0.010608
 3009 Fit       0.008606
 3010 Fit       0.014519
 3011 Fit       0.012616
 3012 Fit       0.009502
 3013 Fit       0.007735
 3014 Fit       0.005935
 3015 Fit       0.012511
 3016 Fit       0.011131
 3017 Fit       0.008685
 3018 Fit       0.007034
 3019 Fit       0.005283
 3020 Fit       0.011519
 3021 Fit       0.010176
 3022 Fit       0.007950
 3023 Fit       0.006363
 3024 Fit       0.004663
 3025 Fit       0.010899
 3026 Fit       0.009411
 3027 Fit       0.007212
 3028 Fit       0.005487
 3029 Fit       0.008844
 3030 Fit       0.006490
 3031 Fit       0.008356
 3032 Fit       0.011627
 3033 Fit       0.013009
 3034 Fit       0.011842
 3035 Fit       0.010683
 3036 Fit       0.014736
 3037 Fit       0.013141
 3038 Fit       0.012190
 3039 Fit       0.011019
 3040 Fit       0.009913
 3041 Fit       0.016993
 3042 Fit       0.014890
 3043 Fit       0.013419
 3044 Fit       0.012561
 3045 Fit       0.011307
 3046 Fit       0.010019
 3047 Fit       0.008887
 3048 Fit       0.015364
 3049 Fit       0.013820
 3050 Fit       0.012958
 3051 Fit       0.011663
 3052 Fit       0.010173
 3053 Fit       0.014156
 3054 Fit       0.013602
 3055 Fit       0.014500
 3056 Fit       0.011697
 3057 Fit       0.010738
 3058 Fit       0.010085
 3059 Fit       0.010797
 3060 Fit       0.009343
 3061 Fit       0.008776
 3062 Fit       0.008690
 3063 Fit       0.009953
 3064 Fit       0.013435
 3065 Fit       0.009073
 3066 Fit       0.008261
 3067 Fit       0.007487
 3068 Fit       0.006763
 3069 Fit       0.006607
 3070 Fit       0.008143
 3071 Fit       0.012569
 3072 Fit       0.008030
 3073 Fit       0.007053
 3074 Fit       0.005871
 3075 Fit       0.004441
 3076 Fit       0.003151
 3077 Fit       0.003071
 3078 Fit       0.006037
 3079 Fit       0.007789
 3080 Fit       0.006505
 3081 Fit       0.004814
 3082 Fit       0.002342
 3083 Fit      -0.000816
 3084 Fit       0.006222
 3085 Fit       0.003932
 3086 Fit      -0.000172
 3087 Fit       0.011420
 3088 Fit       0.012128
 3089 Fit       0.011390
 3090 Fit       0.011780
 3091 Fit       0.012073
 3092 Fit       0.013135
 3093 Fit       0.011531
 3094 Fit       0.011900
 3095 Fit       0.012371
 3096 Fit       0.012786
 3097 Fit       0.013054
 3098 Fit       0.014657
 3099 Fit       0.012145
 3100 Fit       0.012459
 3101 Fit       0.012912
 3102 Fit       0.013417
 3103 Fit       0.013914
 3104 Fit       0.014340
 3105 Fit       0.012999
 3106 Fit       0.013159
 3107 Fit       0.013591
 3108 Fit       0.014257
 3109 Fit       0.015105
 3110 Fit       0.016000
 3111 Fit       0.014035
 3112 Fit       0.013727
 3113 Fit       0.013961
 3114 Fit       0.011305
 3115 Fit       0.011152
 3116 Fit       0.011472
 3117 Fit       0.011750
 3118 Fit       0.011578
 3119 Fit       0.011140
 3120 Fit       0.011008
 3121 Fit       0.011226
 3122 Fit       0.011456
 3123 Fit       0.011811
 3124 Fit       0.012145
 3125 Fit       0.012435
 3126 Fit       0.012278
 3127 Fit       0.011620
 3128 Fit       0.011071
 3129 Fit       0.010880
 3130 Fit       0.010964
 3131 Fit       0.011110
 3132 Fit       0.012549
 3133 Fit       0.012732
 3134 Fit       0.013113
 3135 Fit       0.013705
 3136 Fit       0.011577
 3137 Fit       0.011009
 3138 Fit       0.010874
 3139 Fit       0.014226
 3140 Fit       0.011050
 3141 Fit       0.015823
 3142 Fit       0.014304
 3143 Fit       0.014207
 3144 Fit       0.014699
 3145 Fit       0.014314
 3146 Fit       0.012172
 3147 Fit       0.012165
 3148 Fit       0.012533
 3149 Fit       0.013217
 3150 Fit       0.012852
 3151 Fit       0.014479
 3152 Fit       0.010655
 3153 Fit       0.011101
 3154 Fit       0.011812
 3155 Fit       0.011597
 3156 Fit       0.013064
 3157 Fit       0.010609
 3158 Fit       0.012478
 3159 Fit       0.011618
 3160 Fit       0.011261
 3161 Fit       0.011994
 3162 Fit       0.011131
 3163 Fit       0.010573
 3164 Fit       0.010149
 3165 Fit       0.009911
 3166 Fit       0.011241
 3167 Fit       0.010626
 3168 Fit       0.010183
 3169 Fit       0.009758
 3170 Fit       0.009330
 3171 Fit       0.008989
 3172 Fit       0.010172
 3173 Fit       0.009826
 3174 Fit       0.009528
 3175 Fit       0.009168
 3176 Fit       0.008745
 3177 Fit       0.008352
 3178 Fit       0.009246
 3179 Fit       0.008954
 3180 Fit       0.008655
 3181 Fit       0.008281
 3182 Fit       0.007904
 3183 Fit       0.008294
 3184 Fit       0.008002
 3185 Fit       0.007665
 3186 Fit       0.007392
 3187 Fit       0.007196
 3188 Fit       0.010605
 3189 Fit       0.012002
 3190 Fit       0.010002
 3191 Fit       0.011105
 3192 Fit       0.008453
 3193 Fit       0.009158
 3194 Fit       0.009668
 3195 Fit       0.010444
 3196 Fit       0.007731
 3197 Fit       0.008287
 3198 Fit       0.008953
 3199 Fit       0.009408
 3200 Fit       0.009969
 3201 Fit       0.007474
 3202 Fit       0.008049
 3203 Fit       0.008735
 3204 Fit       0.009173
 3205 Fit       0.009641
 3206 Fit       0.009885
 3207 Fit       0.007197
 3208 Fit       0.007751
 3209 Fit       0.008472
 3210 Fit       0.009013
 3211 Fit       0.009707
 3212 Fit       0.008268
 3213 Fit       0.009122
 3214 Fit       0.008142
 3215 Fit       0.007389
 3216 Fit       0.006239
 3217 Fit      -0.001009
 3218 Fit       0.005349
 3219 Fit       0.006814
 3220 Fit       0.007944
 3221 Fit       0.006385
 3222 Fit       0.005622
 3223 Fit       0.003940
 3224 Fit       0.001566
 3225 Fit      -0.000373
 3226 Fit       0.003075
 3227 Fit       0.004726
 3228 Fit       0.006010
 3229 Fit       0.004724
 3230 Fit       0.003608
 3231 Fit       0.001706
 3232 Fit       0.001167
 3233 Fit       0.002392
 3234 Fit       0.004061
 3235 Fit       0.002996
 3236 Fit       0.009549
 3237 Fit       0.005841
 3238 Fit       0.007629
 3239 Fit       0.004256
 3240 Fit       0.005727
 3241 Fit       0.006682
 3242 Fit       0.007094
 3243 Fit       0.002965
 3244 Fit       0.004355
 3245 Fit       0.005116
 3246 Fit       0.001049
 3247 Fit       0.002761
 3248 Fit       0.003686
 -----------------------------------------------------------------
 Leave Link  602 at Thu Jan 16 22:40:39 2014, MaxMem=   235929600 cpu:         1.5

 Test job not archived.
 1\1\GINC-G54\SP\RHF\Gen\C10H15Br1O1\KOLAR\16-Jan-2014\0\\# hf/gen pop=
 mk iop(6/33=2,6/41=5,6/42=2)\\na resp\\0,1\C,0,2.393018,1.491644,-1.02
 8413\C,0,1.524107,0.659459,-0.101327\C,0,2.092045,0.464108,1.34387\C,0
 ,1.277616,-0.734421,1.919813\C,0,0.272475,-1.048883,0.778615\H,0,-0.21
 3276,-2.024339,0.854797\C,0,1.140568,-0.811469,-0.507731\C,0,2.33637,-
 1.773778,-0.613969\C,0,0.377871,-0.891453,-1.843507\C,0,-0.706122,0.13
 8136,0.800759\H,0,-0.99166,0.439749,1.80962\C,0,0.123815,1.254332,0.12
 1097\O,0,-0.253008,2.369278,-0.148423\Br,0,-2.455321,-0.161619,-0.0726
 9\H,0,1.94156,1.587064,-2.021238\H,0,2.515353,2.504719,-0.630898\H,0,3
 .387592,1.045871,-1.141627\H,0,3.162584,0.241922,1.288893\H,0,1.989893
 ,1.375467,1.94279\H,0,1.916576,-1.596668,2.129108\H,0,0.766342,-0.4858
 75,2.855606\H,0,2.995547,-1.76896,0.257352\H,0,1.976536,-2.801148,-0.7
 4976\H,0,2.947477,-1.526199,-1.489353\H,0,1.06361,-0.697081,-2.676321\
 H,0,-0.039089,-1.894798,-1.987512\H,0,-0.449318,-0.183342,-1.92514\\Ve
 rsion=AM64L-G09RevD.01\State=1-A\HF=-3031.8602181\RMSD=2.454e-09\Dipol
 e=1.3178143,-1.0875587,0.5376605\Quadrupole=0.4157413,-4.2655753,3.849
 834,1.1621797,0.007246,1.0529231\PG=C01 [X(C10H15Br1O1)]\\@


 ALL SCIENCE IS EITHER PHYSICS, OR STAMP COLLECTING.
   --ERNEST RUTHERFORD, 1871-1937.
 Job cpu time:       0 days  0 hours  3 minutes 52.3 seconds.
 File lengths (MBytes):  RWF=     26 Int=      0 D2E=      0 Chk=      3 Scr=      1
 Normal termination of Gaussian 09 at Thu Jan 16 22:40:39 2014.
232.02user 0.31system 3:52.89elapsed 99%CPU (0avgtext+0avgdata 603408maxresident)k
8inputs+121112outputs (0major+171599minor)pagefaults 0swaps
