Linux g54 2.6.38.6-client #1 SMP Tue Jun 12 11:27:21 CEST 2012 x86_64 GNU/Linux
Thu Jan 16 22:36:46 CET 2014

 Entering Gaussian System, Link 0=/usr/local/programs/common/gaussian/gaussian09_d01/arch/amd64-pgi_10.4.0-acml/g09/g09
 Initial command:
 /usr/local/programs/common/gaussian/gaussian09_d01/arch/amd64-pgi_10.4.0-acml/g09/l1.exe "/scratch/kolar/g09_25700/Gau-1759.inp" -scrdir="/scratch/kolar/g09_25700/"
 Entering Link 1 = /usr/local/programs/common/gaussian/gaussian09_d01/arch/amd64-pgi_10.4.0-acml/g09/l1.exe PID=      1766.
  
 Copyright (c) 1988,1990,1992,1993,1995,1998,2003,2009,2013,
            Gaussian, Inc.  All Rights Reserved.
  
 This is part of the Gaussian(R) 09 program.  It is based on
 the Gaussian(R) 03 system (copyright 2003, Gaussian, Inc.),
 the Gaussian(R) 98 system (copyright 1998, Gaussian, Inc.),
 the Gaussian(R) 94 system (copyright 1995, Gaussian, Inc.),
 the Gaussian 92(TM) system (copyright 1992, Gaussian, Inc.),
 the Gaussian 90(TM) system (copyright 1990, Gaussian, Inc.),
 the Gaussian 88(TM) system (copyright 1988, Gaussian, Inc.),
 the Gaussian 86(TM) system (copyright 1986, Carnegie Mellon
 University), and the Gaussian 82(TM) system (copyright 1983,
 Carnegie Mellon University). Gaussian is a federally registered
 trademark of Gaussian, Inc.
  
 This software contains proprietary and confidential information,
 including trade secrets, belonging to Gaussian, Inc.
  
 This software is provided under written license and may be
 used, copied, transmitted, or stored only in accord with that
 written license.
  
 The following legend is applicable only to US Government
 contracts under FAR:
  
                    RESTRICTED RIGHTS LEGEND
  
 Use, reproduction and disclosure by the US Government is
 subject to restrictions as set forth in subparagraphs (a)
 and (c) of the Commercial Computer Software - Restricted
 Rights clause in FAR 52.227-19.
  
 Gaussian, Inc.
 340 Quinnipiac St., Bldg. 40, Wallingford CT 06492
  
  
 ---------------------------------------------------------------
 Warning -- This program may not be used in any manner that
 competes with the business of Gaussian, Inc. or will provide
 assistance to any competitor of Gaussian, Inc.  The licensee
 of this program is prohibited from giving any competitor of
 Gaussian, Inc. access to this program.  By using this program,
 the user acknowledges that Gaussian, Inc. is engaged in the
 business of creating and licensing software in the field of
 computational chemistry and represents and warrants to the
 licensee that it is not a competitor of Gaussian, Inc. and that
 it will not use this program in any manner prohibited above.
 ---------------------------------------------------------------
  

 Cite this work as:
 Gaussian 09, Revision D.01,
 M. J. Frisch, G. W. Trucks, H. B. Schlegel, G. E. Scuseria, 
 M. A. Robb, J. R. Cheeseman, G. Scalmani, V. Barone, B. Mennucci, 
 G. A. Petersson, H. Nakatsuji, M. Caricato, X. Li, H. P. Hratchian, 
 A. F. Izmaylov, J. Bloino, G. Zheng, J. L. Sonnenberg, M. Hada, 
 M. Ehara, K. Toyota, R. Fukuda, J. Hasegawa, M. Ishida, T. Nakajima, 
 Y. Honda, O. Kitao, H. Nakai, T. Vreven, J. A. Montgomery, Jr., 
 J. E. Peralta, F. Ogliaro, M. Bearpark, J. J. Heyd, E. Brothers, 
 K. N. Kudin, V. N. Staroverov, T. Keith, R. Kobayashi, J. Normand, 
 K. Raghavachari, A. Rendell, J. C. Burant, S. S. Iyengar, J. Tomasi, 
 M. Cossi, N. Rega, J. M. Millam, M. Klene, J. E. Knox, J. B. Cross, 
 V. Bakken, C. Adamo, J. Jaramillo, R. Gomperts, R. E. Stratmann, 
 O. Yazyev, A. J. Austin, R. Cammi, C. Pomelli, J. W. Ochterski, 
 R. L. Martin, K. Morokuma, V. G. Zakrzewski, G. A. Voth, 
 P. Salvador, J. J. Dannenberg, S. Dapprich, A. D. Daniels, 
 O. Farkas, J. B. Foresman, J. V. Ortiz, J. Cioslowski, 
 and D. J. Fox, Gaussian, Inc., Wallingford CT, 2013.
 
 ******************************************
 Gaussian 09:  AM64L-G09RevD.01 24-Apr-2013
                16-Jan-2014 
 ******************************************
 %mem=1800mb
 -----------------------------------------
 # hf/gen pop=mk iop(6/33=2,6/41=5,6/42=2)
 -----------------------------------------
 1/38=1/1;
 2/12=2,17=6,18=5,40=1/2;
 3/5=7,11=9,16=1,25=1,30=1/1,2,3;
 4//1;
 5/5=2,38=5/2;
 6/7=2,8=2,9=2,10=2,15=8,20=1,28=1,33=2,41=5,42=2/1,2;
 99/5=1,9=1/99;
 -------
 na resp
 -------
 Symbolic Z-matrix:
 Charge =  0 Multiplicity = 1
 7                     2.45572   1.81393  -0.00002 
 6                     1.3166    1.12819  -0.00006 
 7                     0.2058    1.95663  -0.00009 
 6                     0.68793   3.24369   0.00007 
 6                     2.06731   3.12008   0.0001 
 6                    -1.08059   1.43235  -0.00005 
 6                    -1.1665    0.07128  -0.00002 
 7                    -0.13738  -0.79652   0.00002 
 6                     1.09022  -0.28922   0.00001 
 7                     2.16868  -1.10106  -0.00002 
 6                     2.08375  -2.55509   0.00001 
 6                     3.47928  -3.17042  0. 
 35                   -2.92075  -0.70627   0.00002 
 1                     4.04667  -2.87026   0.88875 
 1                     3.40858  -4.26237   0.00002 
 1                     4.04665  -2.8703   -0.88879 
 1                     1.51414  -2.88389   0.87851 
 1                     1.51411  -2.88392  -0.87846 
 1                     3.07157  -0.64517  -0.00004 
 1                     2.79227   3.92348   0.0003 
 1                     0.03114   4.10002  -0.00033 
 1                    -1.91648   2.11577  -0.00008 
 
                          Input orientation:                          
 ---------------------------------------------------------------------
 Center     Atomic      Atomic             Coordinates (Angstroms)
 Number     Number       Type             X           Y           Z
 ---------------------------------------------------------------------
      1          7           0        2.455721    1.813925   -0.000020
      2          6           0        1.316595    1.128189   -0.000055
      3          7           0        0.205800    1.956628   -0.000094
      4          6           0        0.687926    3.243689    0.000067
      5          6           0        2.067306    3.120082    0.000102
      6          6           0       -1.080593    1.432348   -0.000052
      7          6           0       -1.166502    0.071281   -0.000023
      8          7           0       -0.137384   -0.796521    0.000017
      9          6           0        1.090216   -0.289219    0.000010
     10          7           0        2.168684   -1.101057   -0.000019
     11          6           0        2.083752   -2.555085    0.000007
     12          6           0        3.479275   -3.170415   -0.000003
     13         35           0       -2.920750   -0.706269    0.000018
     14          1           0        4.046674   -2.870257    0.888751
     15          1           0        3.408579   -4.262366    0.000023
     16          1           0        4.046648   -2.870297   -0.888788
     17          1           0        1.514142   -2.883886    0.878508
     18          1           0        1.514114   -2.883923   -0.878462
     19          1           0        3.071570   -0.645166   -0.000043
     20          1           0        2.792271    3.923479    0.000301
     21          1           0        0.031141    4.100024   -0.000329
     22          1           0       -1.916475    2.115766   -0.000080
 ---------------------------------------------------------------------
                    Distance matrix (angstroms):
                    1          2          3          4          5
     1  N    0.000000
     2  C    1.329602   0.000000
     3  N    2.254442   1.385704   0.000000
     4  C    2.273615   2.206936   1.374399   0.000000
     5  C    1.362686   2.128663   2.195183   1.384907   0.000000
     6  C    3.556841   2.416407   1.389128   2.531524   3.571794
     7  C    4.019615   2.698671   2.331898   3.674653   4.444401
     8  N    3.679487   2.412170   2.774456   4.123643   4.494490
     9  C    2.507552   1.435372   2.413715   3.555738   3.546553
    10  N    2.929080   2.386544   3.633504   4.590148   4.222356
    11  C    4.384816   3.762318   4.886948   5.964404   5.675191
    12  C    5.088350   4.811983   6.082944   6.995167   6.447016
    13  Br   5.937829   4.617394   4.106864   5.350207   6.286626
    14  H    5.026192   4.922487   6.232269   7.032161   6.371166
    15  H    6.150549   5.782256   6.995261   7.983910   7.503303
    16  H    5.026221   4.922492   6.232262   7.032205   6.371229
    17  H    4.871120   4.111891   5.090607   6.245115   6.093047
    18  H    4.871146   4.111892   5.090594   6.245160   6.093109
    19  H    2.535034   2.494940   3.870655   4.561245   3.896876
    20  H    2.136231   3.160896   3.249359   2.211421   1.082137
    21  H    3.332392   3.237931   2.150500   1.079202   2.259702
    22  H    4.382603   3.380540   2.128233   2.838153   4.108426
                    6          7          8          9         10
     6  C    0.000000
     7  C    1.363776   0.000000
     8  N    2.420227   1.346166   0.000000
     9  C    2.770596   2.285331   1.328291   0.000000
    10  N    4.120187   3.535229   2.326089   1.349879   0.000000
    11  C    5.090452   4.178750   2.833018   2.474119   1.456506
    12  C    6.479030   5.664966   4.326152   3.742846   2.449468
    13  Br   2.821322   1.918846   2.784829   4.032590   5.104723
    14  H    6.752129   6.051427   4.753585   4.023961   2.728888
    15  H    7.251375   6.301735   4.958421   4.600077   3.395764
    16  H    6.752126   6.051423   4.753593   4.023980   2.728895
    17  H    5.112181   4.085423   2.802923   2.771961   2.092538
    18  H    5.112172   4.085412   2.802930   2.771983   2.092543
    19  H    4.642900   4.298203   3.212521   2.013073   1.011454
    20  H    4.604868   5.523705   5.555293   4.543547   5.063084
    21  H    2.890060   4.202989   4.899444   4.515207   5.623196
    22  H    1.079703   2.177700   3.412709   3.850213   5.199661
                   11         12         13         14         15
    11  C    0.000000
    12  C    1.525161   0.000000
    13  Br   5.335088   6.858013   0.000000
    14  H    2.177674   1.096321   7.349673   0.000000
    15  H    2.161012   1.094237   7.259906   1.770585   0.000000
    16  H    2.177677   1.096322   7.349669   1.777539   1.770586
    17  H    1.097420   2.171550   5.018170   2.532589   2.502166
    18  H    1.097420   2.171549   5.018159   3.088218   2.502167
    19  H    2.150250   2.557950   5.992632   2.586854   3.632865
    20  H    6.517192   7.127083   7.353447   6.965466   8.209013
    21  H    6.964459   8.046671   5.640400   8.093194   9.018684
    22  H    6.149688   7.553663   2.995405   7.823656   8.308837
                   16         17         18         19         20
    16  H    0.000000
    17  H    3.088221   0.000000
    18  H    2.532592   1.756970   0.000000
    19  H    2.586862   2.865188   2.865191   0.000000
    20  H    6.965582   6.981768   6.981879   4.577174   0.000000
    21  H    8.093147   7.193514   7.193458   5.635693   2.766768
    22  H    7.823648   6.126791   6.126776   5.701170   5.043820
                   21         22
    21  H    0.000000
    22  H    2.780376   0.000000
 Stoichiometry    C8H9BrN4
 Framework group  C1[X(C8H9BrN4)]
 Deg. of freedom    60
 Full point group                 C1      NOp   1
 Largest Abelian subgroup         C1      NOp   1
 Largest concise Abelian subgroup C1      NOp   1
                         Standard orientation:                         
 ---------------------------------------------------------------------
 Center     Atomic      Atomic             Coordinates (Angstroms)
 Number     Number       Type             X           Y           Z
 ---------------------------------------------------------------------
      1          7           0        2.455721    1.813925   -0.000020
      2          6           0        1.316595    1.128189   -0.000055
      3          7           0        0.205800    1.956628   -0.000094
      4          6           0        0.687926    3.243689    0.000067
      5          6           0        2.067306    3.120082    0.000102
      6          6           0       -1.080593    1.432348   -0.000052
      7          6           0       -1.166502    0.071281   -0.000023
      8          7           0       -0.137384   -0.796521    0.000017
      9          6           0        1.090216   -0.289219    0.000010
     10          7           0        2.168684   -1.101057   -0.000019
     11          6           0        2.083752   -2.555085    0.000007
     12          6           0        3.479275   -3.170415   -0.000003
     13         35           0       -2.920750   -0.706269    0.000018
     14          1           0        4.046674   -2.870257    0.888751
     15          1           0        3.408579   -4.262366    0.000023
     16          1           0        4.046648   -2.870297   -0.888788
     17          1           0        1.514142   -2.883886    0.878508
     18          1           0        1.514114   -2.883923   -0.878462
     19          1           0        3.071570   -0.645166   -0.000043
     20          1           0        2.792271    3.923479    0.000301
     21          1           0        0.031141    4.100024   -0.000329
     22          1           0       -1.916475    2.115766   -0.000080
 ---------------------------------------------------------------------
 Rotational constants (GHZ):      0.6897575      0.4152987      0.2600622
 General basis read from cards:  (5D, 7F)
 There are   228 symmetry adapted cartesian basis functions of A   symmetry.
 There are   214 symmetry adapted basis functions of A   symmetry.
   214 basis functions,   455 primitive gaussians,   228 cartesian basis functions
    60 alpha electrons       60 beta electrons
       nuclear repulsion energy      1041.8901165826 Hartrees.
 NAtoms=   22 NActive=   22 NUniq=   22 SFac= 1.00D+00 NAtFMM=   60 NAOKFM=F Big=F
 Integral buffers will be    131072 words long.
 Raffenetti 1 integral format.
 Two-electron integral symmetry is turned on.
 One-electron integrals computed using PRISM.
 NBasis=   214 RedAO= T EigKep=  1.10D-03  NBF=   214
 NBsUse=   214 1.00D-06 EigRej= -1.00D+00 NBFU=   214
 ExpMin= 1.43D-01 ExpMax= 5.74D+05 ExpMxC= 5.74D+03 IAcc=2 IRadAn=         4 AccDes= 0.00D+00
 Harris functional with IExCor=  205 and IRadAn=       4 diagonalized for initial guess.
 HarFok:  IExCor=  205 AccDes= 0.00D+00 IRadAn=         4 IDoV= 1 UseB2=F ITyADJ=14
 ICtDFT=  3500011 ScaDFX=  1.000000  1.000000  1.000000  1.000000
 FoFCou: FMM=F IPFlag=           0 FMFlag=      100000 FMFlg1=           0
         NFxFlg=           0 DoJE=T BraDBF=F KetDBF=T FulRan=T
         wScrn=  0.000000 ICntrl=     500 IOpCl=  0 I1Cent=   200000004 NGrid=           0
         NMat0=    1 NMatS0=      1 NMatT0=    0 NMatD0=    1 NMtDS0=    0 NMtDT0=    0
 Petite list used in FoFCou.
 Requested convergence on RMS density matrix=1.00D-08 within 128 cycles.
 Requested convergence on MAX density matrix=1.00D-06.
 Requested convergence on             energy=1.00D-06.
 No special actions if energy rises.
 Integral accuracy reduced to 1.0D-05 until final iterations.
 Initial convergence to 1.0D-05 achieved.  Increase integral accuracy.
 SCF Done:  E(RHF) =  -3095.55260054     A.U. after   16 cycles
            NFock= 16  Conv=0.45D-08     -V/T= 1.9991

 **********************************************************************

            Population analysis using the SCF density.

 **********************************************************************

 Orbital symmetries:
 BldTbl:  Degeneracy threshold= 1.00D-02
       Occupied  (A) (A) (A) (A) (A) (A) (A) (A) (A) (A) (A) (A)
                 (A) (A) (A) (A) (A) (A) (A) (A) (A) (A) (A) (A)
                 (A) (A) (A) (A) (A) (A) (A) (A) (A) (A) (A) (A)
                 (A) (A) (A) (A) (A) (A) (A) (A) (A) (A) (A) (A)
                 (A) (A) (A) (A) (A) (A) (A) (A) (A) (A) (A) (A)
       Virtual   (A) (A) (A) (A) (A) (A) (A) (A) (A) (A) (A) (A)
                 (A) (A) (A) (A) (A) (A) (A) (A) (A) (A) (A) (A)
                 (A) (A) (A) (A) (A) (A) (A) (A) (A) (A) (A) (A)
                 (A) (A) (A) (A) (A) (A) (A) (A) (A) (A) (A) (A)
                 (A) (A) (A) (A) (A) (A) (A) (A) (A) (A) (A) (A)
                 (A) (A) (A) (A) (A) (A) (A) (A) (A) (A) (A) (A)
                 (A) (A) (A) (A) (A) (A) (A) (A) (A) (A) (A) (A)
                 (A) (A) (A) (A) (A) (A) (A) (A) (A) (A) (A) (A)
                 (A) (A) (A) (A) (A) (A) (A) (A) (A) (A) (A) (A)
                 (A) (A) (A) (A) (A) (A) (A) (A) (A) (A) (A) (A)
                 (A) (A) (A) (A) (A) (A) (A) (A) (A) (A) (A) (A)
                 (A) (A) (A) (A) (A) (A) (A) (A) (A) (A) (A) (A)
                 (A) (A) (A) (A) (A) (A) (A) (A) (A) (A)
 The electronic state is 1-A.
 Alpha  occ. eigenvalues -- -489.84002 -64.38409 -58.55082 -58.54908 -58.54903
 Alpha  occ. eigenvalues --  -15.66917 -15.59070 -15.56958 -15.56823 -11.35043
 Alpha  occ. eigenvalues --  -11.33656 -11.31362 -11.28826 -11.27724 -11.26771
 Alpha  occ. eigenvalues --  -11.26718 -11.22919  -9.66187  -7.47766  -7.46863
 Alpha  occ. eigenvalues --   -7.46857  -3.22083  -3.21654  -3.21644  -3.20606
 Alpha  occ. eigenvalues --   -3.20605  -1.38246  -1.29899  -1.24105  -1.19692
 Alpha  occ. eigenvalues --   -1.07052  -1.04978  -1.01704  -0.97268  -0.89398
 Alpha  occ. eigenvalues --   -0.85868  -0.84641  -0.82015  -0.76626  -0.71423
 Alpha  occ. eigenvalues --   -0.67472  -0.66124  -0.65866  -0.63599  -0.62935
 Alpha  occ. eigenvalues --   -0.60807  -0.59450  -0.55334  -0.54752  -0.53063
 Alpha  occ. eigenvalues --   -0.52455  -0.51950  -0.48223  -0.45902  -0.43391
 Alpha  occ. eigenvalues --   -0.42993  -0.41024  -0.38791  -0.33019  -0.29190
 Alpha virt. eigenvalues --    0.10311   0.13837   0.17086   0.22151   0.23252
 Alpha virt. eigenvalues --    0.25251   0.26759   0.28103   0.29484   0.29908
 Alpha virt. eigenvalues --    0.29947   0.31115   0.32742   0.33571   0.36178
 Alpha virt. eigenvalues --    0.36203   0.39656   0.41659   0.41897   0.44455
 Alpha virt. eigenvalues --    0.47971   0.52658   0.53955   0.56504   0.58770
 Alpha virt. eigenvalues --    0.63190   0.65055   0.65454   0.65828   0.66466
 Alpha virt. eigenvalues --    0.67272   0.68128   0.68333   0.69385   0.71257
 Alpha virt. eigenvalues --    0.71791   0.73381   0.74037   0.75238   0.76261
 Alpha virt. eigenvalues --    0.76531   0.78733   0.80997   0.81519   0.82818
 Alpha virt. eigenvalues --    0.86481   0.88572   0.88768   0.90114   0.91644
 Alpha virt. eigenvalues --    0.93127   0.93999   0.96188   0.98202   0.98649
 Alpha virt. eigenvalues --    1.03695   1.04488   1.05415   1.05970   1.07718
 Alpha virt. eigenvalues --    1.08446   1.08888   1.11906   1.12922   1.13374
 Alpha virt. eigenvalues --    1.14029   1.14145   1.15723   1.17395   1.17824
 Alpha virt. eigenvalues --    1.20161   1.20920   1.21977   1.23299   1.24005
 Alpha virt. eigenvalues --    1.25713   1.29535   1.30561   1.38863   1.40477
 Alpha virt. eigenvalues --    1.41502   1.44054   1.45176   1.53758   1.55930
 Alpha virt. eigenvalues --    1.57339   1.60748   1.61867   1.62680   1.63940
 Alpha virt. eigenvalues --    1.64785   1.68527   1.70717   1.71983   1.73990
 Alpha virt. eigenvalues --    1.78490   1.82815   1.83064   1.87521   1.89999
 Alpha virt. eigenvalues --    1.96044   1.96595   2.04365   2.08773   2.11250
 Alpha virt. eigenvalues --    2.12709   2.17861   2.19183   2.21082   2.22452
 Alpha virt. eigenvalues --    2.25548   2.25888   2.26649   2.32853   2.34561
 Alpha virt. eigenvalues --    2.35853   2.39340   2.40467   2.43588   2.44492
 Alpha virt. eigenvalues --    2.50230   2.50304   2.51815   2.55482   2.56251
 Alpha virt. eigenvalues --    2.56572   2.61568   2.62279   2.63475   2.66976
 Alpha virt. eigenvalues --    2.69511   2.73377   2.74558   2.76280   2.84133
 Alpha virt. eigenvalues --    2.88641   2.92057   2.95028   2.97515   2.97867
 Alpha virt. eigenvalues --    2.97985   3.04734   3.05403   3.10531   3.11396
 Alpha virt. eigenvalues --    3.17037   3.20769   3.33076   3.35566   3.38397
 Alpha virt. eigenvalues --    3.47012   3.69273   3.83808   9.16976
          Condensed to atoms (all electrons):
               1          2          3          4          5          6
     1  N    6.850388   0.521629  -0.121209  -0.077354   0.467264   0.005427
     2  C    0.521629   4.566402   0.336423  -0.101781  -0.128480  -0.030433
     3  N   -0.121209   0.336423   7.101053   0.357453  -0.068926   0.227783
     4  C   -0.077354  -0.101781   0.357453   4.894053   0.626222  -0.032627
     5  C    0.467264  -0.128480  -0.068926   0.626222   4.761070   0.002457
     6  C    0.005427  -0.030433   0.227783  -0.032627   0.002457   4.966959
     7  C   -0.000109  -0.017174  -0.038198   0.001229  -0.000203   0.603996
     8  N    0.003289  -0.062132  -0.019409   0.000304  -0.000388  -0.071902
     9  C   -0.043268   0.449796  -0.032760   0.003127   0.002191  -0.019355
    10  N   -0.003353  -0.091223   0.003069  -0.000102   0.000105   0.000035
    11  C    0.000020   0.003226  -0.000058   0.000002   0.000003   0.000027
    12  C   -0.000016  -0.000040   0.000000   0.000000   0.000000   0.000000
    13  Br   0.000005   0.000200   0.002677  -0.000070   0.000000  -0.084324
    14  H   -0.000002  -0.000008   0.000000   0.000000   0.000000   0.000000
    15  H    0.000000   0.000001   0.000000   0.000000   0.000000   0.000000
    16  H   -0.000002  -0.000008   0.000000   0.000000   0.000000   0.000000
    17  H   -0.000005   0.000077   0.000002   0.000000   0.000000  -0.000003
    18  H   -0.000005   0.000077   0.000002   0.000000   0.000000  -0.000003
    19  H    0.010094  -0.004193   0.000330   0.000033  -0.000017  -0.000025
    20  H   -0.030792   0.005042   0.002137  -0.034946   0.392899  -0.000039
    21  H    0.002905   0.003645  -0.034703   0.379076  -0.016450   0.000781
    22  H   -0.000092   0.001337  -0.035223  -0.000494  -0.000068   0.383608
               7          8          9         10         11         12
     1  N   -0.000109   0.003289  -0.043268  -0.003353   0.000020  -0.000016
     2  C   -0.017174  -0.062132   0.449796  -0.091223   0.003226  -0.000040
     3  N   -0.038198  -0.019409  -0.032760   0.003069  -0.000058   0.000000
     4  C    0.001229   0.000304   0.003127  -0.000102   0.000002   0.000000
     5  C   -0.000203  -0.000388   0.002191   0.000105   0.000003   0.000000
     6  C    0.603996  -0.071902  -0.019355   0.000035   0.000027   0.000000
     7  C    4.561727   0.407843  -0.056143   0.003219  -0.000218   0.000005
     8  N    0.407843   7.001376   0.543080  -0.084432  -0.002981   0.000351
     9  C   -0.056143   0.543080   4.222691   0.321003  -0.034792   0.002990
    10  N    0.003219  -0.084432   0.321003   7.346682   0.197366  -0.050242
    11  C   -0.000218  -0.002981  -0.034792   0.197366   4.870410   0.337225
    12  C    0.000005   0.000351   0.002990  -0.050242   0.337225   5.155212
    13  Br   0.314822  -0.068483   0.002204  -0.000035  -0.000045   0.000000
    14  H    0.000000  -0.000012  -0.000179  -0.001293  -0.036522   0.386435
    15  H    0.000000   0.000003  -0.000016   0.003494  -0.035570   0.394246
    16  H    0.000000  -0.000012  -0.000179  -0.001293  -0.036521   0.386435
    17  H   -0.000139   0.002232  -0.001603  -0.049952   0.411389  -0.037764
    18  H   -0.000138   0.002233  -0.001603  -0.049951   0.411387  -0.037764
    19  H   -0.000100   0.001971  -0.031053   0.327870  -0.019976  -0.004661
    20  H    0.000002   0.000001  -0.000021  -0.000001   0.000000   0.000000
    21  H   -0.000032   0.000006  -0.000063   0.000000   0.000000   0.000000
    22  H   -0.019861   0.002355   0.000104   0.000009   0.000000   0.000000
              13         14         15         16         17         18
     1  N    0.000005  -0.000002   0.000000  -0.000002  -0.000005  -0.000005
     2  C    0.000200  -0.000008   0.000001  -0.000008   0.000077   0.000077
     3  N    0.002677   0.000000   0.000000   0.000000   0.000002   0.000002
     4  C   -0.000070   0.000000   0.000000   0.000000   0.000000   0.000000
     5  C    0.000000   0.000000   0.000000   0.000000   0.000000   0.000000
     6  C   -0.084324   0.000000   0.000000   0.000000  -0.000003  -0.000003
     7  C    0.314822   0.000000   0.000000   0.000000  -0.000139  -0.000138
     8  N   -0.068483  -0.000012   0.000003  -0.000012   0.002232   0.002233
     9  C    0.002204  -0.000179  -0.000016  -0.000179  -0.001603  -0.001603
    10  N   -0.000035  -0.001293   0.003494  -0.001293  -0.049952  -0.049951
    11  C   -0.000045  -0.036522  -0.035570  -0.036521   0.411389   0.411387
    12  C    0.000000   0.386435   0.394246   0.386435  -0.037764  -0.037764
    13  Br  34.956757   0.000000   0.000000   0.000000   0.000007   0.000007
    14  H    0.000000   0.529023  -0.024289  -0.030344  -0.004038   0.003907
    15  H    0.000000  -0.024289   0.504115  -0.024289  -0.001539  -0.001539
    16  H    0.000000  -0.030344  -0.024289   0.529023   0.003907  -0.004038
    17  H    0.000007  -0.004038  -0.001539   0.003907   0.524455  -0.039729
    18  H    0.000007   0.003907  -0.001539  -0.004038  -0.039729   0.524455
    19  H    0.000003   0.001488   0.000019   0.001488   0.001879   0.001879
    20  H    0.000000   0.000000   0.000000   0.000000   0.000000   0.000000
    21  H    0.000001   0.000000   0.000000   0.000000   0.000000   0.000000
    22  H    0.000256   0.000000   0.000000   0.000000   0.000000   0.000000
              19         20         21         22
     1  N    0.010094  -0.030792   0.002905  -0.000092
     2  C   -0.004193   0.005042   0.003645   0.001337
     3  N    0.000330   0.002137  -0.034703  -0.035223
     4  C    0.000033  -0.034946   0.379076  -0.000494
     5  C   -0.000017   0.392899  -0.016450  -0.000068
     6  C   -0.000025  -0.000039   0.000781   0.383608
     7  C   -0.000100   0.000002  -0.000032  -0.019861
     8  N    0.001971   0.000001   0.000006   0.002355
     9  C   -0.031053  -0.000021  -0.000063   0.000104
    10  N    0.327870  -0.000001   0.000000   0.000009
    11  C   -0.019976   0.000000   0.000000   0.000000
    12  C   -0.004661   0.000000   0.000000   0.000000
    13  Br   0.000003   0.000000   0.000001   0.000256
    14  H    0.001488   0.000000   0.000000   0.000000
    15  H    0.000019   0.000000   0.000000   0.000000
    16  H    0.001488   0.000000   0.000000   0.000000
    17  H    0.001879   0.000000   0.000000   0.000000
    18  H    0.001879   0.000000   0.000000   0.000000
    19  H    0.287832  -0.000010   0.000000   0.000000
    20  H   -0.000010   0.444950   0.001097  -0.000001
    21  H    0.000000   0.001097   0.423617   0.000996
    22  H    0.000000  -0.000001   0.000996   0.414200
 Mulliken charges:
               1
     1  N   -0.584810
     2  C    0.547619
     3  N   -0.680442
     4  C   -0.014124
     5  C   -0.037681
     6  C    0.047640
     7  C    0.239472
     8  N   -0.655293
     9  C    0.673851
    10  N   -0.870977
    11  C   -0.064370
    12  C   -0.532413
    13  Br  -0.123982
    14  H    0.175834
    15  H    0.185362
    16  H    0.175834
    17  H    0.190824
    18  H    0.190824
    19  H    0.425149
    20  H    0.219683
    21  H    0.239127
    22  H    0.252874
 Sum of Mulliken charges =   0.00000
 Mulliken charges with hydrogens summed into heavy atoms:
               1
     1  N   -0.584810
     2  C    0.547619
     3  N   -0.680442
     4  C    0.225003
     5  C    0.182002
     6  C    0.300514
     7  C    0.239472
     8  N   -0.655293
     9  C    0.673851
    10  N   -0.445828
    11  C    0.317279
    12  C    0.004617
    13  Br  -0.123982
 DipInt: DoE/N= T F RetVal/Mat= T F Init=T NMatP=  1 IDeriv=0 Min/MaxMlt=  0  4
 Entering OneElI...
 OneElI was handed   235793971 working-precision words.
 Multipole integrals L=0 to 4 MinM= 0 MaxM= 0.
 Requested accuracy = 0.1000D-12
 ShPair: Thresh= 1.00D-13 NBox=     0 BxSize= 0.00D+00 RnKept= 1.70D+01
         NSMCal=                 3081 NSMKep=                2631
 PrsmSu:  NPrtUS=   1 ThrOK=F IAlg=1 NPAlg=1 LenDen=           0.
 Prism:   IPart=     0 DynPar=F LinDyn=F Incr=          26.
 PRISM was handed   235550708 working-precision words and  2631 shell-pairs
 IPart=  0 NShTot=        2631 NBatch=         124 AvBLen=        21.2
 PrSmSu:  NxtVal=             27.
 Electronic moments (au):
       -120.00000000          0.54479857          0.60123374         -0.00008389
      -2222.04733303      -1519.77622304        -79.44644293         -7.01599374
          0.00067499         -0.00067229        611.57200748      -1041.80754448
         -0.00001376      -4554.29476108       3219.57519764         -0.04588694
       -100.08091725         40.34983654         -0.04028939         -0.05724577
     -69672.57982581     -49019.68925908       -316.27149143       7195.25170606
          0.11032253       7930.45813689         -0.29273559         -0.00318149
         -0.00704095     -29841.92816463      -1568.06976047      -1345.05567805
         -0.13714052         -0.29581205        352.90613380
 Electronic spatial extent (au):  <R**2>=           3821.2700
 DipInt: DoE/N= F T RetVal/Mat= T F Init=T NMatP=  1 IDeriv=0 Min/MaxMlt=  0  4
 Nuclear    moments (au):
        120.00000000          0.00000000          0.00000000          0.00000000
       2156.46082618       1464.45658634         11.15348779          0.00000000
         -0.00011032          0.00005791       -727.77102298       1057.13239096
          0.00011804       4533.32909707      -3251.90297862          0.04849453
         58.91309770        -60.63885921          0.03540543          0.06182882
      63133.99495664      44300.61938879         31.10427693      -7120.98200243
         -0.10492262      -7786.50191587          0.24658302         -0.00204081
          0.00001935      28008.33088228        375.03670873        329.68109028
          0.15586619          0.32828429       -319.95293904
 Total      moments (au):
          0.00000000          0.54479857          0.60123374         -0.00008389
        -65.58650685        -55.31963669        -68.29295515         -7.01599374
          0.00056467         -0.00061437       -116.19901549         15.32484648
          0.00010428        -20.96566401        -32.32778098          0.00260759
        -41.16781955        -20.28902266         -0.00488396          0.00458304
      -6538.58486916      -4719.06987029       -285.16721450         74.26970364
          0.00539992        143.95622102         -0.04615257         -0.00522230
         -0.00702160      -1833.59728236      -1193.03305174      -1015.37458777
          0.01872567          0.03247224         32.95319477
 Traceless Quadrup. (au):
         -2.52014062          7.74672954         -5.22658891         -7.01599374
          0.00056467         -0.00061437
 Charge=              0.0000 electrons
 Dipole moment (field-independent basis, Debye):
    X=              1.3847    Y=              1.5282    Z=             -0.0002  Tot=              2.0622
 Quadrupole moment (field-independent basis, Debye-Ang):
   XX=            -88.2161   YY=            -74.4068   ZZ=            -91.8564
   XY=             -9.4368   XZ=              0.0008   YZ=             -0.0008
 Traceless Quadrupole moment (field-independent basis, Debye-Ang):
   XX=             -3.3897   YY=             10.4196   ZZ=             -7.0299
   XY=             -9.4368   XZ=              0.0008   YZ=             -0.0008
 Octapole moment (field-independent basis, Debye-Ang**2):
  XXX=            -82.7060  YYY=             10.9076  ZZZ=              0.0001  XYY=            -14.9226
  XXY=            -23.0097  XXZ=              0.0019  XZZ=            -29.3017  YZZ=            -14.4409
  YYZ=             -0.0035  XYZ=              0.0033
 Hexadecapole moment (field-independent basis, Debye-Ang**3):
 XXXX=          -2462.7444 YYYY=          -1777.4279 ZZZZ=           -107.4076 XXXY=             27.9735
 XXXZ=              0.0020 YYYX=             54.2208 YYYZ=             -0.0174 ZZZX=             -0.0020
 ZZZY=             -0.0026 XXYY=           -690.6206 XXZZ=           -449.3534 YYZZ=           -382.4387
 XXYZ=              0.0071 YYXZ=              0.0122 ZZXY=             12.4118
 N-N= 1.041890116583D+03 E-N=-9.462778093130D+03  KE= 3.098364861242D+03
 Entering OneElI...
 OneElI was handed   235825501 working-precision words.
 Calculate electrostatic properties
    NBasis =   214  MinDer = 0  MaxDer = 0
    NGrid  =    22  NMatD  =   1
 Requested accuracy = 0.1000D-12
 ShPair: Thresh= 1.00D-13 NBox=     0 BxSize= 0.00D+00 RnKept= 1.70D+01
         NSMCal=                 3081 NSMKep=                2341
 PrsmSu:  NPrtUS=   1 ThrOK=F IAlg=1 NPAlg=1 LenDen=           0.
 Prism:   IPart=     0 DynPar=F LinDyn=F Incr=         512.
 PRISM was handed   235607394 working-precision words and  2341 shell-pairs
 IPart=  0 NShTot=       51502 NBatch=        2348 AvBLen=        21.9
 PrSmSu:  NxtVal=            513.
 --------------------------------------------------------
       Center         ----      EFG at Nuclei      ----
                      3XX-RR        3YY-RR        3ZZ-RR
 --------------------------------------------------------
     1   Atom        0.682068     -0.240437     -0.441632
     2   Atom       -0.043462      0.114233     -0.070771
     3   Atom       -0.163550     -0.132621      0.296171
     4   Atom        0.173471     -0.146076     -0.027395
     5   Atom        0.166994      0.061237     -0.228231
     6   Atom       -0.152158      0.133430      0.018728
     7   Atom       -0.134743      0.230186     -0.095443
     8   Atom       -0.582151      0.810937     -0.228786
     9   Atom        0.210806      0.216185     -0.426991
    10   Atom       -0.505682     -0.524023      1.029704
    11   Atom        0.135816     -0.315015      0.179199
    12   Atom       -0.036476      0.015308      0.021168
    13   Atom       -5.143652      1.749023      3.394629
    14   Atom        0.028029      0.113916     -0.141945
    15   Atom        0.142315     -0.297019      0.154704
    16   Atom        0.028040      0.113925     -0.141965
    17   Atom        0.037070      0.092073     -0.129143
    18   Atom        0.037058      0.092065     -0.129123
    19   Atom       -0.287629      0.050285      0.237344
    20   Atom       -0.058289     -0.110584      0.168874
    21   Atom       -0.029094     -0.150714      0.179808
    22   Atom       -0.134190     -0.046508      0.180698
 --------------------------------------------------------
                        XY            XZ            YZ
 --------------------------------------------------------
     1   Atom       -0.457932      0.000056     -0.000036
     2   Atom        0.160941      0.000022      0.000002
     3   Atom       -0.019888      0.000007     -0.000111
     4   Atom       -0.157540      0.000006     -0.000071
     5   Atom        0.069552      0.000104      0.000009
     6   Atom       -0.151317      0.000021      0.000005
     7   Atom       -0.166353      0.000010     -0.000013
     8   Atom        0.224790     -0.000047     -0.000040
     9   Atom        0.047522     -0.000012     -0.000018
    10   Atom        0.063263      0.000070     -0.000003
    11   Atom       -0.004761      0.000001      0.000010
    12   Atom        0.016436      0.000001      0.000000
    13   Atom       -3.937105      0.000225      0.000090
    14   Atom       -0.059613     -0.185478     -0.100725
    15   Atom       -0.028364      0.000001      0.000011
    16   Atom       -0.059602      0.185475      0.100715
    17   Atom       -0.064424      0.179102      0.103380
    18   Atom       -0.064435     -0.179105     -0.103387
    19   Atom       -0.209204      0.000014      0.000006
    20   Atom       -0.229185     -0.000054     -0.000063
    21   Atom        0.222681     -0.000108      0.000128
    22   Atom        0.220660     -0.000008      0.000009
 --------------------------------------------------------


 ---------------------------------------------------------------------------------
              Nuclear Quadrupole Coupling Constant in Principal Axis System
 ---------------------------------------------------------------------------------

       Atom             a.u.   MegaHertz   Gauss  10(-4) cm-1        Axes

              Baa    -0.4416     2.121     0.757     0.707  0.0003  0.0009  1.0000
     1 N(14)  Bbb    -0.4292     2.061     0.735     0.687  0.3810  0.9246 -0.0010
              Bcc     0.8708    -4.182    -1.492    -1.395  0.9246 -0.3810  0.0001
 
              Baa    -0.1733     0.832     0.297     0.278  0.8983  0.4394  0.0001
     3 N(14)  Bbb    -0.1229     0.590     0.211     0.197 -0.4394  0.8983  0.0002
              Bcc     0.2962    -1.422    -0.508    -0.474  0.0000 -0.0003  1.0000
 
              Baa    -0.6175     2.966     1.058     0.989  0.9878 -0.1555  0.0001
     8 N(14)  Bbb    -0.2288     1.099     0.392     0.367 -0.0001  0.0001  1.0000
              Bcc     0.8463    -4.065    -1.450    -1.356  0.1555  0.9878  0.0000
 
              Baa    -0.5788     2.780     0.992     0.927 -0.6544  0.7561  0.0000
    10 N(14)  Bbb    -0.4509     2.166     0.773     0.722  0.7561  0.6544  0.0000
              Bcc     1.0297    -4.945    -1.765    -1.650  0.0000  0.0000  1.0000
 
              Baa    -6.9297   509.639   181.852   169.997  0.9107  0.4131  0.0000
    13 Br(79) Bbb     3.3946  -249.655   -89.083   -83.276  0.0000  0.0001  1.0000
              Bcc     3.5351  -259.984   -92.769   -86.721 -0.4131  0.9107 -0.0001
 

 ---------------------------------------------------------------------------------

 No NMR shielding tensors so no spin-rotation constants.
 Leave Link  601 at Thu Jan 16 22:39:23 2014, MaxMem=   235929600 cpu:         0.3
 FitSet:  NAtFit=    22 NAtPot=    22 NAtFrz=     0 MDM=    26 TotChg=   0.00000
 Merz-Kollman atomic radii used.
 Atom Element Radius
    1     7    1.50
    2     6    1.50
    3     7    1.50
    4     6    1.50
    5     6    1.50
    6     6    1.50
    7     6    1.50
    8     7    1.50
    9     6    1.50
   10     7    1.50
   11     6    1.50
   12     6    1.50
   13    35    2.30
   14     1    1.20
   15     1    1.20
   16     1    1.20
   17     1    1.20
   18     1    1.20
   19     1    1.20
   20     1    1.20
   21     1    1.20
   22     1    1.20
 Generate VDW surfaces: Layer= 5 Dens= 2 Start= 1.400 Inc= 0.179

 **********************************************************************

            Electrostatic Properties Using The SCF Density

 **********************************************************************

       Atomic Center    1 is at   2.455721  1.813925 -0.000020
       Atomic Center    2 is at   1.316595  1.128189 -0.000055
       Atomic Center    3 is at   0.205800  1.956628 -0.000094
       Atomic Center    4 is at   0.687926  3.243689  0.000067
       Atomic Center    5 is at   2.067306  3.120082  0.000102
       Atomic Center    6 is at  -1.080593  1.432348 -0.000052
       Atomic Center    7 is at  -1.166502  0.071281 -0.000023
       Atomic Center    8 is at  -0.137384 -0.796521  0.000017
       Atomic Center    9 is at   1.090216 -0.289219  0.000010
       Atomic Center   10 is at   2.168684 -1.101057 -0.000019
       Atomic Center   11 is at   2.083752 -2.555085  0.000007
       Atomic Center   12 is at   3.479275 -3.170415 -0.000003
       Atomic Center   13 is at  -2.920750 -0.706269  0.000018
       Atomic Center   14 is at   4.046674 -2.870257  0.888751
       Atomic Center   15 is at   3.408579 -4.262366  0.000023
       Atomic Center   16 is at   4.046648 -2.870297 -0.888788
       Atomic Center   17 is at   1.514142 -2.883886  0.878508
       Atomic Center   18 is at   1.514114 -2.883923 -0.878462
       Atomic Center   19 is at   3.071570 -0.645166 -0.000043
       Atomic Center   20 is at   2.792271  3.923479  0.000301
       Atomic Center   21 is at   0.031141  4.100024 -0.000329
       Atomic Center   22 is at  -1.916475  2.115766 -0.000080
      ESP Fit Center   23 is at   2.455721  1.813925  2.099980
      ESP Fit Center   24 is at   3.173963  1.813925  1.973334
      ESP Fit Center   25 is at   2.814842  2.435941  1.973334
      ESP Fit Center   26 is at   1.737479  1.813925  1.973334
      ESP Fit Center   27 is at   2.096600  1.191909  1.973334
      ESP Fit Center   28 is at   2.814842  1.191909  1.973334
      ESP Fit Center   29 is at   3.805575  1.813925  1.608673
      ESP Fit Center   30 is at   3.591290  2.543711  1.608673
      ESP Fit Center   31 is at   3.016470  0.586055  1.608673
      ESP Fit Center   32 is at   3.591290  1.084139  1.608673
      ESP Fit Center   33 is at   4.274374  1.813925  1.049980
      ESP Fit Center   34 is at   4.117143  2.553638  1.049980
      ESP Fit Center   35 is at   4.117143  1.074212  1.049980
      ESP Fit Center   36 is at   4.523817  1.813925  0.364641
      ESP Fit Center   37 is at   4.384163  2.561008  0.364641
      ESP Fit Center   38 is at   4.384163  1.066843  0.364641
      ESP Fit Center   39 is at   4.523817  1.813925 -0.364681
      ESP Fit Center   40 is at   4.384163  2.561008 -0.364681
      ESP Fit Center   41 is at   4.384163  1.066843 -0.364681
      ESP Fit Center   42 is at   4.274374  1.813925 -1.050020
      ESP Fit Center   43 is at   4.117143  2.553638 -1.050020
      ESP Fit Center   44 is at   4.117143  1.074212 -1.050020
      ESP Fit Center   45 is at   3.805575  1.813925 -1.608713
      ESP Fit Center   46 is at   3.591290  2.543711 -1.608713
      ESP Fit Center   47 is at   3.016470  0.586055 -1.608713
      ESP Fit Center   48 is at   3.591290  1.084139 -1.608713
      ESP Fit Center   49 is at   3.173963  1.813925 -1.973375
      ESP Fit Center   50 is at   2.814842  2.435941 -1.973375
      ESP Fit Center   51 is at   1.737479  1.813925 -1.973375
      ESP Fit Center   52 is at   2.096600  1.191909 -1.973375
      ESP Fit Center   53 is at   2.814842  1.191909 -1.973375
      ESP Fit Center   54 is at   2.455721  1.813925 -2.100020
      ESP Fit Center   55 is at   1.316595  1.128189  2.099945
      ESP Fit Center   56 is at   2.034837  1.128189  1.973299
      ESP Fit Center   57 is at   1.675716  1.750205  1.973299
      ESP Fit Center   58 is at   0.957474  1.750205  1.973299
      ESP Fit Center   59 is at   0.598353  1.128189  1.973299
      ESP Fit Center   60 is at   0.957474  0.506173  1.973299
      ESP Fit Center   61 is at   1.675716  0.506173  1.973299
      ESP Fit Center   62 is at   2.452164  0.398403  1.608638
      ESP Fit Center   63 is at   2.452164  0.398403 -1.608748
      ESP Fit Center   64 is at   2.034837  1.128189 -1.973410
      ESP Fit Center   65 is at   1.675716  1.750205 -1.973410
      ESP Fit Center   66 is at   0.957474  1.750205 -1.973410
      ESP Fit Center   67 is at   0.598353  1.128189 -1.973410
      ESP Fit Center   68 is at   0.957474  0.506173 -1.973410
      ESP Fit Center   69 is at   1.675716  0.506173 -1.973410
      ESP Fit Center   70 is at   1.316595  1.128189 -2.100055
      ESP Fit Center   71 is at   0.205800  1.956628  2.099906
      ESP Fit Center   72 is at   0.924042  1.956628  1.973260
      ESP Fit Center   73 is at  -0.153321  2.578644  1.973260
      ESP Fit Center   74 is at  -0.512442  1.956628  1.973260
      ESP Fit Center   75 is at  -0.153321  1.334612  1.973260
      ESP Fit Center   76 is at   0.564921  1.334612  1.973260
      ESP Fit Center   77 is at  -0.678167  2.976780  1.608599
      ESP Fit Center   78 is at  -0.678167  2.976780 -1.608787
      ESP Fit Center   79 is at   0.924042  1.956628 -1.973449
      ESP Fit Center   80 is at  -0.153321  2.578644 -1.973449
      ESP Fit Center   81 is at  -0.512442  1.956628 -1.973449
      ESP Fit Center   82 is at  -0.153321  1.334612 -1.973449
      ESP Fit Center   83 is at   0.564921  1.334612 -1.973449
      ESP Fit Center   84 is at   0.205800  1.956628 -2.100094
      ESP Fit Center   85 is at   0.687926  3.243689  2.100067
      ESP Fit Center   86 is at   1.047047  3.865705  1.973421
      ESP Fit Center   87 is at   0.328805  3.865705  1.973421
      ESP Fit Center   88 is at  -0.030317  3.243689  1.973421
      ESP Fit Center   89 is at   1.047047  2.621673  1.973421
      ESP Fit Center   90 is at   1.248675  4.471559  1.608760
      ESP Fit Center   91 is at   0.495822  4.579803  1.608760
      ESP Fit Center   92 is at  -0.607250  3.623987  1.608760
      ESP Fit Center   93 is at   1.249921  4.973331  1.050067
      ESP Fit Center   94 is at   1.249921  4.973331 -1.049933
      ESP Fit Center   95 is at   1.248675  4.471559 -1.608626
      ESP Fit Center   96 is at   0.495822  4.579803 -1.608626
      ESP Fit Center   97 is at  -0.607250  3.623987 -1.608626
      ESP Fit Center   98 is at   1.047047  3.865705 -1.973288
      ESP Fit Center   99 is at   0.328805  3.865705 -1.973288
      ESP Fit Center  100 is at  -0.030317  3.243689 -1.973288
      ESP Fit Center  101 is at   1.047047  2.621673 -1.973288
      ESP Fit Center  102 is at   0.687926  3.243689 -2.099933
      ESP Fit Center  103 is at   2.067306  3.120082  2.100102
      ESP Fit Center  104 is at   2.785548  3.120082  1.973456
      ESP Fit Center  105 is at   2.426427  3.742098  1.973456
      ESP Fit Center  106 is at   1.708185  3.742098  1.973456
      ESP Fit Center  107 is at   1.708185  2.498066  1.973456
      ESP Fit Center  108 is at   3.417160  3.120082  1.608795
      ESP Fit Center  109 is at   1.875202  4.456196  1.608795
      ESP Fit Center  110 is at   3.885959  3.120082  1.050102
      ESP Fit Center  111 is at   1.877205  4.928773  1.050102
      ESP Fit Center  112 is at   3.885959  3.120082 -1.049898
      ESP Fit Center  113 is at   1.877205  4.928773 -1.049898
      ESP Fit Center  114 is at   3.417160  3.120082 -1.608591
      ESP Fit Center  115 is at   1.875202  4.456196 -1.608591
      ESP Fit Center  116 is at   2.785548  3.120082 -1.973253
      ESP Fit Center  117 is at   2.426427  3.742098 -1.973253
      ESP Fit Center  118 is at   1.708185  3.742098 -1.973253
      ESP Fit Center  119 is at   1.708185  2.498066 -1.973253
      ESP Fit Center  120 is at   2.067306  3.120082 -2.099898
      ESP Fit Center  121 is at  -1.080593  1.432348  2.099948
      ESP Fit Center  122 is at  -0.362351  1.432348  1.973302
      ESP Fit Center  123 is at  -0.721472  2.054364  1.973302
      ESP Fit Center  124 is at  -1.439714  2.054364  1.973302
      ESP Fit Center  125 is at  -0.721472  0.810332  1.973302
      ESP Fit Center  126 is at  -1.272697  2.768462  1.608641
      ESP Fit Center  127 is at  -1.272697  2.768462 -1.608745
      ESP Fit Center  128 is at  -0.362351  1.432348 -1.973407
      ESP Fit Center  129 is at  -0.721472  2.054364 -1.973407
      ESP Fit Center  130 is at  -1.439714  2.054364 -1.973407
      ESP Fit Center  131 is at  -0.721472  0.810332 -1.973407
      ESP Fit Center  132 is at  -1.080593  1.432348 -2.100052
      ESP Fit Center  133 is at  -0.448260  0.071281  1.973331
      ESP Fit Center  134 is at  -0.448260  0.071281 -1.973378
      ESP Fit Center  135 is at  -0.137384 -0.796521  2.100017
      ESP Fit Center  136 is at   0.580858 -0.796521  1.973371
      ESP Fit Center  137 is at   0.221737 -0.174505  1.973371
      ESP Fit Center  138 is at   0.221737 -1.418537  1.973371
      ESP Fit Center  139 is at  -0.329488 -2.132635  1.608710
      ESP Fit Center  140 is at  -0.327485 -2.605212  1.050017
      ESP Fit Center  141 is at  -0.327485 -2.605212 -1.049983
      ESP Fit Center  142 is at  -0.329488 -2.132635 -1.608676
      ESP Fit Center  143 is at   0.580858 -0.796521 -1.973338
      ESP Fit Center  144 is at   0.221737 -0.174505 -1.973338
      ESP Fit Center  145 is at   0.221737 -1.418537 -1.973338
      ESP Fit Center  146 is at  -0.137384 -0.796521 -2.099983
      ESP Fit Center  147 is at   1.090216 -0.289219  2.100010
      ESP Fit Center  148 is at   1.808458 -0.289219  1.973364
      ESP Fit Center  149 is at   1.449337  0.332797  1.973364
      ESP Fit Center  150 is at   0.731095  0.332797  1.973364
      ESP Fit Center  151 is at   0.371974 -0.289219  1.973364
      ESP Fit Center  152 is at   0.731095 -0.911235  1.973364
      ESP Fit Center  153 is at   1.449337 -0.911235  1.973364
      ESP Fit Center  154 is at   1.808458 -0.289219 -1.973345
      ESP Fit Center  155 is at   1.449337  0.332797 -1.973345
      ESP Fit Center  156 is at   0.731095  0.332797 -1.973345
      ESP Fit Center  157 is at   0.371974 -0.289219 -1.973345
      ESP Fit Center  158 is at   0.731095 -0.911235 -1.973345
      ESP Fit Center  159 is at   1.449337 -0.911235 -1.973345
      ESP Fit Center  160 is at   1.090216 -0.289219 -2.099990
      ESP Fit Center  161 is at   2.168684 -1.101057  2.099981
      ESP Fit Center  162 is at   2.886926 -1.101057  1.973335
      ESP Fit Center  163 is at   2.527805 -0.479041  1.973335
      ESP Fit Center  164 is at   1.809563 -0.479041  1.973335
      ESP Fit Center  165 is at   1.450442 -1.101057  1.973335
      ESP Fit Center  166 is at   2.527805 -1.723073  1.973335
      ESP Fit Center  167 is at   3.518538 -1.101057  1.608674
      ESP Fit Center  168 is at   2.729434  0.126813  1.608674
      ESP Fit Center  169 is at   3.518538 -1.101057 -1.608712
      ESP Fit Center  170 is at   2.729434  0.126813 -1.608712
      ESP Fit Center  171 is at   2.886926 -1.101057 -1.973374
      ESP Fit Center  172 is at   2.527805 -0.479041 -1.973374
      ESP Fit Center  173 is at   1.809563 -0.479041 -1.973374
      ESP Fit Center  174 is at   1.450442 -1.101057 -1.973374
      ESP Fit Center  175 is at   2.527805 -1.723073 -1.973374
      ESP Fit Center  176 is at   2.168684 -1.101057 -2.100019
      ESP Fit Center  177 is at   2.801994 -2.555085  1.973361
      ESP Fit Center  178 is at   2.442873 -1.933069  1.973361
      ESP Fit Center  179 is at   1.517791 -4.544233  0.364668
      ESP Fit Center  180 is at   1.517791 -4.544233 -0.364654
      ESP Fit Center  181 is at   2.801994 -2.555085 -1.973348
      ESP Fit Center  182 is at   2.442873 -1.933069 -1.973348
      ESP Fit Center  183 is at   2.761033 -3.170415  1.973351
      ESP Fit Center  184 is at   3.120154 -3.792431  1.973351
      ESP Fit Center  185 is at   2.595309 -4.190566  1.608690
      ESP Fit Center  186 is at   4.040025 -4.398285  1.608690
      ESP Fit Center  187 is at   4.696192 -4.521938  1.049997
      ESP Fit Center  188 is at   5.407717 -3.917497  0.364658
      ESP Fit Center  189 is at   5.407717 -3.917497 -0.364664
      ESP Fit Center  190 is at   4.696192 -4.521938 -1.050003
      ESP Fit Center  191 is at   2.595309 -4.190566 -1.608696
      ESP Fit Center  192 is at   4.040025 -4.398285 -1.608696
      ESP Fit Center  193 is at   2.761033 -3.170415 -1.973358
      ESP Fit Center  194 is at   3.120154 -3.792431 -1.973358
      ESP Fit Center  195 is at  -2.920750 -0.706269  3.220018
      ESP Fit Center  196 is at  -2.204233 -0.706269  3.139286
      ESP Fit Center  197 is at  -2.562491 -0.085747  3.139286
      ESP Fit Center  198 is at  -3.279009 -0.085747  3.139286
      ESP Fit Center  199 is at  -3.637267 -0.706269  3.139286
      ESP Fit Center  200 is at  -3.279009 -1.326791  3.139286
      ESP Fit Center  201 is at  -2.562491 -1.326791  3.139286
      ESP Fit Center  202 is at  -1.523644 -0.706269  2.901138
      ESP Fit Center  203 is at  -1.710821 -0.007716  2.901138
      ESP Fit Center  204 is at  -2.222197  0.503660  2.901138
      ESP Fit Center  205 is at  -2.920750  0.690836  2.901138
      ESP Fit Center  206 is at  -3.619303  0.503660  2.901138
      ESP Fit Center  207 is at  -4.130679 -0.007716  2.901138
      ESP Fit Center  208 is at  -4.317856 -0.706269  2.901138
      ESP Fit Center  209 is at  -4.130679 -1.404822  2.901138
      ESP Fit Center  210 is at  -3.619303 -1.916198  2.901138
      ESP Fit Center  211 is at  -2.920750 -2.103375  2.901138
      ESP Fit Center  212 is at  -2.222197 -1.916198  2.901138
      ESP Fit Center  213 is at  -1.710821 -1.404822  2.901138
      ESP Fit Center  214 is at  -0.913113 -0.706269  2.517515
      ESP Fit Center  215 is at  -1.048684  0.018973  2.517515
      ESP Fit Center  216 is at  -1.437088  0.646267  2.517515
      ESP Fit Center  217 is at  -2.025869  1.090894  2.517515
      ESP Fit Center  218 is at  -2.735509  1.292804  2.517515
      ESP Fit Center  219 is at  -3.470166  1.224728  2.517515
      ESP Fit Center  220 is at  -4.130622  0.895860  2.517515
      ESP Fit Center  221 is at  -4.627678  0.350616  2.517515
      ESP Fit Center  222 is at  -4.894203 -0.337367  2.517515
      ESP Fit Center  223 is at  -4.894203 -1.075172  2.517515
      ESP Fit Center  224 is at  -4.627678 -1.763154  2.517515
      ESP Fit Center  225 is at  -4.130622 -2.308398  2.517515
      ESP Fit Center  226 is at  -3.470166 -2.637266  2.517515
      ESP Fit Center  227 is at  -2.735509 -2.705342  2.517515
      ESP Fit Center  228 is at  -2.025869 -2.503432  2.517515
      ESP Fit Center  229 is at  -1.437088 -2.058806  2.517515
      ESP Fit Center  230 is at  -1.048684 -1.431511  2.517515
      ESP Fit Center  231 is at  -0.515098  0.035776  2.007655
      ESP Fit Center  232 is at  -0.840696  0.711888  2.007655
      ESP Fit Center  233 is at  -2.001005  1.637203  2.007655
      ESP Fit Center  234 is at  -2.732617  1.804189  2.007655
      ESP Fit Center  235 is at  -3.480946  1.748109  2.007655
      ESP Fit Center  236 is at  -4.179499  1.473948  2.007655
      ESP Fit Center  237 is at  -4.766206  1.006064  2.007655
      ESP Fit Center  238 is at  -5.188937  0.386032  2.007655
      ESP Fit Center  239 is at  -5.410129 -0.331056  2.007655
      ESP Fit Center  240 is at  -5.410129 -1.081483  2.007655
      ESP Fit Center  241 is at  -5.188937 -1.798570  2.007655
      ESP Fit Center  242 is at  -4.766206 -2.418602  2.007655
      ESP Fit Center  243 is at  -4.179499 -2.886486  2.007655
      ESP Fit Center  244 is at  -3.480946 -3.160648  2.007655
      ESP Fit Center  245 is at  -2.732617 -3.216727  2.007655
      ESP Fit Center  246 is at  -2.001005 -3.049741  2.007655
      ESP Fit Center  247 is at  -1.351116 -2.674528  2.007655
      ESP Fit Center  248 is at  -0.840696 -2.124426  2.007655
      ESP Fit Center  249 is at  -0.515098 -1.448315  2.007655
      ESP Fit Center  250 is at  -3.464366  2.143464  1.397123
      ESP Fit Center  251 is at  -4.155987  1.918742  1.397123
      ESP Fit Center  252 is at  -4.769993  1.529082  1.397123
      ESP Fit Center  253 is at  -5.267805  0.998966  1.397123
      ESP Fit Center  254 is at  -5.618143  0.361704  1.397123
      ESP Fit Center  255 is at  -5.798994 -0.342662  1.397123
      ESP Fit Center  256 is at  -5.798994 -1.069876  1.397123
      ESP Fit Center  257 is at  -5.618143 -1.774243  1.397123
      ESP Fit Center  258 is at  -5.267805 -2.411505  1.397123
      ESP Fit Center  259 is at  -4.769993 -2.941620  1.397123
      ESP Fit Center  260 is at  -4.155987 -3.331281  1.397123
      ESP Fit Center  261 is at  -3.464366 -3.556002  1.397123
      ESP Fit Center  262 is at  -2.738587 -3.601664  1.397123
      ESP Fit Center  263 is at  -2.024255 -3.465398  1.397123
      ESP Fit Center  264 is at  -1.366252 -3.155766  1.397123
      ESP Fit Center  265 is at  -0.805925 -2.692222  1.397123
      ESP Fit Center  266 is at  -3.821102  2.301117  0.716535
      ESP Fit Center  267 is at  -4.490384  2.012417  0.716535
      ESP Fit Center  268 is at  -5.075046  1.577152  0.716535
      ESP Fit Center  269 is at  -5.543570  1.018787  0.716535
      ESP Fit Center  270 is at  -5.870697  0.367424  0.716535
      ESP Fit Center  271 is at  -6.038791 -0.341822  0.716535
      ESP Fit Center  272 is at  -6.038791 -1.070716  0.716535
      ESP Fit Center  273 is at  -5.870697 -1.779962  0.716535
      ESP Fit Center  274 is at  -5.543570 -2.431325  0.716535
      ESP Fit Center  275 is at  -5.075046 -2.989690  0.716535
      ESP Fit Center  276 is at  -4.490384 -3.424955  0.716535
      ESP Fit Center  277 is at  -3.821102 -3.713655  0.716535
      ESP Fit Center  278 is at  -3.103282 -3.840226  0.716535
      ESP Fit Center  279 is at  -2.375622 -3.797845  0.716535
      ESP Fit Center  280 is at  -1.677350 -3.588795  0.716535
      ESP Fit Center  281 is at  -1.046109 -3.224349  0.716535
      ESP Fit Center  282 is at  -3.637267  2.432999  0.000018
      ESP Fit Center  283 is at  -4.317856  2.194851  0.000018
      ESP Fit Center  284 is at  -4.928387  1.811228  0.000018
      ESP Fit Center  285 is at  -5.438247  1.301368  0.000018
      ESP Fit Center  286 is at  -5.821870  0.690836  0.000018
      ESP Fit Center  287 is at  -6.060018  0.010248  0.000018
      ESP Fit Center  288 is at  -6.140750 -0.706269  0.000018
      ESP Fit Center  289 is at  -6.060018 -1.422787  0.000018
      ESP Fit Center  290 is at  -5.821870 -2.103375  0.000018
      ESP Fit Center  291 is at  -5.438247 -2.713906  0.000018
      ESP Fit Center  292 is at  -4.928387 -3.223767  0.000018
      ESP Fit Center  293 is at  -4.317856 -3.607389  0.000018
      ESP Fit Center  294 is at  -3.637267 -3.845537  0.000018
      ESP Fit Center  295 is at  -2.920750 -3.926269  0.000018
      ESP Fit Center  296 is at  -2.204233 -3.845537  0.000018
      ESP Fit Center  297 is at  -1.523644 -3.607389  0.000018
      ESP Fit Center  298 is at  -0.913113 -3.223767  0.000018
      ESP Fit Center  299 is at  -3.821102  2.301117 -0.716500
      ESP Fit Center  300 is at  -4.490384  2.012417 -0.716500
      ESP Fit Center  301 is at  -5.075046  1.577152 -0.716500
      ESP Fit Center  302 is at  -5.543570  1.018787 -0.716500
      ESP Fit Center  303 is at  -5.870697  0.367424 -0.716500
      ESP Fit Center  304 is at  -6.038791 -0.341822 -0.716500
      ESP Fit Center  305 is at  -6.038791 -1.070716 -0.716500
      ESP Fit Center  306 is at  -5.870697 -1.779962 -0.716500
      ESP Fit Center  307 is at  -5.543570 -2.431325 -0.716500
      ESP Fit Center  308 is at  -5.075046 -2.989690 -0.716500
      ESP Fit Center  309 is at  -4.490384 -3.424955 -0.716500
      ESP Fit Center  310 is at  -3.821102 -3.713655 -0.716500
      ESP Fit Center  311 is at  -3.103282 -3.840226 -0.716500
      ESP Fit Center  312 is at  -2.375622 -3.797845 -0.716500
      ESP Fit Center  313 is at  -1.677350 -3.588795 -0.716500
      ESP Fit Center  314 is at  -1.046109 -3.224349 -0.716500
      ESP Fit Center  315 is at  -3.464366  2.143464 -1.397088
      ESP Fit Center  316 is at  -4.155987  1.918742 -1.397088
      ESP Fit Center  317 is at  -4.769993  1.529082 -1.397088
      ESP Fit Center  318 is at  -5.267805  0.998966 -1.397088
      ESP Fit Center  319 is at  -5.618143  0.361704 -1.397088
      ESP Fit Center  320 is at  -5.798994 -0.342662 -1.397088
      ESP Fit Center  321 is at  -5.798994 -1.069876 -1.397088
      ESP Fit Center  322 is at  -5.618143 -1.774243 -1.397088
      ESP Fit Center  323 is at  -5.267805 -2.411505 -1.397088
      ESP Fit Center  324 is at  -4.769993 -2.941620 -1.397088
      ESP Fit Center  325 is at  -4.155987 -3.331281 -1.397088
      ESP Fit Center  326 is at  -3.464366 -3.556002 -1.397088
      ESP Fit Center  327 is at  -2.738587 -3.601664 -1.397088
      ESP Fit Center  328 is at  -2.024255 -3.465398 -1.397088
      ESP Fit Center  329 is at  -1.366252 -3.155766 -1.397088
      ESP Fit Center  330 is at  -0.805925 -2.692222 -1.397088
      ESP Fit Center  331 is at  -0.515098  0.035776 -2.007619
      ESP Fit Center  332 is at  -0.840696  0.711888 -2.007619
      ESP Fit Center  333 is at  -2.001005  1.637203 -2.007619
      ESP Fit Center  334 is at  -2.732617  1.804189 -2.007619
      ESP Fit Center  335 is at  -3.480946  1.748109 -2.007619
      ESP Fit Center  336 is at  -4.179499  1.473948 -2.007619
      ESP Fit Center  337 is at  -4.766206  1.006064 -2.007619
      ESP Fit Center  338 is at  -5.188937  0.386032 -2.007619
      ESP Fit Center  339 is at  -5.410129 -0.331056 -2.007619
      ESP Fit Center  340 is at  -5.410129 -1.081483 -2.007619
      ESP Fit Center  341 is at  -5.188937 -1.798570 -2.007619
      ESP Fit Center  342 is at  -4.766206 -2.418602 -2.007619
      ESP Fit Center  343 is at  -4.179499 -2.886486 -2.007619
      ESP Fit Center  344 is at  -3.480946 -3.160648 -2.007619
      ESP Fit Center  345 is at  -2.732617 -3.216727 -2.007619
      ESP Fit Center  346 is at  -2.001005 -3.049741 -2.007619
      ESP Fit Center  347 is at  -1.351116 -2.674528 -2.007619
      ESP Fit Center  348 is at  -0.840696 -2.124426 -2.007619
      ESP Fit Center  349 is at  -0.515098 -1.448315 -2.007619
      ESP Fit Center  350 is at  -0.913113 -0.706269 -2.517480
      ESP Fit Center  351 is at  -1.048684  0.018973 -2.517480
      ESP Fit Center  352 is at  -1.437088  0.646267 -2.517480
      ESP Fit Center  353 is at  -2.025869  1.090894 -2.517480
      ESP Fit Center  354 is at  -2.735509  1.292804 -2.517480
      ESP Fit Center  355 is at  -3.470166  1.224728 -2.517480
      ESP Fit Center  356 is at  -4.130622  0.895860 -2.517480
      ESP Fit Center  357 is at  -4.627678  0.350616 -2.517480
      ESP Fit Center  358 is at  -4.894203 -0.337367 -2.517480
      ESP Fit Center  359 is at  -4.894203 -1.075172 -2.517480
      ESP Fit Center  360 is at  -4.627678 -1.763154 -2.517480
      ESP Fit Center  361 is at  -4.130622 -2.308398 -2.517480
      ESP Fit Center  362 is at  -3.470166 -2.637266 -2.517480
      ESP Fit Center  363 is at  -2.735509 -2.705342 -2.517480
      ESP Fit Center  364 is at  -2.025869 -2.503432 -2.517480
      ESP Fit Center  365 is at  -1.437088 -2.058806 -2.517480
      ESP Fit Center  366 is at  -1.048684 -1.431511 -2.517480
      ESP Fit Center  367 is at  -1.523644 -0.706269 -2.901102
      ESP Fit Center  368 is at  -1.710821 -0.007716 -2.901102
      ESP Fit Center  369 is at  -2.222197  0.503660 -2.901102
      ESP Fit Center  370 is at  -2.920750  0.690836 -2.901102
      ESP Fit Center  371 is at  -3.619303  0.503660 -2.901102
      ESP Fit Center  372 is at  -4.130679 -0.007716 -2.901102
      ESP Fit Center  373 is at  -4.317856 -0.706269 -2.901102
      ESP Fit Center  374 is at  -4.130679 -1.404822 -2.901102
      ESP Fit Center  375 is at  -3.619303 -1.916198 -2.901102
      ESP Fit Center  376 is at  -2.920750 -2.103375 -2.901102
      ESP Fit Center  377 is at  -2.222197 -1.916198 -2.901102
      ESP Fit Center  378 is at  -1.710821 -1.404822 -2.901102
      ESP Fit Center  379 is at  -2.204233 -0.706269 -3.139250
      ESP Fit Center  380 is at  -2.562491 -0.085747 -3.139250
      ESP Fit Center  381 is at  -3.279009 -0.085747 -3.139250
      ESP Fit Center  382 is at  -3.637267 -0.706269 -3.139250
      ESP Fit Center  383 is at  -3.279009 -1.326791 -3.139250
      ESP Fit Center  384 is at  -2.562491 -1.326791 -3.139250
      ESP Fit Center  385 is at  -2.920750 -0.706269 -3.219982
      ESP Fit Center  386 is at   4.046674 -2.870257  2.568751
      ESP Fit Center  387 is at   4.775599 -2.870257  2.402379
      ESP Fit Center  388 is at   4.411136 -2.238990  2.402379
      ESP Fit Center  389 is at   3.682212 -2.238990  2.402379
      ESP Fit Center  390 is at   3.317749 -2.870257  2.402379
      ESP Fit Center  391 is at   3.682212 -3.501524  2.402379
      ESP Fit Center  392 is at   4.411136 -3.501524  2.402379
      ESP Fit Center  393 is at   5.360151 -2.870257  1.936214
      ESP Fit Center  394 is at   5.109299 -2.098215  1.936214
      ESP Fit Center  395 is at   4.452561 -1.621066  1.936214
      ESP Fit Center  396 is at   3.640787 -1.621066  1.936214
      ESP Fit Center  397 is at   2.984049 -2.098215  1.936214
      ESP Fit Center  398 is at   3.640787 -4.119448  1.936214
      ESP Fit Center  399 is at   4.452561 -4.119448  1.936214
      ESP Fit Center  400 is at   5.109299 -3.642299  1.936214
      ESP Fit Center  401 is at   5.684553 -2.870257  1.262586
      ESP Fit Center  402 is at   5.496944 -2.109097  1.262586
      ESP Fit Center  403 is at   4.977095 -1.522309  1.262586
      ESP Fit Center  404 is at   4.244099 -1.244320  1.262586
      ESP Fit Center  405 is at   4.977095 -4.218205  1.262586
      ESP Fit Center  406 is at   5.496944 -3.631417  1.262586
      ESP Fit Center  407 is at   5.684553 -2.870257  0.514916
      ESP Fit Center  408 is at   5.496944 -2.109097  0.514916
      ESP Fit Center  409 is at   4.977095 -1.522309  0.514916
      ESP Fit Center  410 is at   5.496944 -3.631417  0.514916
      ESP Fit Center  411 is at   3.044117 -4.893633  1.513651
      ESP Fit Center  412 is at   3.773041 -4.893633  1.513651
      ESP Fit Center  413 is at   2.345954 -5.034408  1.047486
      ESP Fit Center  414 is at   3.002692 -5.511557  1.047486
      ESP Fit Center  415 is at   3.814466 -5.511557  1.047486
      ESP Fit Center  416 is at   4.471204 -5.034408  1.047486
      ESP Fit Center  417 is at   1.818294 -4.654336  0.373858
      ESP Fit Center  418 is at   2.182609 -5.348480  0.373858
      ESP Fit Center  419 is at   2.827779 -5.793809  0.373858
      ESP Fit Center  420 is at   3.606004 -5.888303  0.373858
      ESP Fit Center  421 is at   4.339000 -5.610314  0.373858
      ESP Fit Center  422 is at   4.858849 -5.023526  0.373858
      ESP Fit Center  423 is at   1.818294 -4.654336 -0.373812
      ESP Fit Center  424 is at   2.182609 -5.348480 -0.373812
      ESP Fit Center  425 is at   2.827779 -5.793809 -0.373812
      ESP Fit Center  426 is at   3.606004 -5.888303 -0.373812
      ESP Fit Center  427 is at   4.339000 -5.610314 -0.373812
      ESP Fit Center  428 is at   4.858849 -5.023526 -0.373812
      ESP Fit Center  429 is at   2.345954 -5.034408 -1.047440
      ESP Fit Center  430 is at   3.002692 -5.511557 -1.047440
      ESP Fit Center  431 is at   3.814466 -5.511557 -1.047440
      ESP Fit Center  432 is at   4.471204 -5.034408 -1.047440
      ESP Fit Center  433 is at   3.044117 -4.893633 -1.513605
      ESP Fit Center  434 is at   3.773041 -4.893633 -1.513605
      ESP Fit Center  435 is at   5.684527 -2.870297 -0.514953
      ESP Fit Center  436 is at   5.496918 -2.109137 -0.514953
      ESP Fit Center  437 is at   4.977069 -1.522349 -0.514953
      ESP Fit Center  438 is at   5.496918 -3.631457 -0.514953
      ESP Fit Center  439 is at   5.684527 -2.870297 -1.262623
      ESP Fit Center  440 is at   5.496918 -2.109137 -1.262623
      ESP Fit Center  441 is at   4.977069 -1.522349 -1.262623
      ESP Fit Center  442 is at   4.244073 -1.244360 -1.262623
      ESP Fit Center  443 is at   4.977069 -4.218245 -1.262623
      ESP Fit Center  444 is at   5.496918 -3.631457 -1.262623
      ESP Fit Center  445 is at   5.360125 -2.870297 -1.936251
      ESP Fit Center  446 is at   5.109273 -2.098255 -1.936251
      ESP Fit Center  447 is at   4.452535 -1.621106 -1.936251
      ESP Fit Center  448 is at   3.640761 -1.621106 -1.936251
      ESP Fit Center  449 is at   2.984023 -2.098255 -1.936251
      ESP Fit Center  450 is at   3.640761 -4.119488 -1.936251
      ESP Fit Center  451 is at   4.452535 -4.119488 -1.936251
      ESP Fit Center  452 is at   5.109273 -3.642339 -1.936251
      ESP Fit Center  453 is at   4.775573 -2.870297 -2.402416
      ESP Fit Center  454 is at   4.411110 -2.239030 -2.402416
      ESP Fit Center  455 is at   3.682186 -2.239030 -2.402416
      ESP Fit Center  456 is at   3.317723 -2.870297 -2.402416
      ESP Fit Center  457 is at   3.682186 -3.501564 -2.402416
      ESP Fit Center  458 is at   4.411110 -3.501564 -2.402416
      ESP Fit Center  459 is at   4.046648 -2.870297 -2.568788
      ESP Fit Center  460 is at   1.514142 -2.883886  2.558508
      ESP Fit Center  461 is at   2.243067 -2.883886  2.392136
      ESP Fit Center  462 is at   1.878604 -2.252619  2.392136
      ESP Fit Center  463 is at   1.149680 -2.252619  2.392136
      ESP Fit Center  464 is at   0.785217 -2.883886  2.392136
      ESP Fit Center  465 is at   1.149680 -3.515153  2.392136
      ESP Fit Center  466 is at   1.878604 -3.515153  2.392136
      ESP Fit Center  467 is at   1.108255 -1.634695  1.925971
      ESP Fit Center  468 is at   0.451517 -2.111844  1.925971
      ESP Fit Center  469 is at   0.200665 -2.883886  1.925971
      ESP Fit Center  470 is at   0.451517 -3.655928  1.925971
      ESP Fit Center  471 is at   1.108255 -4.133077  1.925971
      ESP Fit Center  472 is at   1.920029 -4.133077  1.925971
      ESP Fit Center  473 is at   2.576767 -3.655928  1.925971
      ESP Fit Center  474 is at  -0.076143 -2.491916  1.252343
      ESP Fit Center  475 is at  -0.076143 -3.275856  1.252343
      ESP Fit Center  476 is at   0.288172 -3.970001  1.252343
      ESP Fit Center  477 is at   0.933342 -4.415329  1.252343
      ESP Fit Center  478 is at   1.711567 -4.509823  1.252343
      ESP Fit Center  479 is at  -0.076143 -3.275856  0.504673
      ESP Fit Center  480 is at   0.288172 -3.970001  0.504673
      ESP Fit Center  481 is at   0.933342 -4.415329  0.504673
      ESP Fit Center  482 is at  -0.076171 -3.275893 -0.504627
      ESP Fit Center  483 is at   0.288144 -3.970038 -0.504627
      ESP Fit Center  484 is at   0.933314 -4.415366 -0.504627
      ESP Fit Center  485 is at  -0.076171 -2.491953 -1.252297
      ESP Fit Center  486 is at  -0.076171 -3.275893 -1.252297
      ESP Fit Center  487 is at   0.288144 -3.970038 -1.252297
      ESP Fit Center  488 is at   0.933314 -4.415366 -1.252297
      ESP Fit Center  489 is at   1.711539 -4.509860 -1.252297
      ESP Fit Center  490 is at   1.108227 -1.634732 -1.925925
      ESP Fit Center  491 is at   0.451489 -2.111881 -1.925925
      ESP Fit Center  492 is at   0.200637 -2.883923 -1.925925
      ESP Fit Center  493 is at   0.451489 -3.655965 -1.925925
      ESP Fit Center  494 is at   1.108227 -4.133114 -1.925925
      ESP Fit Center  495 is at   1.920001 -4.133114 -1.925925
      ESP Fit Center  496 is at   2.576739 -3.655965 -1.925925
      ESP Fit Center  497 is at   2.243039 -2.883923 -2.392090
      ESP Fit Center  498 is at   1.878576 -2.252656 -2.392090
      ESP Fit Center  499 is at   1.149652 -2.252656 -2.392090
      ESP Fit Center  500 is at   0.785189 -2.883923 -2.392090
      ESP Fit Center  501 is at   1.149652 -3.515190 -2.392090
      ESP Fit Center  502 is at   1.878576 -3.515190 -2.392090
      ESP Fit Center  503 is at   1.514114 -2.883923 -2.558462
      ESP Fit Center  504 is at   3.800495 -0.645166  1.513585
      ESP Fit Center  505 is at   3.436032 -0.013899  1.513585
      ESP Fit Center  506 is at   4.385047 -0.645166  1.047420
      ESP Fit Center  507 is at   4.134195  0.126876  1.047420
      ESP Fit Center  508 is at   4.709449 -0.645166  0.373792
      ESP Fit Center  509 is at   4.521840  0.115994  0.373792
      ESP Fit Center  510 is at   4.709449 -0.645166 -0.373878
      ESP Fit Center  511 is at   4.521840  0.115994 -0.373878
      ESP Fit Center  512 is at   4.385047 -0.645166 -1.047506
      ESP Fit Center  513 is at   4.134195  0.126876 -1.047506
      ESP Fit Center  514 is at   3.800495 -0.645166 -1.513671
      ESP Fit Center  515 is at   3.436032 -0.013899 -1.513671
      ESP Fit Center  516 is at   3.521195  3.923479  1.513929
      ESP Fit Center  517 is at   3.156733  4.554746  1.513929
      ESP Fit Center  518 is at   2.427808  4.554746  1.513929
      ESP Fit Center  519 is at   4.105748  3.923479  1.047764
      ESP Fit Center  520 is at   3.854896  4.695521  1.047764
      ESP Fit Center  521 is at   3.198157  5.172670  1.047764
      ESP Fit Center  522 is at   2.386384  5.172670  1.047764
      ESP Fit Center  523 is at   4.430150  3.923479  0.374136
      ESP Fit Center  524 is at   4.242540  4.684639  0.374136
      ESP Fit Center  525 is at   3.722692  5.271427  0.374136
      ESP Fit Center  526 is at   2.989695  5.549416  0.374136
      ESP Fit Center  527 is at   2.211471  5.454922  0.374136
      ESP Fit Center  528 is at   4.242540  3.162319  0.374136
      ESP Fit Center  529 is at   4.430150  3.923479 -0.373534
      ESP Fit Center  530 is at   4.242540  4.684639 -0.373534
      ESP Fit Center  531 is at   3.722692  5.271427 -0.373534
      ESP Fit Center  532 is at   2.989695  5.549416 -0.373534
      ESP Fit Center  533 is at   2.211471  5.454922 -0.373534
      ESP Fit Center  534 is at   4.242540  3.162319 -0.373534
      ESP Fit Center  535 is at   4.105748  3.923479 -1.047162
      ESP Fit Center  536 is at   3.854896  4.695521 -1.047162
      ESP Fit Center  537 is at   3.198157  5.172670 -1.047162
      ESP Fit Center  538 is at   2.386384  5.172670 -1.047162
      ESP Fit Center  539 is at   3.521195  3.923479 -1.513327
      ESP Fit Center  540 is at   3.156733  4.554746 -1.513327
      ESP Fit Center  541 is at   2.427808  4.554746 -1.513327
      ESP Fit Center  542 is at   0.395603  4.731291  1.513299
      ESP Fit Center  543 is at  -0.333322  4.731291  1.513299
      ESP Fit Center  544 is at  -0.697784  4.100024  1.513299
      ESP Fit Center  545 is at   0.437027  5.349215  1.047134
      ESP Fit Center  546 is at  -0.374746  5.349215  1.047134
      ESP Fit Center  547 is at  -1.031484  4.872066  1.047134
      ESP Fit Center  548 is at  -1.282336  4.100024  1.047134
      ESP Fit Center  549 is at   0.961562  5.447972  0.373506
      ESP Fit Center  550 is at   0.228565  5.725961  0.373506
      ESP Fit Center  551 is at  -0.549659  5.631467  0.373506
      ESP Fit Center  552 is at  -1.194829  5.186139  0.373506
      ESP Fit Center  553 is at  -1.559144  4.491994  0.373506
      ESP Fit Center  554 is at   0.961562  5.447972 -0.374164
      ESP Fit Center  555 is at   0.228565  5.725961 -0.374164
      ESP Fit Center  556 is at  -0.549659  5.631467 -0.374164
      ESP Fit Center  557 is at  -1.194829  5.186139 -0.374164
      ESP Fit Center  558 is at  -1.559144  4.491994 -0.374164
      ESP Fit Center  559 is at   0.437027  5.349215 -1.047792
      ESP Fit Center  560 is at  -0.374746  5.349215 -1.047792
      ESP Fit Center  561 is at  -1.031484  4.872066 -1.047792
      ESP Fit Center  562 is at  -1.282336  4.100024 -1.047792
      ESP Fit Center  563 is at   0.395603  4.731291 -1.513957
      ESP Fit Center  564 is at  -0.333322  4.731291 -1.513957
      ESP Fit Center  565 is at  -0.697784  4.100024 -1.513957
      ESP Fit Center  566 is at  -2.280938  2.747033  1.513548
      ESP Fit Center  567 is at  -1.510589  3.364957  1.047383
      ESP Fit Center  568 is at  -2.322362  3.364957  1.047383
      ESP Fit Center  569 is at  -2.979100  2.887808  1.047383
      ESP Fit Center  570 is at  -1.719051  3.741703  0.373755
      ESP Fit Center  571 is at  -2.497275  3.647209  0.373755
      ESP Fit Center  572 is at  -3.142445  3.201880  0.373755
      ESP Fit Center  573 is at  -3.506760  2.507736  0.373755
      ESP Fit Center  574 is at  -1.719051  3.741703 -0.373915
      ESP Fit Center  575 is at  -2.497275  3.647209 -0.373915
      ESP Fit Center  576 is at  -3.142445  3.201880 -0.373915
      ESP Fit Center  577 is at  -3.506760  2.507736 -0.373915
      ESP Fit Center  578 is at  -1.510589  3.364957 -1.047543
      ESP Fit Center  579 is at  -2.322362  3.364957 -1.047543
      ESP Fit Center  580 is at  -2.979100  2.887808 -1.047543
      ESP Fit Center  581 is at  -2.280938  2.747033 -1.513708
      ESP Fit Center  582 is at   2.455721  1.813925  2.368308
      ESP Fit Center  583 is at   3.187574  1.813925  2.252394
      ESP Fit Center  584 is at   2.821648  2.447729  2.252394
      ESP Fit Center  585 is at   1.723867  1.813925  2.252394
      ESP Fit Center  586 is at   2.089794  1.180121  2.252394
      ESP Fit Center  587 is at   2.821648  1.180121  2.252394
      ESP Fit Center  588 is at   3.847789  1.813925  1.915998
      ESP Fit Center  589 is at   3.626803  2.566534  1.915998
      ESP Fit Center  590 is at   3.034007  0.547655  1.915998
      ESP Fit Center  591 is at   3.626803  1.061316  1.915998
      ESP Fit Center  592 is at   4.371739  1.813925  1.392048
      ESP Fit Center  593 is at   4.225890  2.547153  1.392048
      ESP Fit Center  594 is at   3.810550  0.459096  1.392048
      ESP Fit Center  595 is at   4.225890  1.080697  1.392048
      ESP Fit Center  596 is at   4.708135  1.813925  0.731834
      ESP Fit Center  597 is at   4.586093  2.545283  0.731834
      ESP Fit Center  598 is at   4.586093  1.082567  0.731834
      ESP Fit Center  599 is at   4.824049  1.813925 -0.000020
      ESP Fit Center  600 is at   4.708135  2.545779 -0.000020
      ESP Fit Center  601 is at   4.708135  1.082071 -0.000020
      ESP Fit Center  602 is at   4.708135  1.813925 -0.731874
      ESP Fit Center  603 is at   4.586093  2.545283 -0.731874
      ESP Fit Center  604 is at   4.586093  1.082567 -0.731874
      ESP Fit Center  605 is at   4.371739  1.813925 -1.392089
      ESP Fit Center  606 is at   4.225890  2.547153 -1.392089
      ESP Fit Center  607 is at   3.810550  0.459096 -1.392089
      ESP Fit Center  608 is at   4.225890  1.080697 -1.392089
      ESP Fit Center  609 is at   3.847789  1.813925 -1.916038
      ESP Fit Center  610 is at   3.626803  2.566534 -1.916038
      ESP Fit Center  611 is at   3.034007  0.547655 -1.916038
      ESP Fit Center  612 is at   3.626803  1.061316 -1.916038
      ESP Fit Center  613 is at   3.187574  1.813925 -2.252434
      ESP Fit Center  614 is at   2.821648  2.447729 -2.252434
      ESP Fit Center  615 is at   1.723867  1.813925 -2.252434
      ESP Fit Center  616 is at   2.089794  1.180121 -2.252434
      ESP Fit Center  617 is at   2.821648  1.180121 -2.252434
      ESP Fit Center  618 is at   2.455721  1.813925 -2.368348
      ESP Fit Center  619 is at   1.316595  1.128189  2.368273
      ESP Fit Center  620 is at   2.048449  1.128189  2.252359
      ESP Fit Center  621 is at   1.682522  1.761993  2.252359
      ESP Fit Center  622 is at   0.950668  1.761993  2.252359
      ESP Fit Center  623 is at   0.584741  1.128189  2.252359
      ESP Fit Center  624 is at   0.950668  0.494385  2.252359
      ESP Fit Center  625 is at   1.682522  0.494385  2.252359
      ESP Fit Center  626 is at   2.487677  0.375580  1.915963
      ESP Fit Center  627 is at   2.487677  0.375580 -1.916073
      ESP Fit Center  628 is at   2.048449  1.128189 -2.252469
      ESP Fit Center  629 is at   1.682522  1.761993 -2.252469
      ESP Fit Center  630 is at   0.950668  1.761993 -2.252469
      ESP Fit Center  631 is at   0.584741  1.128189 -2.252469
      ESP Fit Center  632 is at   0.950668  0.494385 -2.252469
      ESP Fit Center  633 is at   1.682522  0.494385 -2.252469
      ESP Fit Center  634 is at   1.316595  1.128189 -2.368383
      ESP Fit Center  635 is at   0.205800  1.956628  2.368234
      ESP Fit Center  636 is at   0.937653  1.956628  2.252320
      ESP Fit Center  637 is at  -0.160127  2.590432  2.252320
      ESP Fit Center  638 is at  -0.526054  1.956628  2.252320
      ESP Fit Center  639 is at  -0.160127  1.322824  2.252320
      ESP Fit Center  640 is at   0.571727  1.322824  2.252320
      ESP Fit Center  641 is at  -0.705811  3.008683  1.915924
      ESP Fit Center  642 is at  -0.705811  3.008683 -1.916112
      ESP Fit Center  643 is at   0.937653  1.956628 -2.252508
      ESP Fit Center  644 is at  -0.160127  2.590432 -2.252508
      ESP Fit Center  645 is at  -0.526054  1.956628 -2.252508
      ESP Fit Center  646 is at  -0.160127  1.322824 -2.252508
      ESP Fit Center  647 is at   0.571727  1.322824 -2.252508
      ESP Fit Center  648 is at   0.205800  1.956628 -2.368422
      ESP Fit Center  649 is at   0.687926  3.243689  2.368395
      ESP Fit Center  650 is at   1.053853  3.877493  2.252481
      ESP Fit Center  651 is at   0.321999  3.877493  2.252481
      ESP Fit Center  652 is at  -0.043928  3.243689  2.252481
      ESP Fit Center  653 is at   1.053853  2.609885  2.252481
[...]
 2930 Fit      -0.004043
 2931 Fit      -0.004446
 2932 Fit      -0.000062
 2933 Fit      -0.002707
 2934 Fit       0.003297
 2935 Fit       0.000444
 2936 Fit       0.000403
 2937 Fit       0.004135
 2938 Fit      -0.002913
 2939 Fit       0.001565
 2940 Fit       0.000403
 2941 Fit       0.004135
 2942 Fit       0.003298
 2943 Fit       0.000444
 2944 Fit       0.004130
 2945 Fit       0.004626
 2946 Fit       0.004554
 2947 Fit       0.004779
 2948 Fit       0.004828
 2949 Fit       0.004976
 2950 Fit       0.005061
 2951 Fit       0.005125
 2952 Fit       0.005284
 2953 Fit       0.005271
 2954 Fit       0.005288
 2955 Fit       0.005751
 2956 Fit       0.005221
 2957 Fit       0.005072
 2958 Fit       0.005293
 2959 Fit       0.005510
 2960 Fit       0.006054
 2961 Fit       0.006826
 2962 Fit       0.008110
 2963 Fit       0.005184
 2964 Fit       0.004989
 2965 Fit       0.005138
 2966 Fit       0.005751
 2967 Fit       0.005221
 2968 Fit       0.005072
 2969 Fit       0.005293
 2970 Fit       0.005271
 2971 Fit       0.005288
 2972 Fit       0.005284
 2973 Fit       0.004828
 2974 Fit       0.004976
 2975 Fit       0.005061
 2976 Fit       0.005125
 2977 Fit       0.004554
 2978 Fit       0.004779
 2979 Fit       0.004130
 2980 Fit       0.004626
 2981 Fit      -0.006540
 2982 Fit      -0.006638
 2983 Fit      -0.005950
 2984 Fit      -0.005864
 2985 Fit      -0.006377
 2986 Fit      -0.006945
 2987 Fit      -0.007116
 2988 Fit      -0.006688
 2989 Fit      -0.005885
 2990 Fit      -0.005164
 2991 Fit      -0.004852
 2992 Fit      -0.005072
 2993 Fit      -0.005583
 2994 Fit      -0.006138
 2995 Fit      -0.006678
 2996 Fit      -0.007180
 2997 Fit      -0.007535
 2998 Fit      -0.007601
 2999 Fit      -0.007309
 3000 Fit      -0.006699
 3001 Fit      -0.005870
 3002 Fit      -0.004987
 3003 Fit      -0.004165
 3004 Fit      -0.003663
 3005 Fit      -0.003694
 3006 Fit      -0.004150
 3007 Fit      -0.004758
 3008 Fit      -0.005328
 3009 Fit      -0.005823
 3010 Fit      -0.006291
 3011 Fit      -0.006776
 3012 Fit      -0.007265
 3013 Fit      -0.007687
 3014 Fit      -0.007949
 3015 Fit      -0.007987
 3016 Fit      -0.007790
 3017 Fit      -0.007363
 3018 Fit      -0.006655
 3019 Fit      -0.005800
 3020 Fit      -0.004918
 3021 Fit      -0.003951
 3022 Fit      -0.002913
 3023 Fit      -0.002141
 3024 Fit      -0.001965
 3025 Fit      -0.002371
 3026 Fit      -0.003092
 3027 Fit      -0.003856
 3028 Fit      -0.004510
 3029 Fit      -0.005025
 3030 Fit      -0.005443
 3031 Fit      -0.005837
 3032 Fit      -0.006260
 3033 Fit      -0.006731
 3034 Fit      -0.007227
 3035 Fit      -0.007691
 3036 Fit      -0.008052
 3037 Fit      -0.008247
 3038 Fit      -0.008247
 3039 Fit      -0.008074
 3040 Fit      -0.007783
 3041 Fit      -0.007342
 3042 Fit      -0.006478
 3043 Fit      -0.005493
 3044 Fit      -0.004652
 3045 Fit      -0.003816
 3046 Fit      -0.002578
 3047 Fit      -0.001059
 3048 Fit       0.000068
 3049 Fit       0.000330
 3050 Fit      -0.000210
 3051 Fit      -0.001190
 3052 Fit      -0.002258
 3053 Fit      -0.003197
 3054 Fit      -0.003926
 3055 Fit      -0.004457
 3056 Fit      -0.004852
 3057 Fit      -0.005188
 3058 Fit      -0.005534
 3059 Fit      -0.005935
 3060 Fit      -0.006405
 3061 Fit      -0.006922
 3062 Fit      -0.007444
 3063 Fit      -0.007908
 3064 Fit      -0.008251
 3065 Fit      -0.008415
 3066 Fit      -0.008363
 3067 Fit      -0.008113
 3068 Fit      -0.007791
 3069 Fit      -0.007548
 3070 Fit      -0.007220
 3071 Fit      -0.000382
 3072 Fit       0.002101
 3073 Fit       0.003508
 3074 Fit       0.003473
 3075 Fit       0.002401
 3076 Fit       0.000880
 3077 Fit      -0.000644
 3078 Fit      -0.001938
 3079 Fit      -0.002928
 3080 Fit      -0.003630
 3081 Fit      -0.004109
 3082 Fit      -0.004448
 3083 Fit      -0.004731
 3084 Fit      -0.005029
 3085 Fit      -0.005390
 3086 Fit      -0.005833
 3087 Fit      -0.006352
 3088 Fit      -0.006915
 3089 Fit      -0.007471
 3090 Fit      -0.007962
 3091 Fit      -0.008322
 3092 Fit      -0.008486
 3093 Fit      -0.008380
 3094 Fit      -0.007935
 3095 Fit      -0.007192
 3096 Fit      -0.006863
 3097 Fit       0.008659
 3098 Fit       0.007735
 3099 Fit       0.005703
 3100 Fit       0.003384
 3101 Fit       0.001255
 3102 Fit      -0.000488
 3103 Fit      -0.001808
 3104 Fit      -0.002745
 3105 Fit      -0.003376
 3106 Fit      -0.003787
 3107 Fit      -0.004069
 3108 Fit      -0.004302
 3109 Fit      -0.004552
 3110 Fit      -0.004866
 3111 Fit      -0.005268
 3112 Fit      -0.005759
 3113 Fit      -0.006319
 3114 Fit      -0.006911
 3115 Fit      -0.007485
 3116 Fit      -0.007986
 3117 Fit      -0.008352
 3118 Fit      -0.008511
 3119 Fit      -0.008359
 3120 Fit      -0.007718
 3121 Fit       0.012250
 3122 Fit       0.008613
 3123 Fit       0.005286
 3124 Fit       0.002552
 3125 Fit       0.000447
 3126 Fit      -0.001097
 3127 Fit      -0.002175
 3128 Fit      -0.002891
 3129 Fit      -0.003347
 3130 Fit      -0.003637
 3131 Fit      -0.003844
 3132 Fit      -0.004042
 3133 Fit      -0.004284
 3134 Fit      -0.004607
 3135 Fit      -0.005026
 3136 Fit      -0.005537
 3137 Fit      -0.006118
 3138 Fit      -0.006732
 3139 Fit      -0.007334
 3140 Fit      -0.007871
 3141 Fit      -0.008285
 3142 Fit      -0.008504
 3143 Fit      -0.008424
 3144 Fit      -0.007847
 3145 Fit       0.013101
 3146 Fit       0.008302
 3147 Fit       0.004601
 3148 Fit       0.001858
 3149 Fit      -0.000112
 3150 Fit      -0.001476
 3151 Fit      -0.002379
 3152 Fit      -0.002948
 3153 Fit      -0.003292
 3154 Fit      -0.003509
 3155 Fit      -0.003682
 3156 Fit      -0.003878
 3157 Fit      -0.004145
 3158 Fit      -0.004509
 3159 Fit      -0.004979
 3160 Fit      -0.005542
 3161 Fit      -0.006168
 3162 Fit      -0.006817
 3163 Fit      -0.007437
 3164 Fit      -0.007974
 3165 Fit      -0.008363
 3166 Fit      -0.008520
 3167 Fit      -0.008312
 3168 Fit      -0.007469
 3169 Fit       0.011030
 3170 Fit       0.006476
 3171 Fit       0.003169
 3172 Fit       0.000813
 3173 Fit      -0.000823
 3174 Fit      -0.001919
 3175 Fit      -0.002618
 3176 Fit      -0.003041
 3177 Fit      -0.003294
 3178 Fit      -0.003466
 3179 Fit      -0.003630
 3180 Fit      -0.003845
 3181 Fit      -0.004146
 3182 Fit      -0.004553
 3183 Fit      -0.005064
 3184 Fit      -0.005660
 3185 Fit      -0.006307
 3186 Fit      -0.006962
 3187 Fit      -0.007574
 3188 Fit      -0.008084
 3189 Fit      -0.008427
 3190 Fit      -0.008512
 3191 Fit      -0.008189
 3192 Fit      -0.007167
 3193 Fit       0.011030
 3194 Fit       0.006476
 3195 Fit       0.003169
 3196 Fit       0.000814
 3197 Fit      -0.000823
 3198 Fit      -0.001919
 3199 Fit      -0.002618
 3200 Fit      -0.003041
 3201 Fit      -0.003294
 3202 Fit      -0.003466
 3203 Fit      -0.003630
 3204 Fit      -0.003845
 3205 Fit      -0.004146
 3206 Fit      -0.004553
 3207 Fit      -0.005064
 3208 Fit      -0.005660
 3209 Fit      -0.006307
 3210 Fit      -0.006962
 3211 Fit      -0.007574
 3212 Fit      -0.008084
 3213 Fit      -0.008427
 3214 Fit      -0.008512
 3215 Fit      -0.008189
 3216 Fit      -0.007167
 3217 Fit       0.013104
 3218 Fit       0.008304
 3219 Fit       0.004602
 3220 Fit       0.001858
 3221 Fit      -0.000112
 3222 Fit      -0.001476
 3223 Fit      -0.002379
 3224 Fit      -0.002948
 3225 Fit      -0.003292
 3226 Fit      -0.003509
 3227 Fit      -0.003682
 3228 Fit      -0.003878
 3229 Fit      -0.004145
 3230 Fit      -0.004509
 3231 Fit      -0.004979
 3232 Fit      -0.005542
 3233 Fit      -0.006168
 3234 Fit      -0.006817
 3235 Fit      -0.007437
 3236 Fit      -0.007974
 3237 Fit      -0.008363
 3238 Fit      -0.008520
 3239 Fit      -0.008312
 3240 Fit      -0.007468
 3241 Fit       0.012255
 3242 Fit       0.008617
 3243 Fit       0.005288
 3244 Fit       0.002553
 3245 Fit       0.000448
 3246 Fit      -0.001096
 3247 Fit      -0.002174
 3248 Fit      -0.002891
 3249 Fit      -0.003347
 3250 Fit      -0.003637
 3251 Fit      -0.003844
 3252 Fit      -0.004042
 3253 Fit      -0.004284
 3254 Fit      -0.004607
 3255 Fit      -0.005026
 3256 Fit      -0.005537
 3257 Fit      -0.006118
 3258 Fit      -0.006732
 3259 Fit      -0.007334
 3260 Fit      -0.007871
 3261 Fit      -0.008285
 3262 Fit      -0.008504
 3263 Fit      -0.008424
 3264 Fit      -0.007846
 3265 Fit       0.008667
 3266 Fit       0.007740
 3267 Fit       0.005706
 3268 Fit       0.003386
 3269 Fit       0.001256
 3270 Fit      -0.000487
 3271 Fit      -0.001807
 3272 Fit      -0.002745
 3273 Fit      -0.003375
 3274 Fit      -0.003787
 3275 Fit      -0.004069
 3276 Fit      -0.004302
 3277 Fit      -0.004552
 3278 Fit      -0.004866
 3279 Fit      -0.005268
 3280 Fit      -0.005759
 3281 Fit      -0.006319
 3282 Fit      -0.006910
 3283 Fit      -0.007485
 3284 Fit      -0.007986
 3285 Fit      -0.008352
 3286 Fit      -0.008511
 3287 Fit      -0.008358
 3288 Fit      -0.007717
 3289 Fit      -0.000377
 3290 Fit       0.002106
 3291 Fit       0.003513
 3292 Fit       0.003477
 3293 Fit       0.002404
 3294 Fit       0.000883
 3295 Fit      -0.000642
 3296 Fit      -0.001937
 3297 Fit      -0.002927
 3298 Fit      -0.003629
 3299 Fit      -0.004108
 3300 Fit      -0.004448
 3301 Fit      -0.004731
 3302 Fit      -0.005029
 3303 Fit      -0.005390
 3304 Fit      -0.005833
 3305 Fit      -0.006352
 3306 Fit      -0.006915
 3307 Fit      -0.007471
 3308 Fit      -0.007962
 3309 Fit      -0.008322
 3310 Fit      -0.008486
 3311 Fit      -0.008379
 3312 Fit      -0.007935
 3313 Fit      -0.007191
 3314 Fit      -0.006863
 3315 Fit      -0.006477
 3316 Fit      -0.005492
 3317 Fit      -0.004651
 3318 Fit      -0.003814
 3319 Fit      -0.002575
 3320 Fit      -0.001055
 3321 Fit       0.000072
 3322 Fit       0.000333
 3323 Fit      -0.000207
 3324 Fit      -0.001188
 3325 Fit      -0.002257
 3326 Fit      -0.003196
 3327 Fit      -0.003925
 3328 Fit      -0.004457
 3329 Fit      -0.004852
 3330 Fit      -0.005188
 3331 Fit      -0.005534
 3332 Fit      -0.005935
 3333 Fit      -0.006404
 3334 Fit      -0.006922
 3335 Fit      -0.007444
 3336 Fit      -0.007908
 3337 Fit      -0.008250
 3338 Fit      -0.008414
 3339 Fit      -0.008362
 3340 Fit      -0.008112
 3341 Fit      -0.007791
 3342 Fit      -0.007547
 3343 Fit      -0.007219
 3344 Fit      -0.006654
 3345 Fit      -0.005799
 3346 Fit      -0.004916
 3347 Fit      -0.003949
 3348 Fit      -0.002911
 3349 Fit      -0.002138
 3350 Fit      -0.001963
 3351 Fit      -0.002369
 3352 Fit      -0.003090
 3353 Fit      -0.003855
 3354 Fit      -0.004509
 3355 Fit      -0.005024
 3356 Fit      -0.005443
 3357 Fit      -0.005836
 3358 Fit      -0.006259
 3359 Fit      -0.006731
 3360 Fit      -0.007227
 3361 Fit      -0.007691
 3362 Fit      -0.008051
 3363 Fit      -0.008246
 3364 Fit      -0.008246
 3365 Fit      -0.008074
 3366 Fit      -0.007782
 3367 Fit      -0.007341
 3368 Fit      -0.006698
 3369 Fit      -0.005868
 3370 Fit      -0.004986
 3371 Fit      -0.004163
 3372 Fit      -0.003661
 3373 Fit      -0.003692
 3374 Fit      -0.004149
 3375 Fit      -0.004757
 3376 Fit      -0.005327
 3377 Fit      -0.005822
 3378 Fit      -0.006290
 3379 Fit      -0.006776
 3380 Fit      -0.007265
 3381 Fit      -0.007687
 3382 Fit      -0.007949
 3383 Fit      -0.007986
 3384 Fit      -0.007789
 3385 Fit      -0.007362
 3386 Fit      -0.006687
 3387 Fit      -0.005884
 3388 Fit      -0.005162
 3389 Fit      -0.004850
 3390 Fit      -0.005071
 3391 Fit      -0.005582
 3392 Fit      -0.006137
 3393 Fit      -0.006677
 3394 Fit      -0.007179
 3395 Fit      -0.007534
 3396 Fit      -0.007600
 3397 Fit      -0.007309
 3398 Fit      -0.006638
 3399 Fit      -0.005949
 3400 Fit      -0.005863
 3401 Fit      -0.006376
 3402 Fit      -0.006944
 3403 Fit      -0.007115
 3404 Fit      -0.006539
 3405 Fit       0.004856
 3406 Fit       0.005450
 3407 Fit       0.005032
 3408 Fit       0.004154
 3409 Fit       0.004205
 3410 Fit       0.004737
 3411 Fit       0.005188
 3412 Fit       0.005861
 3413 Fit       0.005758
 3414 Fit       0.005070
 3415 Fit       0.003755
 3416 Fit       0.002636
 3417 Fit       0.004945
 3418 Fit       0.005233
 3419 Fit       0.005602
 3420 Fit       0.006055
 3421 Fit       0.006149
 3422 Fit       0.005952
 3423 Fit       0.005311
 3424 Fit       0.005262
 3425 Fit       0.005474
 3426 Fit       0.005786
 3427 Fit       0.006060
 3428 Fit       0.006288
 3429 Fit       0.006423
 3430 Fit       0.006467
 3431 Fit       0.006416
 3432 Fit       0.005513
 3433 Fit       0.005776
 3434 Fit       0.005970
 3435 Fit       0.006343
 3436 Fit       0.006821
 3437 Fit       0.007669
 3438 Fit       0.005646
 3439 Fit       0.006509
 3440 Fit       0.007453
 3441 Fit       0.005438
 3442 Fit       0.005443
 3443 Fit       0.005394
 3444 Fit       0.005655
 3445 Fit       0.005845
 3446 Fit       0.005796
 3447 Fit       0.005598
 3448 Fit       0.005115
 3449 Fit       0.005564
 3450 Fit       0.006000
 3451 Fit       0.006224
 3452 Fit       0.006191
 3453 Fit       0.005951
 3454 Fit       0.005647
 3455 Fit       0.005165
 3456 Fit       0.005822
 3457 Fit       0.006283
 3458 Fit       0.006465
 3459 Fit       0.006368
 3460 Fit       0.006062
 3461 Fit       0.005688
 3462 Fit       0.005165
 3463 Fit       0.005822
 3464 Fit       0.006283
 3465 Fit       0.006465
 3466 Fit       0.006368
 3467 Fit       0.006062
 3468 Fit       0.005688
 3469 Fit       0.005115
 3470 Fit       0.005564
 3471 Fit       0.006000
 3472 Fit       0.006224
 3473 Fit       0.006191
 3474 Fit       0.005951
 3475 Fit       0.005647
 3476 Fit       0.005394
 3477 Fit       0.005655
 3478 Fit       0.005845
 3479 Fit       0.005796
 3480 Fit       0.005598
 3481 Fit       0.005438
 3482 Fit       0.005443
 3483 Fit       0.006509
 3484 Fit       0.007454
 3485 Fit       0.005970
 3486 Fit       0.006343
 3487 Fit       0.006822
 3488 Fit       0.007670
 3489 Fit       0.005646
 3490 Fit       0.006061
 3491 Fit       0.006288
 3492 Fit       0.006423
 3493 Fit       0.006468
 3494 Fit       0.006417
 3495 Fit       0.005513
 3496 Fit       0.005776
 3497 Fit       0.006055
 3498 Fit       0.006150
 3499 Fit       0.005952
 3500 Fit       0.005311
 3501 Fit       0.005262
 3502 Fit       0.005474
 3503 Fit       0.005786
 3504 Fit       0.005861
 3505 Fit       0.005758
 3506 Fit       0.005070
 3507 Fit       0.003756
 3508 Fit       0.002636
 3509 Fit       0.004945
 3510 Fit       0.005233
 3511 Fit       0.005602
 3512 Fit       0.005451
 3513 Fit       0.005032
 3514 Fit       0.004154
 3515 Fit       0.004205
 3516 Fit       0.004737
 3517 Fit       0.005188
 3518 Fit       0.004856
 3519 Fit      -0.000357
 3520 Fit       0.001890
 3521 Fit      -0.000538
 3522 Fit      -0.003112
 3523 Fit      -0.003116
 3524 Fit      -0.000371
 3525 Fit       0.001837
 3526 Fit      -0.005401
 3527 Fit      -0.001666
 3528 Fit       0.001403
 3529 Fit       0.003366
 3530 Fit      -0.003327
 3531 Fit       0.000275
 3532 Fit       0.002938
 3533 Fit       0.004712
 3534 Fit      -0.002487
 3535 Fit       0.001116
 3536 Fit       0.003951
 3537 Fit      -0.001533
 3538 Fit       0.002523
 3539 Fit      -0.001533
 3540 Fit       0.002523
 3541 Fit      -0.002486
 3542 Fit       0.001116
 3543 Fit       0.003951
 3544 Fit      -0.003327
 3545 Fit       0.000275
 3546 Fit       0.002939
 3547 Fit       0.004712
 3548 Fit      -0.005400
 3549 Fit      -0.001666
 3550 Fit       0.001403
 3551 Fit       0.003366
 3552 Fit       0.001890
 3553 Fit      -0.000538
 3554 Fit      -0.003112
 3555 Fit      -0.003116
 3556 Fit      -0.000371
 3557 Fit       0.001837
 3558 Fit      -0.000357
 3559 Fit      -0.001803
 3560 Fit       0.000688
 3561 Fit       0.008511
 3562 Fit       0.002438
 3563 Fit       0.008878
 3564 Fit       0.002843
 3565 Fit       0.008878
 3566 Fit       0.002843
 3567 Fit       0.008511
 3568 Fit       0.002438
 3569 Fit       0.000688
 3570 Fit      -0.001802
 3571 Fit       0.002427
 3572 Fit       0.004604
 3573 Fit      -0.000956
 3574 Fit       0.003125
 3575 Fit       0.005709
 3576 Fit       0.007309
 3577 Fit       0.008312
 3578 Fit      -0.000377
 3579 Fit       0.003564
 3580 Fit       0.006204
 3581 Fit       0.008008
 3582 Fit       0.009304
 3583 Fit       0.010441
 3584 Fit       0.011895
 3585 Fit      -0.000072
 3586 Fit       0.003970
 3587 Fit       0.006677
 3588 Fit       0.008549
 3589 Fit       0.009925
 3590 Fit       0.011169
 3591 Fit       0.012844
 3592 Fit      -0.000073
 3593 Fit       0.003969
 3594 Fit       0.006677
 3595 Fit       0.008549
 3596 Fit       0.009924
 3597 Fit       0.011169
 3598 Fit       0.012845
 3599 Fit      -0.000380
 3600 Fit       0.003562
 3601 Fit       0.006203
 3602 Fit       0.008007
 3603 Fit       0.009304
 3604 Fit       0.010441
 3605 Fit       0.011897
 3606 Fit      -0.000960
 3607 Fit       0.003123
 3608 Fit       0.005707
 3609 Fit       0.007308
 3610 Fit       0.008312
 3611 Fit       0.002424
 3612 Fit       0.004602
 3613 Fit       0.011132
 3614 Fit       0.012483
 3615 Fit       0.013213
 3616 Fit       0.014382
 3617 Fit       0.015353
 3618 Fit       0.016339
 3619 Fit       0.017568
 3620 Fit       0.014218
 3621 Fit       0.014969
 3622 Fit       0.015822
 3623 Fit       0.016695
 3624 Fit       0.017725
 3625 Fit       0.019365
 3626 Fit       0.015359
 3627 Fit       0.015697
 3628 Fit       0.016401
 3629 Fit       0.017225
 3630 Fit       0.018220
 3631 Fit       0.019794
 3632 Fit       0.015359
 3633 Fit       0.015697
 3634 Fit       0.016402
 3635 Fit       0.017226
 3636 Fit       0.018221
 3637 Fit       0.019795
 3638 Fit       0.014218
 3639 Fit       0.014971
 3640 Fit       0.015824
 3641 Fit       0.016697
 3642 Fit       0.017728
 3643 Fit       0.019366
 3644 Fit       0.013217
 3645 Fit       0.014386
 3646 Fit       0.015357
 3647 Fit       0.016343
 3648 Fit       0.017571
 3649 Fit       0.011138
 3650 Fit       0.012489
 3651 Fit       0.017571
 3652 Fit       0.014576
 3653 Fit       0.018589
 3654 Fit       0.022174
 3655 Fit       0.017361
 3656 Fit       0.022176
 3657 Fit       0.017362
 3658 Fit       0.018593
 3659 Fit       0.017580
 3660 Fit       0.014580
 -----------------------------------------------------------------
 Leave Link  602 at Thu Jan 16 22:39:24 2014, MaxMem=   235929600 cpu:         1.3

 Test job not archived.
 1\1\GINC-G54\SP\RHF\Gen\C8H9Br1N4\KOLAR\16-Jan-2014\0\\# hf/gen pop=mk
  iop(6/33=2,6/41=5,6/42=2)\\na resp\\0,1\N,0,2.455721,1.813925,-0.0000
 2\C,0,1.316595,1.128189,-0.000055\N,0,0.2058,1.956628,-0.000094\C,0,0.
 687926,3.243689,0.000067\C,0,2.067306,3.120082,0.000102\C,0,-1.080593,
 1.432348,-0.000052\C,0,-1.166502,0.071281,-0.000023\N,0,-0.137384,-0.7
 96521,0.000017\C,0,1.090216,-0.289219,0.00001\N,0,2.168684,-1.101057,-
 0.000019\C,0,2.083752,-2.555085,0.000007\C,0,3.479275,-3.170415,-0.000
 003\Br,0,-2.92075,-0.706269,0.000018\H,0,4.046674,-2.870257,0.888751\H
 ,0,3.408579,-4.262366,0.000023\H,0,4.046648,-2.870297,-0.888788\H,0,1.
 514142,-2.883886,0.878508\H,0,1.514114,-2.883923,-0.878462\H,0,3.07157
 ,-0.645166,-0.000043\H,0,2.792271,3.923479,0.000301\H,0,0.031141,4.100
 024,-0.000329\H,0,-1.916475,2.115766,-0.00008\\Version=AM64L-G09RevD.0
 1\State=1-A\HF=-3095.5526005\RMSD=4.466e-09\Dipole=0.5447986,0.6012337
 ,-0.0000839\Quadrupole=-2.5201413,7.7467302,-5.2265889,-7.0159933,0.00
 05647,-0.0006144\PG=C01 [X(C8H9Br1N4)]\\@


 IN NATURE THERE ARE NEITHER REWARDS OR
 PUNISHMENTS -- THERE ARE CONSEQUENCES.

                            -- ROBERT GREEN INGERSOLL
 Job cpu time:       0 days  0 hours  2 minutes 37.5 seconds.
 File lengths (MBytes):  RWF=     27 Int=      0 D2E=      0 Chk=      3 Scr=      1
 Normal termination of Gaussian 09 at Thu Jan 16 22:39:24 2014.
157.11user 0.36system 2:37.74elapsed 99%CPU (0avgtext+0avgdata 603392maxresident)k
8inputs+113424outputs (0major+170964minor)pagefaults 0swaps
