Linux g30 2.6.38.6-client #1 SMP Tue Jun 12 11:27:21 CEST 2012 x86_64 GNU/Linux
Thu Jan 16 21:46:46 CET 2014

 Entering Gaussian System, Link 0=/usr/local/programs/common/gaussian/gaussian09_d01/arch/amd64-pgi_10.4.0-acml/g09/g09
 Initial command:
 /usr/local/programs/common/gaussian/gaussian09_d01/arch/amd64-pgi_10.4.0-acml/g09/l1.exe "/scratch/kolar/g09_17329/Gau-3001.inp" -scrdir="/scratch/kolar/g09_17329/"
 Entering Link 1 = /usr/local/programs/common/gaussian/gaussian09_d01/arch/amd64-pgi_10.4.0-acml/g09/l1.exe PID=      3004.
  
 Copyright (c) 1988,1990,1992,1993,1995,1998,2003,2009,2013,
            Gaussian, Inc.  All Rights Reserved.
  
 This is part of the Gaussian(R) 09 program.  It is based on
 the Gaussian(R) 03 system (copyright 2003, Gaussian, Inc.),
 the Gaussian(R) 98 system (copyright 1998, Gaussian, Inc.),
 the Gaussian(R) 94 system (copyright 1995, Gaussian, Inc.),
 the Gaussian 92(TM) system (copyright 1992, Gaussian, Inc.),
 the Gaussian 90(TM) system (copyright 1990, Gaussian, Inc.),
 the Gaussian 88(TM) system (copyright 1988, Gaussian, Inc.),
 the Gaussian 86(TM) system (copyright 1986, Carnegie Mellon
 University), and the Gaussian 82(TM) system (copyright 1983,
 Carnegie Mellon University). Gaussian is a federally registered
 trademark of Gaussian, Inc.
  
 This software contains proprietary and confidential information,
 including trade secrets, belonging to Gaussian, Inc.
  
 This software is provided under written license and may be
 used, copied, transmitted, or stored only in accord with that
 written license.
  
 The following legend is applicable only to US Government
 contracts under FAR:
  
                    RESTRICTED RIGHTS LEGEND
  
 Use, reproduction and disclosure by the US Government is
 subject to restrictions as set forth in subparagraphs (a)
 and (c) of the Commercial Computer Software - Restricted
 Rights clause in FAR 52.227-19.
  
 Gaussian, Inc.
 340 Quinnipiac St., Bldg. 40, Wallingford CT 06492
  
  
 ---------------------------------------------------------------
 Warning -- This program may not be used in any manner that
 competes with the business of Gaussian, Inc. or will provide
 assistance to any competitor of Gaussian, Inc.  The licensee
 of this program is prohibited from giving any competitor of
 Gaussian, Inc. access to this program.  By using this program,
 the user acknowledges that Gaussian, Inc. is engaged in the
 business of creating and licensing software in the field of
 computational chemistry and represents and warrants to the
 licensee that it is not a competitor of Gaussian, Inc. and that
 it will not use this program in any manner prohibited above.
 ---------------------------------------------------------------
  

 Cite this work as:
 Gaussian 09, Revision D.01,
 M. J. Frisch, G. W. Trucks, H. B. Schlegel, G. E. Scuseria, 
 M. A. Robb, J. R. Cheeseman, G. Scalmani, V. Barone, B. Mennucci, 
 G. A. Petersson, H. Nakatsuji, M. Caricato, X. Li, H. P. Hratchian, 
 A. F. Izmaylov, J. Bloino, G. Zheng, J. L. Sonnenberg, M. Hada, 
 M. Ehara, K. Toyota, R. Fukuda, J. Hasegawa, M. Ishida, T. Nakajima, 
 Y. Honda, O. Kitao, H. Nakai, T. Vreven, J. A. Montgomery, Jr., 
 J. E. Peralta, F. Ogliaro, M. Bearpark, J. J. Heyd, E. Brothers, 
 K. N. Kudin, V. N. Staroverov, T. Keith, R. Kobayashi, J. Normand, 
 K. Raghavachari, A. Rendell, J. C. Burant, S. S. Iyengar, J. Tomasi, 
 M. Cossi, N. Rega, J. M. Millam, M. Klene, J. E. Knox, J. B. Cross, 
 V. Bakken, C. Adamo, J. Jaramillo, R. Gomperts, R. E. Stratmann, 
 O. Yazyev, A. J. Austin, R. Cammi, C. Pomelli, J. W. Ochterski, 
 R. L. Martin, K. Morokuma, V. G. Zakrzewski, G. A. Voth, 
 P. Salvador, J. J. Dannenberg, S. Dapprich, A. D. Daniels, 
 O. Farkas, J. B. Foresman, J. V. Ortiz, J. Cioslowski, 
 and D. J. Fox, Gaussian, Inc., Wallingford CT, 2013.
 
 ******************************************
 Gaussian 09:  AM64L-G09RevD.01 24-Apr-2013
                16-Jan-2014 
 ******************************************
 %mem=1800mb
 -----------------------------------------
 # hf/gen pop=mk iop(6/33=2,6/41=5,6/42=2)
 -----------------------------------------
 1/38=1/1;
 2/12=2,17=6,18=5,40=1/2;
 3/5=7,11=9,16=1,25=1,30=1/1,2,3;
 4//1;
 5/5=2,38=5/2;
 6/7=2,8=2,9=2,10=2,15=8,20=1,28=1,33=2,41=5,42=2/1,2;
 99/5=1,9=1/99;
 -------
 na resp
 -------
 Symbolic Z-matrix:
 Charge =  0 Multiplicity = 1
 6                     0.99309  -0.95284   0.11515 
 6                     2.376    -1.14788   0.18069 
 6                     3.23684  -0.07109   0.00305 
 6                     2.73385   1.20965  -0.23996 
 6                     1.36022   1.40432  -0.30471 
 6                     0.47923   0.32625  -0.12877 
 8                    -0.84689   0.62846  -0.21844 
 6                    -1.79697  -0.41359  -0.0378 
 6                    -3.18636   0.19417  -0.13325 
 1                    -3.21871   0.84631  -1.02153 
 6                    -4.25688  -0.88634  -0.295 
 8                    -5.50747  -0.19893  -0.26256 
 8                    -3.43199   0.93832   1.04624 
 17                    4.97897  -0.32122   0.08467 
 1                     0.33625  -1.80309   0.25702 
 1                     2.77578  -2.13851   0.37007 
 1                     3.41325   2.0444   -0.37586 
 1                     0.94408   2.38936  -0.48978 
 1                    -1.67347  -0.87978   0.94895 
 1                    -1.66396  -1.18268  -0.81396 
 1                    -4.18069  -1.60631   0.53393 
 1                    -4.12339  -1.42701  -1.24421 
 1                    -6.21186  -0.84427  -0.10561 
 1                    -4.38291   1.14358   1.0232 
 
                          Input orientation:                          
 ---------------------------------------------------------------------
 Center     Atomic      Atomic             Coordinates (Angstroms)
 Number     Number       Type             X           Y           Z
 ---------------------------------------------------------------------
      1          6           0        0.993085   -0.952843    0.115147
      2          6           0        2.375999   -1.147879    0.180692
      3          6           0        3.236838   -0.071088    0.003045
      4          6           0        2.733853    1.209646   -0.239962
      5          6           0        1.360222    1.404319   -0.304705
      6          6           0        0.479232    0.326254   -0.128766
      7          8           0       -0.846894    0.628456   -0.218438
      8          6           0       -1.796973   -0.413586   -0.037802
      9          6           0       -3.186358    0.194167   -0.133245
     10          1           0       -3.218714    0.846309   -1.021529
     11          6           0       -4.256884   -0.886342   -0.295004
     12          8           0       -5.507469   -0.198929   -0.262561
     13          8           0       -3.431993    0.938317    1.046240
     14         17           0        4.978965   -0.321215    0.084674
     15          1           0        0.336245   -1.803089    0.257018
     16          1           0        2.775776   -2.138506    0.370069
     17          1           0        3.413247    2.044401   -0.375860
     18          1           0        0.944079    2.389362   -0.489781
     19          1           0       -1.673467   -0.879779    0.948946
     20          1           0       -1.663962   -1.182678   -0.813957
     21          1           0       -4.180692   -1.606314    0.533931
     22          1           0       -4.123391   -1.427007   -1.244205
     23          1           0       -6.211861   -0.844266   -0.105612
     24          1           0       -4.382906    1.143578    1.023198
 ---------------------------------------------------------------------
                    Distance matrix (angstroms):
                    1          2          3          4          5
     1  C    0.000000
     2  C    1.398137   0.000000
     3  C    2.413397   1.389993   0.000000
     4  C    2.798702   2.421349   1.397257   0.000000
     5  C    2.422246   2.789467   2.406912   1.388867   0.000000
     6  C    1.399867   2.422098   2.789202   2.424059   1.403325
     7  O    2.448940   3.701582   4.149130   3.627671   2.341104
     8  C    2.845807   4.242714   5.045615   4.817067   3.652930
     9  C    4.341091   5.730572   6.430115   6.007619   4.707999
    10  H    4.718923   6.059945   6.600418   6.014642   4.668176
    11  C    5.266386   6.655060   7.543828   7.298397   6.066226
    12  O    6.555017   7.952738   8.749274   8.360860   7.052472
    13  O    4.901503   6.231706   6.824988   6.304411   5.000753
    14  Cl   4.035731   2.732769   1.761883   2.736686   4.027950
    15  H    1.083736   2.143764   3.387886   3.882278   3.413433
    16  H    2.156100   1.084909   2.149768   3.403530   3.874367
    17  H    3.883522   3.402394   2.156382   1.084832   2.151669
    18  H    3.396862   3.874533   3.399034   2.158108   1.085236
    19  H    2.794827   4.130408   5.065551   5.020326   3.999002
    20  H    2.824174   4.160748   5.091264   5.039193   4.012179
    21  H    5.231670   6.582183   7.593320   7.505963   6.361521
    22  H    5.315167   6.659603   7.587300   7.415001   6.242522
    23  H    7.209145   8.597993   9.480903   9.179456   7.901406
    24  H    5.841303   7.186333   7.783099   7.228291   5.900409
                    6          7          8          9         10
     6  C    0.000000
     7  O    1.363076   0.000000
     8  C    2.395151   1.421665   0.000000
     9  C    3.667972   2.380957   1.519495   0.000000
    10  H    3.839569   2.513552   2.139253   1.102445   0.000000
    11  C    4.891709   3.732092   2.518097   1.529605   2.146559
    12  O    6.011182   4.733653   3.723490   2.357711   2.628109
    13  O    4.129521   2.894505   2.382452   1.416079   2.080774
    14  Cl   4.551084   5.910532   6.777674   8.184474   8.353965
    15  H    2.168727   2.745594   2.562861   4.068178   4.614296
    16  H    3.405583   4.596320   4.904257   6.421972   6.839560
    17  H    3.409036   4.492047   5.770821   6.858354   6.770171
    18  H    2.145421   2.526262   3.946412   4.691110   4.471310
    19  H    2.692599   2.078649   1.098299   2.147868   3.041371
    20  H    2.709178   2.074235   1.100732   2.162582   2.564591
    21  H    5.088111   4.083438   2.726095   2.162303   3.059447
    22  H    5.049977   4.001570   2.809742   2.177262   2.456825
    23  H    6.792745   5.564576   4.436363   3.198871   3.557510
    24  H    5.063144   3.782908   3.199614   1.915847   2.371628
                   11         12         13         14         15
    11  C    0.000000
    12  O    1.427428   0.000000
    13  O    2.410137   2.704420   0.000000
    14  Cl   9.260909  10.492894   8.558928   0.000000
    15  H    4.716141   6.082128   4.726288   4.876526   0.000000
    16  H    7.174158   8.530787   6.961354   2.870198   2.465075
    17  H    8.211376   9.199160   7.078354   2.873970   4.967057
    18  H    6.149650   6.955095   4.859516   4.894643   4.301606
    19  H    2.867315   4.078097   2.531275   6.731553   2.317371
    20  H    2.660897   4.005539   3.329397   6.758560   2.352175
    21  H    1.100590   2.091762   2.701510   9.260271   4.529693
    22  H    1.100510   2.094629   3.364361   9.265073   4.720536
    23  H    1.964580   0.968122   3.497432  11.204659   6.627860
    24  H    2.423657   2.172589   0.973087   9.522136   5.616072
                   16         17         18         19         20
    16  H    0.000000
    17  H    4.296451   0.000000
    18  H    4.959440   2.495750   0.000000
    19  H    4.659963   6.015031   4.428179   0.000000
    20  H    4.693272   6.031917   4.434686   1.788761   0.000000
    21  H    6.978720   8.474866   6.578502   2.643155   2.886208
    22  H    7.121139   8.342998   6.388512   3.333391   2.508705
    23  H    9.092797  10.052867   7.862023   4.659439   4.615156
    24  H    7.902239   7.971753   5.676077   3.382388   4.022345
                   21         22         23         24
    21  H    0.000000
    22  H    1.788072   0.000000
    23  H    2.261721   2.449018   0.000000
    24  H    2.800389   3.437495   2.927595   0.000000
 Stoichiometry    C9H11ClO3
 Framework group  C1[X(C9H11ClO3)]
 Deg. of freedom    66
 Full point group                 C1      NOp   1
 Largest Abelian subgroup         C1      NOp   1
 Largest concise Abelian subgroup C1      NOp   1
                         Standard orientation:                         
 ---------------------------------------------------------------------
 Center     Atomic      Atomic             Coordinates (Angstroms)
 Number     Number       Type             X           Y           Z
 ---------------------------------------------------------------------
      1          6           0        0.993085   -0.952843    0.115147
      2          6           0        2.375999   -1.147879    0.180692
      3          6           0        3.236838   -0.071088    0.003045
      4          6           0        2.733853    1.209646   -0.239962
      5          6           0        1.360222    1.404319   -0.304705
      6          6           0        0.479232    0.326254   -0.128766
      7          8           0       -0.846894    0.628456   -0.218438
      8          6           0       -1.796973   -0.413586   -0.037802
      9          6           0       -3.186358    0.194167   -0.133245
     10          1           0       -3.218714    0.846309   -1.021529
     11          6           0       -4.256884   -0.886342   -0.295004
     12          8           0       -5.507469   -0.198929   -0.262561
     13          8           0       -3.431993    0.938317    1.046240
     14         17           0        4.978965   -0.321215    0.084674
     15          1           0        0.336245   -1.803089    0.257018
     16          1           0        2.775776   -2.138506    0.370069
     17          1           0        3.413247    2.044401   -0.375860
     18          1           0        0.944079    2.389362   -0.489781
     19          1           0       -1.673467   -0.879779    0.948946
     20          1           0       -1.663962   -1.182678   -0.813957
     21          1           0       -4.180692   -1.606314    0.533931
     22          1           0       -4.123391   -1.427007   -1.244205
     23          1           0       -6.211861   -0.844266   -0.105612
     24          1           0       -4.382906    1.143578    1.023198
 ---------------------------------------------------------------------
 Rotational constants (GHZ):      3.1065781      0.2099960      0.2013309
 General basis read from cards:  (5D, 7F)
 There are   221 symmetry adapted cartesian basis functions of A   symmetry.
 There are   208 symmetry adapted basis functions of A   symmetry.
   208 basis functions,   432 primitive gaussians,   221 cartesian basis functions
    53 alpha electrons       53 beta electrons
       nuclear repulsion energy       837.6584499409 Hartrees.
 NAtoms=   24 NActive=   24 NUniq=   24 SFac= 1.00D+00 NAtFMM=   60 NAOKFM=F Big=F
 Integral buffers will be    131072 words long.
 Raffenetti 1 integral format.
 Two-electron integral symmetry is turned on.
 One-electron integrals computed using PRISM.
 NBasis=   208 RedAO= T EigKep=  4.83D-04  NBF=   208
 NBsUse=   208 1.00D-06 EigRej= -1.00D+00 NBFU=   208
 ExpMin= 1.43D-01 ExpMax= 2.52D+04 ExpMxC= 3.78D+03 IAcc=1 IRadAn=         1 AccDes= 0.00D+00
 Harris functional with IExCor=  205 and IRadAn=       1 diagonalized for initial guess.
 HarFok:  IExCor=  205 AccDes= 0.00D+00 IRadAn=         1 IDoV= 1 UseB2=F ITyADJ=14
 ICtDFT=  3500011 ScaDFX=  1.000000  1.000000  1.000000  1.000000
 FoFCou: FMM=F IPFlag=           0 FMFlag=      100000 FMFlg1=           0
         NFxFlg=           0 DoJE=T BraDBF=F KetDBF=T FulRan=T
         wScrn=  0.000000 ICntrl=     500 IOpCl=  0 I1Cent=   200000004 NGrid=           0
         NMat0=    1 NMatS0=      1 NMatT0=    0 NMatD0=    1 NMtDS0=    0 NMtDT0=    0
 Petite list used in FoFCou.
 Requested convergence on RMS density matrix=1.00D-08 within 128 cycles.
 Requested convergence on MAX density matrix=1.00D-06.
 Requested convergence on             energy=1.00D-06.
 No special actions if energy rises.
 Integral accuracy reduced to 1.0D-05 until final iterations.
 Initial convergence to 1.0D-05 achieved.  Increase integral accuracy.
 SCF Done:  E(RHF) =  -1031.24565691     A.U. after   15 cycles
            NFock= 15  Conv=0.55D-08     -V/T= 2.0005

 **********************************************************************

            Population analysis using the SCF density.

 **********************************************************************

 Orbital symmetries:
 BldTbl:  Degeneracy threshold= 1.00D-02
       Occupied  (A) (A) (A) (A) (A) (A) (A) (A) (A) (A) (A) (A)
                 (A) (A) (A) (A) (A) (A) (A) (A) (A) (A) (A) (A)
                 (A) (A) (A) (A) (A) (A) (A) (A) (A) (A) (A) (A)
                 (A) (A) (A) (A) (A) (A) (A) (A) (A) (A) (A) (A)
                 (A) (A) (A) (A) (A)
       Virtual   (A) (A) (A) (A) (A) (A) (A) (A) (A) (A) (A) (A)
                 (A) (A) (A) (A) (A) (A) (A) (A) (A) (A) (A) (A)
                 (A) (A) (A) (A) (A) (A) (A) (A) (A) (A) (A) (A)
                 (A) (A) (A) (A) (A) (A) (A) (A) (A) (A) (A) (A)
                 (A) (A) (A) (A) (A) (A) (A) (A) (A) (A) (A) (A)
                 (A) (A) (A) (A) (A) (A) (A) (A) (A) (A) (A) (A)
                 (A) (A) (A) (A) (A) (A) (A) (A) (A) (A) (A) (A)
                 (A) (A) (A) (A) (A) (A) (A) (A) (A) (A) (A) (A)
                 (A) (A) (A) (A) (A) (A) (A) (A) (A) (A) (A) (A)
                 (A) (A) (A) (A) (A) (A) (A) (A) (A) (A) (A) (A)
                 (A) (A) (A) (A) (A) (A) (A) (A) (A) (A) (A) (A)
                 (A) (A) (A) (A) (A) (A) (A) (A) (A) (A) (A) (A)
                 (A) (A) (A) (A) (A) (A) (A) (A) (A) (A) (A)
 The electronic state is 1-A.
 Alpha  occ. eigenvalues -- -104.81367 -20.59305 -20.58455 -20.55497 -11.31106
 Alpha  occ. eigenvalues --  -11.29534 -11.29532 -11.29388 -11.28886 -11.25399
 Alpha  occ. eigenvalues --  -11.25199 -11.24357 -11.23812 -10.55199  -8.02057
 Alpha  occ. eigenvalues --   -8.01732  -8.01724  -1.41649  -1.38742  -1.35001
 Alpha  occ. eigenvalues --   -1.17942  -1.10896  -1.05415  -1.02963  -0.98617
 Alpha  occ. eigenvalues --   -0.93020  -0.85413  -0.81584  -0.80367  -0.73405
 Alpha  occ. eigenvalues --   -0.72851  -0.70183  -0.66911  -0.66244  -0.64976
 Alpha  occ. eigenvalues --   -0.63596  -0.62120  -0.60432  -0.59459  -0.57609
 Alpha  occ. eigenvalues --   -0.54668  -0.54049  -0.53817  -0.52269  -0.50500
 Alpha  occ. eigenvalues --   -0.49913  -0.48590  -0.46987  -0.44703  -0.44383
 Alpha  occ. eigenvalues --   -0.43927  -0.34962  -0.30936
 Alpha virt. eigenvalues --    0.12842   0.14573   0.19683   0.20168   0.22925
 Alpha virt. eigenvalues --    0.26023   0.26898   0.27171   0.29166   0.29920
 Alpha virt. eigenvalues --    0.31240   0.31854   0.32289   0.33870   0.35278
 Alpha virt. eigenvalues --    0.35892   0.38223   0.39864   0.41978   0.43611
 Alpha virt. eigenvalues --    0.45551   0.46763   0.49500   0.51437   0.53105
 Alpha virt. eigenvalues --    0.61165   0.61678   0.63129   0.64391   0.69008
 Alpha virt. eigenvalues --    0.71205   0.74378   0.75060   0.76814   0.78256
 Alpha virt. eigenvalues --    0.80116   0.80861   0.81230   0.81733   0.82054
 Alpha virt. eigenvalues --    0.83188   0.83734   0.84989   0.87239   0.88095
 Alpha virt. eigenvalues --    0.89826   0.90412   0.92273   0.95863   0.97500
 Alpha virt. eigenvalues --    0.99966   1.01960   1.03763   1.07804   1.08062
 Alpha virt. eigenvalues --    1.08800   1.10033   1.11672   1.11983   1.12941
 Alpha virt. eigenvalues --    1.13635   1.15432   1.15660   1.16007   1.16357
 Alpha virt. eigenvalues --    1.18442   1.19719   1.19808   1.20826   1.22237
 Alpha virt. eigenvalues --    1.25438   1.27235   1.28383   1.29562   1.30899
 Alpha virt. eigenvalues --    1.32896   1.35810   1.38339   1.39158   1.41077
 Alpha virt. eigenvalues --    1.42384   1.46778   1.47531   1.48711   1.50244
 Alpha virt. eigenvalues --    1.54227   1.61332   1.62036   1.62540   1.63610
 Alpha virt. eigenvalues --    1.65555   1.67571   1.70506   1.71062   1.74426
 Alpha virt. eigenvalues --    1.75246   1.77508   1.78008   1.83655   1.92675
 Alpha virt. eigenvalues --    1.97729   1.98772   2.01333   2.03545   2.05535
 Alpha virt. eigenvalues --    2.07970   2.09371   2.12865   2.15148   2.18244
 Alpha virt. eigenvalues --    2.19788   2.22750   2.25313   2.25690   2.27980
 Alpha virt. eigenvalues --    2.29507   2.31766   2.35735   2.37389   2.39993
 Alpha virt. eigenvalues --    2.40397   2.41009   2.43843   2.45692   2.45826
 Alpha virt. eigenvalues --    2.46901   2.51361   2.53473   2.56381   2.58134
 Alpha virt. eigenvalues --    2.62151   2.64044   2.67871   2.70193   2.75762
 Alpha virt. eigenvalues --    2.80488   2.82616   2.85726   2.87877   2.90535
 Alpha virt. eigenvalues --    2.93960   2.94753   2.99045   2.99872   3.03501
 Alpha virt. eigenvalues --    3.07645   3.10376   3.11748   3.15166   3.22749
 Alpha virt. eigenvalues --    3.25411   3.28797   3.40435   3.57609   3.77952
          Condensed to atoms (all electrons):
               1          2          3          4          5          6
     1  C    5.083891   0.495730  -0.044327  -0.030281  -0.051905   0.528868
     2  C    0.495730   4.933938   0.541199  -0.045982  -0.031250  -0.022865
     3  C   -0.044327   0.541199   5.061098   0.519660  -0.045529  -0.029909
     4  C   -0.030281  -0.045982   0.519660   4.927581   0.537721  -0.037056
     5  C   -0.051905  -0.031250  -0.045529   0.537721   4.958075   0.573105
     6  C    0.528868  -0.022865  -0.029909  -0.037056   0.573105   4.372927
     7  O   -0.054258   0.003550  -0.000025   0.002218  -0.047991   0.242603
     8  C   -0.008032  -0.000119   0.000017  -0.000068   0.002274  -0.042519
     9  C    0.000415   0.000005   0.000000   0.000002  -0.000039   0.001488
    10  H    0.000001   0.000000   0.000000   0.000000  -0.000036  -0.000067
    11  C   -0.000009   0.000000   0.000000   0.000000   0.000001   0.000019
    12  O    0.000000   0.000000   0.000000   0.000000   0.000000   0.000000
    13  O   -0.000013   0.000000   0.000000   0.000000  -0.000003   0.000113
    14  Cl   0.002426  -0.063933   0.211671  -0.062949   0.002152   0.000300
    15  H    0.382451  -0.028205   0.002169   0.000187   0.002080  -0.029829
    16  H   -0.024788   0.380740  -0.027235   0.001985   0.000300   0.000837
    17  H    0.000065   0.002251  -0.029743   0.381345  -0.024609   0.001799
    18  H    0.003903  -0.000172   0.002537  -0.029194   0.375987  -0.027428
    19  H    0.000777  -0.000223  -0.000003  -0.000006   0.000000  -0.001500
    20  H    0.000909  -0.000174  -0.000005  -0.000004   0.000092  -0.000759
    21  H   -0.000002   0.000000   0.000000   0.000000   0.000000   0.000000
    22  H    0.000001   0.000000   0.000000   0.000000   0.000000  -0.000009
    23  H    0.000000   0.000000   0.000000   0.000000   0.000000   0.000000
    24  H    0.000000   0.000000   0.000000   0.000000   0.000000  -0.000003
               7          8          9         10         11         12
     1  C   -0.054258  -0.008032   0.000415   0.000001  -0.000009   0.000000
     2  C    0.003550  -0.000119   0.000005   0.000000   0.000000   0.000000
     3  C   -0.000025   0.000017   0.000000   0.000000   0.000000   0.000000
     4  C    0.002218  -0.000068   0.000002   0.000000   0.000000   0.000000
     5  C   -0.047991   0.002274  -0.000039  -0.000036   0.000001   0.000000
     6  C    0.242603  -0.042519   0.001488  -0.000067   0.000019   0.000000
     7  O    8.475945   0.200053  -0.039841   0.000981   0.001786  -0.000007
     8  C    0.200053   4.867180   0.354384  -0.048960  -0.054303   0.001742
     9  C   -0.039841   0.354384   4.786486   0.400261   0.350647  -0.049917
    10  H    0.000981  -0.048960   0.400261   0.544467  -0.048871   0.000084
    11  C    0.001786  -0.054303   0.350647  -0.048871   4.860446   0.200551
    12  O   -0.000007   0.001742  -0.049917   0.000084   0.200551   8.443337
    13  O    0.002902  -0.053303   0.212701  -0.038139  -0.045781  -0.004494
    14  Cl   0.000001   0.000000   0.000000   0.000000   0.000000   0.000000
    15  H   -0.004665   0.001900   0.000028  -0.000003   0.000013   0.000000
    16  H   -0.000028  -0.000009   0.000000   0.000000   0.000000   0.000000
    17  H   -0.000040   0.000001   0.000000   0.000000   0.000000   0.000000
    18  H    0.000772  -0.000132  -0.000023   0.000010   0.000000   0.000000
    19  H   -0.036422   0.376842  -0.027621   0.004786  -0.002809  -0.000082
    20  H   -0.039374   0.389815  -0.045609  -0.000127   0.000840  -0.000002
    21  H   -0.000034  -0.002246  -0.037985   0.005005   0.386748  -0.036464
    22  H   -0.000090  -0.000141  -0.042221  -0.000893   0.383925  -0.036655
    23  H    0.000001  -0.000148   0.005236  -0.000225  -0.026163   0.262084
    24  H   -0.000127   0.006332  -0.035225  -0.000900  -0.010114   0.017316
              13         14         15         16         17         18
     1  C   -0.000013   0.002426   0.382451  -0.024788   0.000065   0.003903
     2  C    0.000000  -0.063933  -0.028205   0.380740   0.002251  -0.000172
     3  C    0.000000   0.211671   0.002169  -0.027235  -0.029743   0.002537
     4  C    0.000000  -0.062949   0.000187   0.001985   0.381345  -0.029194
     5  C   -0.000003   0.002152   0.002080   0.000300  -0.024609   0.375987
     6  C    0.000113   0.000300  -0.029829   0.000837   0.001799  -0.027428
     7  O    0.002902   0.000001  -0.004665  -0.000028  -0.000040   0.000772
     8  C   -0.053303   0.000000   0.001900  -0.000009   0.000001  -0.000132
     9  C    0.212701   0.000000   0.000028   0.000000   0.000000  -0.000023
    10  H   -0.038139   0.000000  -0.000003   0.000000   0.000000   0.000010
    11  C   -0.045781   0.000000   0.000013   0.000000   0.000000   0.000000
    12  O   -0.004494   0.000000   0.000000   0.000000   0.000000   0.000000
    13  O    8.453085   0.000000  -0.000002   0.000000   0.000000   0.000003
    14  Cl   0.000000  16.923634  -0.000088   0.000566   0.000443  -0.000075
    15  H   -0.000002  -0.000088   0.457858  -0.001475   0.000007  -0.000093
    16  H    0.000000   0.000566  -0.001475   0.436598  -0.000100   0.000008
    17  H    0.000000   0.000443   0.000007  -0.000100   0.435507  -0.001999
    18  H    0.000003  -0.000075  -0.000093   0.000008  -0.001999   0.443089
    19  H    0.000923   0.000000   0.000118  -0.000001   0.000000   0.000019
    20  H    0.002698   0.000000   0.000013   0.000000   0.000000   0.000016
    21  H    0.000707   0.000000   0.000001   0.000000   0.000000   0.000000
    22  H    0.003127   0.000000  -0.000003   0.000000   0.000000   0.000000
    23  H    0.000064   0.000000   0.000000   0.000000   0.000000   0.000000
    24  H    0.260422   0.000000   0.000000   0.000000   0.000000   0.000000
              19         20         21         22         23         24
     1  C    0.000777   0.000909  -0.000002   0.000001   0.000000   0.000000
     2  C   -0.000223  -0.000174   0.000000   0.000000   0.000000   0.000000
     3  C   -0.000003  -0.000005   0.000000   0.000000   0.000000   0.000000
     4  C   -0.000006  -0.000004   0.000000   0.000000   0.000000   0.000000
     5  C    0.000000   0.000092   0.000000   0.000000   0.000000   0.000000
     6  C   -0.001500  -0.000759   0.000000  -0.000009   0.000000  -0.000003
     7  O   -0.036422  -0.039374  -0.000034  -0.000090   0.000001  -0.000127
     8  C    0.376842   0.389815  -0.002246  -0.000141  -0.000148   0.006332
     9  C   -0.027621  -0.045609  -0.037985  -0.042221   0.005236  -0.035225
    10  H    0.004786  -0.000127   0.005005  -0.000893  -0.000225  -0.000900
    11  C   -0.002809   0.000840   0.386748   0.383925  -0.026163  -0.010114
    12  O   -0.000082  -0.000002  -0.036464  -0.036655   0.262084   0.017316
    13  O    0.000923   0.002698   0.000707   0.003127   0.000064   0.260422
    14  Cl   0.000000   0.000000   0.000000   0.000000   0.000000   0.000000
    15  H    0.000118   0.000013   0.000001  -0.000003   0.000000   0.000000
    16  H   -0.000001   0.000000   0.000000   0.000000   0.000000   0.000000
    17  H    0.000000   0.000000   0.000000   0.000000   0.000000   0.000000
    18  H    0.000019   0.000016   0.000000   0.000000   0.000000   0.000000
    19  H    0.543276  -0.041322   0.002325   0.000267   0.000003  -0.000158
    20  H   -0.041322   0.573874   0.000147   0.001711   0.000000  -0.000144
    21  H    0.002325   0.000147   0.570196  -0.040030  -0.005093  -0.000048
    22  H    0.000267   0.001711  -0.040030   0.573337  -0.000918   0.000604
    23  H    0.000003   0.000000  -0.005093  -0.000918   0.303129  -0.000607
    24  H   -0.000158  -0.000144  -0.000048   0.000604  -0.000607   0.286079
 Mulliken charges:
               1
     1  C   -0.285822
     2  C   -0.164488
     3  C   -0.161578
     4  C   -0.165158
     5  C   -0.250425
     6  C    0.469884
     7  O   -0.707910
     8  C    0.009442
     9  C    0.166830
    10  H    0.182628
    11  C    0.003074
    12  O   -0.797493
    13  O   -0.795009
    14  Cl  -0.014145
    15  H    0.217537
    16  H    0.232603
    17  H    0.235072
    18  H    0.232773
    19  H    0.180813
    20  H    0.157406
    21  H    0.156770
    22  H    0.157986
    23  H    0.462639
    24  H    0.476572
 Sum of Mulliken charges =   0.00000
 Mulliken charges with hydrogens summed into heavy atoms:
               1
     1  C   -0.068285
     2  C    0.068115
     3  C   -0.161578
     4  C    0.069913
     5  C   -0.017652
     6  C    0.469884
     7  O   -0.707910
     8  C    0.347661
     9  C    0.349458
    11  C    0.317831
    12  O   -0.334854
    13  O   -0.318437
    14  Cl  -0.014145
 DipInt: DoE/N= T F RetVal/Mat= T F Init=T NMatP=  1 IDeriv=0 Min/MaxMlt=  0  4
 Entering OneElI...
 OneElI was handed   235801937 working-precision words.
 Multipole integrals L=0 to 4 MinM= 0 MaxM= 0.
 Requested accuracy = 0.1000D-12
 PrtBox:  NBox=     1 Levels=  1 BoxLen=   38.94 SMaxX=       21.15
          Shift=           11.738716            4.041191            2.351207
 Box      1 Number                   0 centers from      1 to     75:
 ShPair: Thresh= 1.00D-13 NBox=     1 BxSize= 3.89D+01 RnKept= 2.12D+01
         NSMCal=                 2850 NSMKep=                2334
 PrsmSu:  NPrtUS=   1 ThrOK=F IAlg=1 NPAlg=1 LenDen=           0.
 Prism:   IPart=     0 DynPar=F LinDyn=F Incr=          23.
 PRISM was handed   235585297 working-precision words and  2334 shell-pairs
 IPart=  0 NShTot=        2334 NBatch=          80 AvBLen=        29.2
 PrSmSu:  NxtVal=             24.
 Electronic moments (au):
       -106.00000000         -1.63577340         -1.21989785         -0.32878399
      -4491.89107151       -342.73717253       -129.02432198         10.43711790
          0.17474672         -1.65293185       1575.61238224        -98.64603486
        -46.21791792       -154.95443003       1377.61699420        -71.30143384
        318.46153470        -49.02605357          8.04971121        412.16535335
    -339440.75903654      -3155.21629741       -642.11070593        -49.52693823
      -4767.36224289       -729.89760162        159.83672744        315.12511464
       -123.01504056     -10092.64982629      -5333.46387231       -541.55987161
      -1403.05118272        307.62914793        229.90759307
 Electronic spatial extent (au):  <R**2>=           4963.6526
 DipInt: DoE/N= F T RetVal/Mat= T F Init=T NMatP=  1 IDeriv=0 Min/MaxMlt=  0  4
 Nuclear    moments (au):
        106.00000000          0.00000000          0.00000000          0.00000000
       4433.89035440        286.08993189         63.59638124          0.00000000
         -0.00023835         -0.00001677      -1873.56301378        102.88209932
         47.21843579        137.50888545      -1440.96553132         85.67819154
       -338.63643304         47.72652545         -8.91841002       -417.64408385
     325902.33864536       2050.34708166        201.28540416        917.21086090
       4463.96224079        739.10662595       -180.12515513       -316.54693562
        133.86488504       7683.53289199       2658.82927231        263.88855229
       1414.41253265       -316.54836636       -231.78000837
 Total      moments (au):
          0.00000000         -1.63577340         -1.21989785         -0.32878399
        -58.00071711        -56.64724064        -65.42794075         10.43711790
          0.17450836         -1.65294862       -297.95063154          4.23606445
          1.00051786        -17.44554458        -63.34853713         14.37675770
        -20.17489833         -1.29952812         -0.86869881         -5.47873049
     -13538.42039118      -1104.86921575       -440.82530177        867.68392266
       -303.40000210          9.20902433        -20.28842769         -1.42182099
         10.84984449      -2409.11693430      -2674.63459999       -277.67131933
         11.36134993         -8.91921843         -1.87241530
 Traceless Quadrup. (au):
          2.02458239          3.37805886         -5.40264125         10.43711790
          0.17450836         -1.65294862
 Charge=              0.0000 electrons
 Dipole moment (field-independent basis, Debye):
    X=             -4.1577    Y=             -3.1007    Z=             -0.8357  Tot=              5.2535
 Quadrupole moment (field-independent basis, Debye-Ang):
   XX=            -78.0129   YY=            -76.1925   ZZ=            -88.0028
   XY=             14.0383   XZ=              0.2347   YZ=             -2.2233
 Traceless Quadrupole moment (field-independent basis, Debye-Ang):
   XX=              2.7231   YY=              4.5436   ZZ=             -7.2667
   XY=             14.0383   XZ=              0.2347   YZ=             -2.2233
 Octapole moment (field-independent basis, Debye-Ang**2):
  XXX=           -212.0698  YYY=              3.0151  ZZZ=              0.7121  XYY=            -12.4171
  XXY=            -45.0890  XXZ=             10.2328  XZZ=            -14.3597  YZZ=             -0.9250
  YYZ=             -0.6183  XYZ=             -3.8995
 Hexadecapole moment (field-independent basis, Debye-Ang**3):
 XXXX=          -5099.2180 YYYY=           -416.1467 ZZZZ=           -166.0359 XXXY=            326.8114
 XXXZ=           -114.2750 YYYX=              3.4686 YYYZ=             -7.6416 ZZZX=             -0.5355
 ZZZY=              4.0866 XXYY=           -907.3889 XXZZ=          -1007.3956 YYZZ=           -104.5843
 XXYZ=              4.2792 YYXZ=             -3.3594 ZZXY=             -0.7052
 N-N= 8.376584499409D+02 E-N=-4.110898184357D+03  KE= 1.030722960195D+03
 Entering OneElI...
 OneElI was handed   235831237 working-precision words.
 Calculate electrostatic properties
    NBasis =   208  MinDer = 0  MaxDer = 0
    NGrid  =    24  NMatD  =   1
 Requested accuracy = 0.1000D-12
 PrtBox:  NBox=     1 Levels=  1 BoxLen=   32.45 SMaxX=       21.15
          Shift=           11.738716            4.041191            2.351207
 Box      1 Number                   0 centers from      1 to     75:
 ShPair: Thresh= 1.00D-13 NBox=     1 BxSize= 3.24D+01 RnKept= 1.80D+01
         NSMCal=                 2850 NSMKep=                2113
 PrsmSu:  NPrtUS=   1 ThrOK=F IAlg=1 NPAlg=1 LenDen=           0.
 Prism:   IPart=     0 DynPar=F LinDyn=F Incr=         507.
 PRISM was handed   235633478 working-precision words and  2113 shell-pairs
 IPart=  0 NShTot=       50712 NBatch=        2114 AvBLen=        24.0
 PrSmSu:  NxtVal=            508.
 --------------------------------------------------------
       Center         ----      EFG at Nuclei      ----
                      3XX-RR        3YY-RR        3ZZ-RR
 --------------------------------------------------------
     1   Atom        0.122497      0.078444     -0.200942
     2   Atom        0.181316      0.131266     -0.312582
     3   Atom       -0.308370      0.323266     -0.014896
     4   Atom        0.200670      0.121374     -0.322045
     5   Atom        0.147679      0.094668     -0.242346
     6   Atom       -0.114209      0.358846     -0.244637
     7   Atom       -1.725334      0.110299      1.615035
     8   Atom       -0.073309     -0.123289      0.196598
     9   Atom        0.119682      0.008753     -0.128436
    10   Atom        0.138907     -0.006996     -0.131910
    11   Atom       -0.242224      0.065258      0.176966
    12   Atom       -1.713251     -0.159255      1.872506
    13   Atom       -0.750742      0.988189     -0.237447
    14   Atom       -3.507915      1.731773      1.776142
    15   Atom       -0.028698     -0.136886      0.165584
    16   Atom        0.082982     -0.234476      0.151493
    17   Atom       -0.032254     -0.125293      0.157547
    18   Atom        0.078624     -0.232073      0.153450
    19   Atom        0.125639      0.064533     -0.190172
    20   Atom        0.122969     -0.062822     -0.060146
    21   Atom        0.124560     -0.034564     -0.089996
    22   Atom        0.124349      0.043630     -0.167979
    23   Atom       -0.149844     -0.090245      0.240089
    24   Atom       -0.393569      0.196298      0.197271
 --------------------------------------------------------
                        XY            XZ            YZ
 --------------------------------------------------------
     1   Atom       -0.007484      0.008731     -0.053750
     2   Atom       -0.008192      0.012240     -0.083721
     3   Atom        0.098057     -0.023976     -0.061098
     4   Atom        0.004054      0.010509     -0.082884
     5   Atom       -0.010361      0.010093     -0.063348
     6   Atom        0.096523     -0.013228     -0.111777
     7   Atom       -0.558024      0.029603      0.311461
     8   Atom       -0.293188      0.039753      0.043609
     9   Atom        0.044436      0.065442     -0.216846
    10   Atom        0.010850     -0.008929      0.191092
    11   Atom        0.232353      0.013509      0.000906
    12   Atom       -0.085964      0.382888      0.213966
    13   Atom        0.856230      0.401362     -1.285176
    14   Atom        0.767773     -0.248285      0.025602
    15   Atom       -0.216230      0.035070      0.052286
    16   Atom        0.150132     -0.029176      0.076224
    17   Atom       -0.217385      0.034970      0.047837
    18   Atom        0.154926     -0.030015      0.075078
    19   Atom        0.011824     -0.044813      0.165401
    20   Atom        0.028646      0.037278     -0.207707
    21   Atom        0.021268     -0.018047      0.210427
    22   Atom        0.027098      0.042414     -0.179887
    23   Atom       -0.318011      0.084464      0.078635
    24   Atom        0.147155     -0.008376     -0.024499
 --------------------------------------------------------


 ---------------------------------------------------------------------------------
              Nuclear Quadrupole Coupling Constant in Principal Axis System
 ---------------------------------------------------------------------------------

       Atom             a.u.   MegaHertz   Gauss  10(-4) cm-1        Axes

              Baa    -3.6296   -69.634   -24.847   -23.227  0.9888 -0.1418  0.0461
    14 Cl(35) Bbb     1.7859    34.262    12.226    11.429 -0.0202  0.1789  0.9837
              Bcc     1.8437    35.371    12.621    11.799  0.1478  0.9736 -0.1740
 

 ---------------------------------------------------------------------------------

 No NMR shielding tensors so no spin-rotation constants.
 Leave Link  601 at Thu Jan 16 21:48:43 2014, MaxMem=   235929600 cpu:         0.3
 FitSet:  NAtFit=    24 NAtPot=    24 NAtFrz=     0 MDM=    28 TotChg=   0.00000
 Merz-Kollman atomic radii used.
 Atom Element Radius
    1     6    1.50
    2     6    1.50
    3     6    1.50
    4     6    1.50
    5     6    1.50
    6     6    1.50
    7     8    1.40
    8     6    1.50
    9     6    1.50
   10     1    1.20
   11     6    1.50
   12     8    1.40
   13     8    1.40
   14    17    1.70
   15     1    1.20
   16     1    1.20
   17     1    1.20
   18     1    1.20
   19     1    1.20
   20     1    1.20
   21     1    1.20
   22     1    1.20
   23     1    1.20
   24     1    1.20
 Generate VDW surfaces: Layer= 5 Dens= 2 Start= 1.400 Inc= 0.179

 **********************************************************************

            Electrostatic Properties Using The SCF Density

 **********************************************************************

       Atomic Center    1 is at   0.993085 -0.952843  0.115147
       Atomic Center    2 is at   2.375999 -1.147879  0.180692
       Atomic Center    3 is at   3.236838 -0.071088  0.003045
       Atomic Center    4 is at   2.733853  1.209646 -0.239962
       Atomic Center    5 is at   1.360222  1.404319 -0.304705
       Atomic Center    6 is at   0.479232  0.326254 -0.128766
       Atomic Center    7 is at  -0.846894  0.628456 -0.218438
       Atomic Center    8 is at  -1.796973 -0.413586 -0.037802
       Atomic Center    9 is at  -3.186358  0.194167 -0.133245
       Atomic Center   10 is at  -3.218714  0.846309 -1.021529
       Atomic Center   11 is at  -4.256884 -0.886342 -0.295004
       Atomic Center   12 is at  -5.507469 -0.198929 -0.262561
       Atomic Center   13 is at  -3.431993  0.938317  1.046240
       Atomic Center   14 is at   4.978965 -0.321215  0.084674
       Atomic Center   15 is at   0.336245 -1.803089  0.257018
       Atomic Center   16 is at   2.775776 -2.138506  0.370069
       Atomic Center   17 is at   3.413247  2.044401 -0.375860
       Atomic Center   18 is at   0.944079  2.389362 -0.489781
       Atomic Center   19 is at  -1.673467 -0.879779  0.948946
       Atomic Center   20 is at  -1.663962 -1.182678 -0.813957
       Atomic Center   21 is at  -4.180692 -1.606314  0.533931
       Atomic Center   22 is at  -4.123391 -1.427007 -1.244205
       Atomic Center   23 is at  -6.211861 -0.844266 -0.105612
       Atomic Center   24 is at  -4.382906  1.143578  1.023198
      ESP Fit Center   25 is at   0.993085 -0.952843  2.215147
      ESP Fit Center   26 is at   1.352206 -0.330827  2.088501
      ESP Fit Center   27 is at   0.633964 -0.330827  2.088501
      ESP Fit Center   28 is at   0.274843 -0.952843  2.088501
      ESP Fit Center   29 is at   0.633964 -1.574859  2.088501
      ESP Fit Center   30 is at   1.352206 -1.574859  2.088501
      ESP Fit Center   31 is at   1.553835  0.275027  1.723840
      ESP Fit Center   32 is at   0.109119 -1.972995 -1.493546
      ESP Fit Center   33 is at   0.800981 -2.288957 -1.493546
      ESP Fit Center   34 is at   1.553835 -2.180713 -1.493546
      ESP Fit Center   35 is at   1.711327 -0.952843 -1.858208
      ESP Fit Center   36 is at   0.274843 -0.952843 -1.858208
      ESP Fit Center   37 is at   0.633964 -1.574859 -1.858208
      ESP Fit Center   38 is at   1.352206 -1.574859 -1.858208
      ESP Fit Center   39 is at   0.993085 -0.952843 -1.984853
      ESP Fit Center   40 is at   2.375999 -1.147879  2.280692
      ESP Fit Center   41 is at   3.094241 -1.147879  2.154046
      ESP Fit Center   42 is at   2.735120 -0.525863  2.154046
      ESP Fit Center   43 is at   2.016878 -0.525863  2.154046
      ESP Fit Center   44 is at   1.657757 -1.147879  2.154046
      ESP Fit Center   45 is at   2.016878 -1.769895  2.154046
      ESP Fit Center   46 is at   2.735120 -1.769895  2.154046
      ESP Fit Center   47 is at   1.492033 -2.168031  1.789385
      ESP Fit Center   48 is at   2.183895 -2.483993 -1.428001
      ESP Fit Center   49 is at   2.936749 -2.375749 -1.428001
      ESP Fit Center   50 is at   3.511568 -1.877665 -1.428001
      ESP Fit Center   51 is at   2.016878 -0.525863 -1.792663
      ESP Fit Center   52 is at   2.016878 -1.769895 -1.792663
      ESP Fit Center   53 is at   2.735120 -1.769895 -1.792663
      ESP Fit Center   54 is at   2.375999 -1.147879 -1.919308
      ESP Fit Center   55 is at   3.236838 -0.071088  2.103045
      ESP Fit Center   56 is at   3.595959  0.550928  1.976399
      ESP Fit Center   57 is at   2.877717  0.550928  1.976399
      ESP Fit Center   58 is at   3.797588  1.156782  1.611738
      ESP Fit Center   59 is at   2.518596 -0.071088 -1.970310
      ESP Fit Center   60 is at   2.877717 -0.693104 -1.970310
      ESP Fit Center   61 is at   3.595959 -0.693104 -1.970310
      ESP Fit Center   62 is at   3.236838 -0.071088 -2.096955
      ESP Fit Center   63 is at   2.733853  1.209646  1.860038
      ESP Fit Center   64 is at   3.452095  1.209646  1.733392
      ESP Fit Center   65 is at   3.092974  1.831662  1.733392
      ESP Fit Center   66 is at   2.374732  1.831662  1.733392
      ESP Fit Center   67 is at   2.015611  1.209646  1.733392
      ESP Fit Center   68 is at   3.869422  1.939432  1.368731
      ESP Fit Center   69 is at   3.294603  2.437516  1.368731
      ESP Fit Center   70 is at   2.541749  2.545760  1.368731
      ESP Fit Center   71 is at   2.543752  3.018337  0.810038
      ESP Fit Center   72 is at   4.083707  1.209646 -1.848655
      ESP Fit Center   73 is at   2.541749  2.545760 -1.848655
      ESP Fit Center   74 is at   3.452095  1.209646 -2.213317
      ESP Fit Center   75 is at   3.092974  1.831662 -2.213317
      ESP Fit Center   76 is at   2.374732  1.831662 -2.213317
      ESP Fit Center   77 is at   2.374732  0.587630 -2.213317
      ESP Fit Center   78 is at   3.092974  0.587630 -2.213317
      ESP Fit Center   79 is at   2.733853  1.209646 -2.339962
      ESP Fit Center   80 is at   1.360222  1.404319  1.795295
      ESP Fit Center   81 is at   1.719343  2.026335  1.668649
      ESP Fit Center   82 is at   1.001101  2.026335  1.668649
      ESP Fit Center   83 is at   0.641980  1.404319  1.668649
      ESP Fit Center   84 is at   1.719343  0.782303  1.668649
      ESP Fit Center   85 is at   1.920972  2.632189  1.303988
      ESP Fit Center   86 is at   1.168118  2.740433  1.303988
      ESP Fit Center   87 is at   0.476256  2.424471  1.303988
      ESP Fit Center   88 is at   1.922217  3.133961  0.745295
      ESP Fit Center   89 is at   2.282052  3.255603  0.059956
      ESP Fit Center   90 is at   1.920972  2.632189 -1.913398
      ESP Fit Center   91 is at   0.065047  1.784617 -1.913398
      ESP Fit Center   92 is at   1.920972  0.176449 -1.913398
      ESP Fit Center   93 is at   2.078464  1.404319 -2.278060
      ESP Fit Center   94 is at   1.719343  2.026335 -2.278060
      ESP Fit Center   95 is at   1.001101  2.026335 -2.278060
      ESP Fit Center   96 is at   0.641980  1.404319 -2.278060
      ESP Fit Center   97 is at   1.001101  0.782303 -2.278060
      ESP Fit Center   98 is at   1.719343  0.782303 -2.278060
      ESP Fit Center   99 is at   1.360222  1.404319 -2.404705
      ESP Fit Center  100 is at   0.479232  0.326254  1.971234
      ESP Fit Center  101 is at   1.197474  0.326254  1.844588
      ESP Fit Center  102 is at   0.838353  0.948270  1.844588
      ESP Fit Center  103 is at   0.120111  0.948270  1.844588
      ESP Fit Center  104 is at  -0.239010  0.326254  1.844588
      ESP Fit Center  105 is at   1.197474  0.326254 -2.102121
      ESP Fit Center  106 is at   0.120111  0.948270 -2.102121
      ESP Fit Center  107 is at  -0.239010  0.326254 -2.102121
      ESP Fit Center  108 is at   0.120111 -0.295762 -2.102121
      ESP Fit Center  109 is at   0.838353 -0.295762 -2.102121
      ESP Fit Center  110 is at   0.479232  0.326254 -2.228766
      ESP Fit Center  111 is at  -0.846894  0.628456  1.741562
      ESP Fit Center  112 is at  -0.471864  1.278027  1.592366
      ESP Fit Center  113 is at  -1.221924  1.278027  1.592366
      ESP Fit Center  114 is at  -0.846894  2.014385  1.167491
      ESP Fit Center  115 is at  -1.539859  1.828706  1.167491
      ESP Fit Center  116 is at  -1.036175  2.429340  0.531621
      ESP Fit Center  117 is at  -1.752296  2.196658  0.531621
      ESP Fit Center  118 is at  -1.383273  2.513634 -0.218438
      ESP Fit Center  119 is at  -2.028058  2.192570 -0.218438
      ESP Fit Center  120 is at  -1.036175  2.429340 -0.968498
      ESP Fit Center  121 is at  -1.752296  2.196658 -0.968498
      ESP Fit Center  122 is at  -0.846894  2.014385 -1.604367
      ESP Fit Center  123 is at  -1.539859  1.828706 -1.604367
      ESP Fit Center  124 is at  -0.471864  1.278027 -2.029242
      ESP Fit Center  125 is at  -1.221924  1.278027 -2.029242
      ESP Fit Center  126 is at  -1.596953  0.628456 -2.029242
      ESP Fit Center  127 is at  -1.221924 -0.021115 -2.029242
      ESP Fit Center  128 is at  -0.471864 -0.021115 -2.029242
      ESP Fit Center  129 is at  -0.846894  0.628456 -2.178438
      ESP Fit Center  130 is at  -2.362934 -2.402734  0.326859
      ESP Fit Center  131 is at  -1.606153 -2.472860  0.326859
      ESP Fit Center  132 is at  -2.827237 -0.427849 -2.106600
      ESP Fit Center  133 is at  -2.288293  2.194257 -0.647694
      ESP Fit Center  134 is at  -3.021289  2.472246 -0.647694
      ESP Fit Center  135 is at  -3.799514  2.377752 -0.647694
      ESP Fit Center  136 is at  -4.444684  1.932424 -0.647694
      ESP Fit Center  137 is at  -2.288293  2.194257 -1.395364
      ESP Fit Center  138 is at  -3.021289  2.472246 -1.395364
      ESP Fit Center  139 is at  -3.799514  2.377752 -1.395364
      ESP Fit Center  140 is at  -4.444684  1.932424 -1.395364
      ESP Fit Center  141 is at  -1.905237  0.846309 -2.068992
      ESP Fit Center  142 is at  -2.156089  1.618351 -2.068992
      ESP Fit Center  143 is at  -2.812827  2.095500 -2.068992
      ESP Fit Center  144 is at  -3.624601  2.095500 -2.068992
      ESP Fit Center  145 is at  -4.281339  1.618351 -2.068992
      ESP Fit Center  146 is at  -4.532191  0.846309 -2.068992
      ESP Fit Center  147 is at  -2.156089  0.074267 -2.068992
      ESP Fit Center  148 is at  -2.489789  0.846309 -2.535157
      ESP Fit Center  149 is at  -2.854252  1.477576 -2.535157
      ESP Fit Center  150 is at  -3.583176  1.477576 -2.535157
      ESP Fit Center  151 is at  -3.947639  0.846309 -2.535157
      ESP Fit Center  152 is at  -3.583176  0.215042 -2.535157
      ESP Fit Center  153 is at  -2.854252  0.215042 -2.535157
      ESP Fit Center  154 is at  -3.218714  0.846309 -2.701529
      ESP Fit Center  155 is at  -5.503190 -2.536718  0.069657
      ESP Fit Center  156 is at  -5.503190 -2.536718 -0.659665
      ESP Fit Center  157 is at  -4.822845 -2.875490 -0.659665
      ESP Fit Center  158 is at  -5.728205 -1.955320 -1.345004
      ESP Fit Center  159 is at  -5.507469 -0.198929  1.697439
      ESP Fit Center  160 is at  -5.882499  0.450642  1.548243
      ESP Fit Center  161 is at  -6.257528 -0.198929  1.548243
      ESP Fit Center  162 is at  -5.882499 -0.848500  1.548243
      ESP Fit Center  163 is at  -6.200434  1.001321  1.123368
      ESP Fit Center  164 is at  -6.707719  0.494036  1.123368
      ESP Fit Center  165 is at  -6.412871  1.369273  0.487498
      ESP Fit Center  166 is at  -6.972440  0.865435  0.487498
      ESP Fit Center  167 is at  -5.326623  1.752710 -0.262561
      ESP Fit Center  168 is at  -6.043848  1.686249 -0.262561
      ESP Fit Center  169 is at  -6.688633  1.365185 -0.262561
      ESP Fit Center  170 is at  -7.173895  0.832878 -0.262561
      ESP Fit Center  171 is at  -4.947900  1.523248 -1.012621
      ESP Fit Center  172 is at  -5.696749  1.601955 -1.012621
      ESP Fit Center  173 is at  -6.412871  1.369273 -1.012621
      ESP Fit Center  174 is at  -6.972440  0.865435 -1.012621
      ESP Fit Center  175 is at  -7.278702  0.177558 -1.012621
      ESP Fit Center  176 is at  -4.814504  1.001321 -1.648490
      ESP Fit Center  177 is at  -5.507469  1.187000 -1.648490
      ESP Fit Center  178 is at  -6.200434  1.001321 -1.648490
      ESP Fit Center  179 is at  -6.707719  0.494036 -1.648490
      ESP Fit Center  180 is at  -6.893398 -0.198929 -1.648490
      ESP Fit Center  181 is at  -5.132439  0.450642 -2.073365
      ESP Fit Center  182 is at  -5.882499  0.450642 -2.073365
      ESP Fit Center  183 is at  -6.257528 -0.198929 -2.073365
      ESP Fit Center  184 is at  -5.882499 -0.848500 -2.073365
      ESP Fit Center  185 is at  -5.507469 -0.198929 -2.222561
      ESP Fit Center  186 is at  -3.431993  0.938317  3.006240
      ESP Fit Center  187 is at  -2.681933  0.938317  2.857044
      ESP Fit Center  188 is at  -3.056963  1.587888  2.857044
      ESP Fit Center  189 is at  -3.807023  1.587888  2.857044
      ESP Fit Center  190 is at  -4.182052  0.938317  2.857044
      ESP Fit Center  191 is at  -3.807023  0.288746  2.857044
      ESP Fit Center  192 is at  -3.056963  0.288746  2.857044
      ESP Fit Center  193 is at  -2.046064  0.938317  2.432169
      ESP Fit Center  194 is at  -2.231743  1.631282  2.432169
      ESP Fit Center  195 is at  -2.739028  2.138567  2.432169
      ESP Fit Center  196 is at  -3.431993  2.324246  2.432169
      ESP Fit Center  197 is at  -4.124958  2.138567  2.432169
      ESP Fit Center  198 is at  -4.632243  0.245352  2.432169
      ESP Fit Center  199 is at  -4.124958 -0.261933  2.432169
      ESP Fit Center  200 is at  -3.431993 -0.447612  2.432169
      ESP Fit Center  201 is at  -2.739028 -0.261933  2.432169
      ESP Fit Center  202 is at  -2.231743  0.245352  2.432169
      ESP Fit Center  203 is at  -1.621189  0.938317  1.796299
      ESP Fit Center  204 is at  -1.777741  1.674837  1.796299
      ESP Fit Center  205 is at  -2.220329  2.284007  1.796299
      ESP Fit Center  206 is at  -2.872424  2.660494  1.796299
      ESP Fit Center  207 is at  -3.621274  2.739201  1.796299
      ESP Fit Center  208 is at  -1.983535  2.258760  1.046240
      ESP Fit Center  209 is at  -2.558346  2.692837  1.046240
      ESP Fit Center  210 is at  -3.251147  2.889956  1.046240
      ESP Fit Center  211 is at  -3.968372  2.823495  1.046240
      ESP Fit Center  212 is at  -2.220329  2.284007  0.296180
      ESP Fit Center  213 is at  -2.872424  2.660494  0.296180
      ESP Fit Center  214 is at  -3.621274  2.739201  0.296180
      ESP Fit Center  215 is at  -4.124958  2.138567 -0.339689
      ESP Fit Center  216 is at   4.978965 -0.321215  2.464674
      ESP Fit Center  217 is at   5.714425 -0.321215  2.348188
      ESP Fit Center  218 is at   5.346695  0.315713  2.348188
      ESP Fit Center  219 is at   4.611235  0.315713  2.348188
      ESP Fit Center  220 is at   4.243505 -0.321215  2.348188
      ESP Fit Center  221 is at   4.611235 -0.958142  2.348188
      ESP Fit Center  222 is at   5.346695 -0.958142  2.348188
      ESP Fit Center  223 is at   6.377894 -0.321215  2.010134
      ESP Fit Center  224 is at   6.190473  0.378250  2.010134
      ESP Fit Center  225 is at   5.678429  0.890293  2.010134
      ESP Fit Center  226 is at   4.978965  1.077714  2.010134
      ESP Fit Center  227 is at   4.279501  0.890293  2.010134
      ESP Fit Center  228 is at   3.767457  0.378250  2.010134
      ESP Fit Center  229 is at   3.767457 -1.020679  2.010134
      ESP Fit Center  230 is at   4.279501 -1.532723  2.010134
      ESP Fit Center  231 is at   4.978965 -1.720144  2.010134
      ESP Fit Center  232 is at   5.678429 -1.532723  2.010134
      ESP Fit Center  233 is at   6.190473 -1.020679  2.010134
      ESP Fit Center  234 is at   6.904425 -0.321215  1.483603
      ESP Fit Center  235 is at   6.757859  0.415627  1.483603
      ESP Fit Center  236 is at   6.340471  1.040291  1.483603
      ESP Fit Center  237 is at   5.715807  1.457679  1.483603
      ESP Fit Center  238 is at   4.978965  1.604246  1.483603
      ESP Fit Center  239 is at   4.242123  1.457679  1.483603
      ESP Fit Center  240 is at   4.242123 -2.100108  1.483603
      ESP Fit Center  241 is at   4.978965 -2.246675  1.483603
      ESP Fit Center  242 is at   5.715807 -2.100108  1.483603
      ESP Fit Center  243 is at   6.340471 -1.682721  1.483603
      ESP Fit Center  244 is at   6.757859 -1.058057  1.483603
      ESP Fit Center  245 is at   7.242480 -0.321215  0.820134
      ESP Fit Center  246 is at   7.119836  0.413747  0.820134
      ESP Fit Center  247 is at   6.765196  1.069064  0.820134
      ESP Fit Center  248 is at   6.216990  1.573724  0.820134
      ESP Fit Center  249 is at   5.534625  1.873037  0.820134
      ESP Fit Center  250 is at   4.792046  1.934569  0.820134
      ESP Fit Center  251 is at   4.792046 -2.576998  0.820134
      ESP Fit Center  252 is at   5.534625 -2.515466  0.820134
      ESP Fit Center  253 is at   6.216990 -2.216153  0.820134
      ESP Fit Center  254 is at   6.765196 -1.711494  0.820134
      ESP Fit Center  255 is at   7.119836 -1.056177  0.820134
      ESP Fit Center  256 is at   7.358965 -0.321215  0.084674
      ESP Fit Center  257 is at   7.253228  0.380302  0.084674
      ESP Fit Center  258 is at   6.945413  1.019487  0.084674
      ESP Fit Center  259 is at   6.462871  1.539544  0.084674
      ESP Fit Center  260 is at   5.848477  1.894265  0.084674
      ESP Fit Center  261 is at   5.156823  2.052130  0.084674
      ESP Fit Center  262 is at   4.449365 -2.641543  0.084674
      ESP Fit Center  263 is at   5.156823 -2.694560  0.084674
      ESP Fit Center  264 is at   5.848477 -2.536694  0.084674
      ESP Fit Center  265 is at   6.462871 -2.181974  0.084674
      ESP Fit Center  266 is at   6.945413 -1.661917  0.084674
      ESP Fit Center  267 is at   7.253228 -1.022732  0.084674
      ESP Fit Center  268 is at   7.242480 -0.321215 -0.650786
      ESP Fit Center  269 is at   7.119836  0.413747 -0.650786
      ESP Fit Center  270 is at   6.765196  1.069064 -0.650786
      ESP Fit Center  271 is at   6.216990  1.573724 -0.650786
      ESP Fit Center  272 is at   5.534625  1.873037 -0.650786
      ESP Fit Center  273 is at   4.792046 -2.576998 -0.650786
      ESP Fit Center  274 is at   5.534625 -2.515466 -0.650786
      ESP Fit Center  275 is at   6.216990 -2.216153 -0.650786
      ESP Fit Center  276 is at   6.765196 -1.711494 -0.650786
      ESP Fit Center  277 is at   7.119836 -1.056177 -0.650786
      ESP Fit Center  278 is at   6.904425 -0.321215 -1.314255
      ESP Fit Center  279 is at   6.757859  0.415627 -1.314255
      ESP Fit Center  280 is at   6.340471  1.040291 -1.314255
      ESP Fit Center  281 is at   5.715807  1.457679 -1.314255
      ESP Fit Center  282 is at   4.978965  1.604246 -1.314255
      ESP Fit Center  283 is at   4.242123 -2.100108 -1.314255
      ESP Fit Center  284 is at   4.978965 -2.246675 -1.314255
      ESP Fit Center  285 is at   5.715807 -2.100108 -1.314255
      ESP Fit Center  286 is at   6.340471 -1.682721 -1.314255
      ESP Fit Center  287 is at   6.757859 -1.058057 -1.314255
      ESP Fit Center  288 is at   6.377894 -0.321215 -1.840786
      ESP Fit Center  289 is at   6.190473  0.378250 -1.840786
      ESP Fit Center  290 is at   5.678429  0.890293 -1.840786
      ESP Fit Center  291 is at   4.978965  1.077714 -1.840786
      ESP Fit Center  292 is at   4.279501  0.890293 -1.840786
      ESP Fit Center  293 is at   3.767457 -1.020679 -1.840786
      ESP Fit Center  294 is at   4.279501 -1.532723 -1.840786
      ESP Fit Center  295 is at   4.978965 -1.720144 -1.840786
      ESP Fit Center  296 is at   5.678429 -1.532723 -1.840786
      ESP Fit Center  297 is at   6.190473 -1.020679 -1.840786
      ESP Fit Center  298 is at   5.714425 -0.321215 -2.178841
      ESP Fit Center  299 is at   5.346695  0.315713 -2.178841
      ESP Fit Center  300 is at   4.611235  0.315713 -2.178841
      ESP Fit Center  301 is at   4.243505 -0.321215 -2.178841
      ESP Fit Center  302 is at   4.611235 -0.958142 -2.178841
      ESP Fit Center  303 is at   5.346695 -0.958142 -2.178841
      ESP Fit Center  304 is at   4.978965 -0.321215 -2.295326
      ESP Fit Center  305 is at   0.336245 -1.803089  1.937018
      ESP Fit Center  306 is at  -0.392680 -1.803089  1.770646
      ESP Fit Center  307 is at  -0.028217 -2.434356  1.770646
      ESP Fit Center  308 is at   0.700707 -2.434356  1.770646
      ESP Fit Center  309 is at  -0.726380 -2.575131  1.304481
      ESP Fit Center  310 is at  -0.069642 -3.052280  1.304481
      ESP Fit Center  311 is at   0.742132 -3.052280  1.304481
      ESP Fit Center  312 is at  -0.889725 -2.889204  0.630853
      ESP Fit Center  313 is at  -0.244555 -3.334532  0.630853
      ESP Fit Center  314 is at   0.533670 -3.429026  0.630853
      ESP Fit Center  315 is at   1.266666 -3.151037  0.630853
      ESP Fit Center  316 is at  -0.889725 -2.889204 -0.116817
      ESP Fit Center  317 is at  -0.244555 -3.334532 -0.116817
      ESP Fit Center  318 is at   0.533670 -3.429026 -0.116817
      ESP Fit Center  319 is at   1.266666 -3.151037 -0.116817
      ESP Fit Center  320 is at  -0.069642 -3.052280 -0.790445
      ESP Fit Center  321 is at   0.742132 -3.052280 -0.790445
      ESP Fit Center  322 is at  -0.028217 -2.434356 -1.256610
      ESP Fit Center  323 is at   2.775776 -2.138506  2.050069
      ESP Fit Center  324 is at   3.504701 -2.138506  1.883697
      ESP Fit Center  325 is at   2.411314 -2.769773  1.883697
      ESP Fit Center  326 is at   3.140238 -2.769773  1.883697
      ESP Fit Center  327 is at   4.089253 -2.138506  1.417532
      ESP Fit Center  328 is at   1.713151 -2.910548  1.417532
      ESP Fit Center  329 is at   2.369889 -3.387697  1.417532
      ESP Fit Center  330 is at   3.181663 -3.387697  1.417532
      ESP Fit Center  331 is at   3.838401 -2.910548  1.417532
      ESP Fit Center  332 is at   1.549806 -3.224621  0.743904
      ESP Fit Center  333 is at   2.194976 -3.669949  0.743904
      ESP Fit Center  334 is at   2.973201 -3.764443  0.743904
      ESP Fit Center  335 is at   3.706197 -3.486454  0.743904
      ESP Fit Center  336 is at   4.226046 -2.899666  0.743904
      ESP Fit Center  337 is at   1.549806 -3.224621 -0.003766
      ESP Fit Center  338 is at   2.194976 -3.669949 -0.003766
      ESP Fit Center  339 is at   2.973201 -3.764443 -0.003766
      ESP Fit Center  340 is at   3.706197 -3.486454 -0.003766
      ESP Fit Center  341 is at   4.226046 -2.899666 -0.003766
      ESP Fit Center  342 is at   2.369889 -3.387697 -0.677394
      ESP Fit Center  343 is at   3.181663 -3.387697 -0.677394
      ESP Fit Center  344 is at   3.838401 -2.910548 -0.677394
      ESP Fit Center  345 is at   3.140238 -2.769773 -1.143559
      ESP Fit Center  346 is at   4.142172  2.044401  1.137768
      ESP Fit Center  347 is at   3.777709  2.675668  1.137768
      ESP Fit Center  348 is at   4.726724  2.044401  0.671603
      ESP Fit Center  349 is at   4.475872  2.816443  0.671603
      ESP Fit Center  350 is at   3.819134  3.293592  0.671603
      ESP Fit Center  351 is at   3.007360  3.293592  0.671603
      ESP Fit Center  352 is at   4.863517  2.805561 -0.002025
      ESP Fit Center  353 is at   4.343668  3.392349 -0.002025
      ESP Fit Center  354 is at   3.610672  3.670338 -0.002025
      ESP Fit Center  355 is at   2.832447  3.575844 -0.002025
      ESP Fit Center  356 is at   5.051126  2.044401 -0.749695
      ESP Fit Center  357 is at   4.863517  2.805561 -0.749695
      ESP Fit Center  358 is at   4.343668  3.392349 -0.749695
      ESP Fit Center  359 is at   3.610672  3.670338 -0.749695
      ESP Fit Center  360 is at   2.832447  3.575844 -0.749695
      ESP Fit Center  361 is at   4.726724  2.044401 -1.423323
      ESP Fit Center  362 is at   4.475872  2.816443 -1.423323
      ESP Fit Center  363 is at   3.819134  3.293592 -1.423323
      ESP Fit Center  364 is at   3.007360  3.293592 -1.423323
      ESP Fit Center  365 is at   4.142172  2.044401 -1.889488
      ESP Fit Center  366 is at   3.777709  2.675668 -1.889488
      ESP Fit Center  367 is at   3.048785  2.675668 -1.889488
      ESP Fit Center  368 is at   3.413247  2.044401 -2.055860
      ESP Fit Center  369 is at   0.579617  3.020629  1.023847
      ESP Fit Center  370 is at   1.349966  3.638553  0.557682
      ESP Fit Center  371 is at   0.538192  3.638553  0.557682
      ESP Fit Center  372 is at  -0.118546  3.161404  0.557682
      ESP Fit Center  373 is at  -0.369398  2.389362  0.557682
      ESP Fit Center  374 is at   1.874500  3.737310 -0.115946
      ESP Fit Center  375 is at   1.141504  4.015299 -0.115946
      ESP Fit Center  376 is at   0.363279  3.920805 -0.115946
      ESP Fit Center  377 is at  -0.281891  3.475477 -0.115946
      ESP Fit Center  378 is at  -0.646206  2.781332 -0.115946
      ESP Fit Center  379 is at   1.874500  3.737310 -0.863616
      ESP Fit Center  380 is at   1.141504  4.015299 -0.863616
      ESP Fit Center  381 is at   0.363279  3.920805 -0.863616
      ESP Fit Center  382 is at  -0.281891  3.475477 -0.863616
      ESP Fit Center  383 is at  -0.646206  2.781332 -0.863616
      ESP Fit Center  384 is at   2.006704  3.161404 -1.537244
      ESP Fit Center  385 is at   1.349966  3.638553 -1.537244
      ESP Fit Center  386 is at   0.538192  3.638553 -1.537244
      ESP Fit Center  387 is at  -0.118546  3.161404 -1.537244
      ESP Fit Center  388 is at  -0.369398  2.389362 -1.537244
      ESP Fit Center  389 is at   1.308541  3.020629 -2.003409
      ESP Fit Center  390 is at   0.579617  3.020629 -2.003409
      ESP Fit Center  391 is at   0.215154  2.389362 -2.003409
      ESP Fit Center  392 is at   0.944079  2.389362 -2.169781
      ESP Fit Center  393 is at  -1.673467 -0.879779  2.628946
      ESP Fit Center  394 is at  -0.944542 -0.879779  2.462574
      ESP Fit Center  395 is at  -1.309005 -0.248512  2.462574
      ESP Fit Center  396 is at  -2.037929 -0.248512  2.462574
      ESP Fit Center  397 is at  -2.402392 -0.879779  2.462574
      ESP Fit Center  398 is at  -2.037929 -1.511046  2.462574
      ESP Fit Center  399 is at  -1.309005 -1.511046  2.462574
      ESP Fit Center  400 is at  -0.359990 -0.879779  1.996409
      ESP Fit Center  401 is at  -0.610842 -0.107737  1.996409
      ESP Fit Center  402 is at  -1.267580  0.369412  1.996409
      ESP Fit Center  403 is at  -2.986944 -0.879779  1.996409
      ESP Fit Center  404 is at  -2.736092 -1.651821  1.996409
      ESP Fit Center  405 is at  -2.079354 -2.128970  1.996409
      ESP Fit Center  406 is at  -1.267580 -2.128970  1.996409
      ESP Fit Center  407 is at  -0.610842 -1.651821  1.996409
      ESP Fit Center  408 is at  -2.254267 -2.411222  1.322781
      ESP Fit Center  409 is at  -1.476042 -2.505716  1.322781
      ESP Fit Center  410 is at  -2.254267 -2.411222  0.575111
      ESP Fit Center  411 is at  -1.476042 -2.505716  0.575111
      ESP Fit Center  412 is at  -1.258075 -2.431869  0.233506
      ESP Fit Center  413 is at  -2.244762 -2.714121 -0.440122
      ESP Fit Center  414 is at  -1.466537 -2.808615 -0.440122
      ESP Fit Center  415 is at  -2.244762 -2.714121 -1.187792
      ESP Fit Center  416 is at  -1.466537 -2.808615 -1.187792
      ESP Fit Center  417 is at  -0.733541 -2.530626 -1.187792
      ESP Fit Center  418 is at  -0.350485 -1.182678 -1.861420
      ESP Fit Center  419 is at  -2.069849 -2.431869 -1.861420
      ESP Fit Center  420 is at  -1.258075 -2.431869 -1.861420
      ESP Fit Center  421 is at  -0.601337 -1.954720 -1.861420
      ESP Fit Center  422 is at  -0.935037 -1.182678 -2.327585
      ESP Fit Center  423 is at  -1.299500 -0.551411 -2.327585
      ESP Fit Center  424 is at  -2.028424 -0.551411 -2.327585
      ESP Fit Center  425 is at  -2.392887 -1.182678 -2.327585
      ESP Fit Center  426 is at  -2.028424 -1.813945 -2.327585
      ESP Fit Center  427 is at  -1.299500 -1.813945 -2.327585
      ESP Fit Center  428 is at  -1.663962 -1.182678 -2.493957
      ESP Fit Center  429 is at  -4.180692 -1.606314  2.213931
      ESP Fit Center  430 is at  -3.451767 -1.606314  2.047559
      ESP Fit Center  431 is at  -3.816230 -0.975047  2.047559
      ESP Fit Center  432 is at  -4.545154 -0.975047  2.047559
      ESP Fit Center  433 is at  -4.909617 -1.606314  2.047559
      ESP Fit Center  434 is at  -4.545154 -2.237581  2.047559
      ESP Fit Center  435 is at  -3.816230 -2.237581  2.047559
      ESP Fit Center  436 is at  -5.243317 -0.834272  1.581394
      ESP Fit Center  437 is at  -5.494169 -1.606314  1.581394
      ESP Fit Center  438 is at  -5.243317 -2.378356  1.581394
      ESP Fit Center  439 is at  -4.586579 -2.855505  1.581394
      ESP Fit Center  440 is at  -3.774805 -2.855505  1.581394
      ESP Fit Center  441 is at  -3.118067 -2.378356  1.581394
      ESP Fit Center  442 is at  -5.406662 -2.692429  0.907766
      ESP Fit Center  443 is at  -4.761492 -3.137757  0.907766
      ESP Fit Center  444 is at  -3.983267 -3.232251  0.907766
      ESP Fit Center  445 is at  -3.250271 -2.954262  0.907766
      ESP Fit Center  446 is at  -2.730422 -2.367474  0.907766
      ESP Fit Center  447 is at  -5.406662 -2.692429  0.160096
      ESP Fit Center  448 is at  -4.761492 -3.137757  0.160096
      ESP Fit Center  449 is at  -3.983267 -3.232251  0.160096
      ESP Fit Center  450 is at  -3.250271 -2.954262  0.160096
      ESP Fit Center  451 is at  -2.730422 -2.367474  0.160096
      ESP Fit Center  452 is at  -4.704191 -2.958450 -0.870370
      ESP Fit Center  453 is at  -3.925966 -3.052944 -0.870370
      ESP Fit Center  454 is at  -3.192970 -2.774955 -0.870370
      ESP Fit Center  455 is at  -5.713676 -1.818977 -1.618040
      ESP Fit Center  456 is at  -5.349361 -2.513122 -1.618040
      ESP Fit Center  457 is at  -4.704191 -2.958450 -1.618040
      ESP Fit Center  458 is at  -3.925966 -3.052944 -1.618040
      ESP Fit Center  459 is at  -3.192970 -2.774955 -1.618040
      ESP Fit Center  460 is at  -2.809914 -1.427007 -2.291668
      ESP Fit Center  461 is at  -3.060766 -0.654965 -2.291668
      ESP Fit Center  462 is at  -3.717504 -0.177816 -2.291668
      ESP Fit Center  463 is at  -4.529278 -0.177816 -2.291668
      ESP Fit Center  464 is at  -5.186016 -0.654965 -2.291668
      ESP Fit Center  465 is at  -5.436868 -1.427007 -2.291668
      ESP Fit Center  466 is at  -5.186016 -2.199049 -2.291668
      ESP Fit Center  467 is at  -4.529278 -2.676198 -2.291668
      ESP Fit Center  468 is at  -3.717504 -2.676198 -2.291668
      ESP Fit Center  469 is at  -3.060766 -2.199049 -2.291668
      ESP Fit Center  470 is at  -3.394466 -1.427007 -2.757833
      ESP Fit Center  471 is at  -3.758929 -0.795740 -2.757833
      ESP Fit Center  472 is at  -4.487853 -0.795740 -2.757833
      ESP Fit Center  473 is at  -4.852316 -1.427007 -2.757833
      ESP Fit Center  474 is at  -4.487853 -2.058274 -2.757833
      ESP Fit Center  475 is at  -3.758929 -2.058274 -2.757833
      ESP Fit Center  476 is at  -4.123391 -1.427007 -2.924205
      ESP Fit Center  477 is at  -6.211861 -0.844266  1.574388
      ESP Fit Center  478 is at  -6.576323 -0.212999  1.408016
      ESP Fit Center  479 is at  -6.940786 -0.844266  1.408016
      ESP Fit Center  480 is at  -6.576323 -1.475533  1.408016
      ESP Fit Center  481 is at  -5.847399 -1.475533  1.408016
      ESP Fit Center  482 is at  -7.274486 -0.072224  0.941851
      ESP Fit Center  483 is at  -7.525338 -0.844266  0.941851
      ESP Fit Center  484 is at  -7.274486 -1.616308  0.941851
      ESP Fit Center  485 is at  -6.617748 -2.093457  0.941851
      ESP Fit Center  486 is at  -5.805974 -2.093457  0.941851
      ESP Fit Center  487 is at  -7.437831  0.241849  0.268223
      ESP Fit Center  488 is at  -7.802146 -0.452296  0.268223
      ESP Fit Center  489 is at  -7.802146 -1.236236  0.268223
      ESP Fit Center  490 is at  -7.437831 -1.930381  0.268223
      ESP Fit Center  491 is at  -6.792661 -2.375709  0.268223
      ESP Fit Center  492 is at  -6.014436 -2.470203  0.268223
      ESP Fit Center  493 is at  -7.437831  0.241849 -0.479447
      ESP Fit Center  494 is at  -7.802146 -0.452296 -0.479447
      ESP Fit Center  495 is at  -7.802146 -1.236236 -0.479447
      ESP Fit Center  496 is at  -7.437831 -1.930381 -0.479447
      ESP Fit Center  497 is at  -6.792661 -2.375709 -0.479447
      ESP Fit Center  498 is at  -6.014436 -2.470203 -0.479447
      ESP Fit Center  499 is at  -7.274486 -0.072224 -1.153075
      ESP Fit Center  500 is at  -7.525338 -0.844266 -1.153075
      ESP Fit Center  501 is at  -7.274486 -1.616308 -1.153075
      ESP Fit Center  502 is at  -6.617748 -2.093457 -1.153075
      ESP Fit Center  503 is at  -5.805974 -2.093457 -1.153075
      ESP Fit Center  504 is at  -6.940786 -0.844266 -1.619240
      ESP Fit Center  505 is at  -6.576323 -1.475533 -1.619240
      ESP Fit Center  506 is at  -4.747368  1.774845  2.536826
      ESP Fit Center  507 is at  -5.111831  1.143578  2.536826
      ESP Fit Center  508 is at  -4.747368  0.512311  2.536826
      ESP Fit Center  509 is at  -4.788793  2.392769  2.070661
      ESP Fit Center  510 is at  -5.445531  1.915620  2.070661
      ESP Fit Center  511 is at  -5.696383  1.143578  2.070661
      ESP Fit Center  512 is at  -5.445531  0.371536  2.070661
      ESP Fit Center  513 is at  -4.788793 -0.105613  2.070661
      ESP Fit Center  514 is at  -4.185481  2.769515  1.397033
      ESP Fit Center  515 is at  -4.963706  2.675021  1.397033
      ESP Fit Center  516 is at  -5.608876  2.229693  1.397033
      ESP Fit Center  517 is at  -5.973191  1.535548  1.397033
      ESP Fit Center  518 is at  -5.973191  0.751608  1.397033
      ESP Fit Center  519 is at  -4.185481  2.769515  0.649363
      ESP Fit Center  520 is at  -4.963706  2.675021  0.649363
      ESP Fit Center  521 is at  -5.608876  2.229693  0.649363
      ESP Fit Center  522 is at  -5.973191  1.535548  0.649363
      ESP Fit Center  523 is at  -4.788793  2.392769 -0.024265
      ESP Fit Center  524 is at  -5.445531  1.915620 -0.024265
      ESP Fit Center  525 is at  -4.747368  1.774845 -0.490430
      ESP Fit Center  526 is at   0.993085 -0.952843  2.483475
      ESP Fit Center  527 is at   1.359012 -0.319039  2.367561
      ESP Fit Center  528 is at   0.627158 -0.319039  2.367561
      ESP Fit Center  529 is at   0.261231 -0.952843  2.367561
      ESP Fit Center  530 is at   0.627158 -1.586647  2.367561
      ESP Fit Center  531 is at   1.359012 -1.586647  2.367561
      ESP Fit Center  532 is at   1.571371  0.313427  2.031165
      ESP Fit Center  533 is at   0.794973 -2.330742  2.031165
      ESP Fit Center  534 is at   0.993085 -2.868861 -1.276921
      ESP Fit Center  535 is at   0.081474 -2.004898 -1.800871
      ESP Fit Center  536 is at   0.794973 -2.330742 -1.800871
      ESP Fit Center  537 is at   1.571371 -2.219113 -1.800871
      ESP Fit Center  538 is at   1.724939 -0.952843 -2.137267
      ESP Fit Center  539 is at   0.261231 -0.952843 -2.137267
      ESP Fit Center  540 is at   0.627158 -1.586647 -2.137267
      ESP Fit Center  541 is at   1.359012 -1.586647 -2.137267
      ESP Fit Center  542 is at   0.993085 -0.952843 -2.253181
      ESP Fit Center  543 is at   2.375999 -1.147879  2.549020
      ESP Fit Center  544 is at   3.107853 -1.147879  2.433106
      ESP Fit Center  545 is at   2.741926 -0.514075  2.433106
      ESP Fit Center  546 is at   2.010072 -0.514075  2.433106
      ESP Fit Center  547 is at   1.644145 -1.147879  2.433106
      ESP Fit Center  548 is at   2.010072 -1.781683  2.433106
      ESP Fit Center  549 is at   2.741926 -1.781683  2.433106
      ESP Fit Center  550 is at   1.464388 -2.199934  2.096710
      ESP Fit Center  551 is at   3.547081 -1.900488  2.096710
      ESP Fit Center  552 is at   1.471215 -3.210580 -0.551162
      ESP Fit Center  553 is at   1.642771 -2.918049 -1.211376
      ESP Fit Center  554 is at   2.177887 -2.525778 -1.735326
      ESP Fit Center  555 is at   2.954285 -2.414149 -1.735326
      ESP Fit Center  556 is at   3.547081 -1.900488 -1.735326
      ESP Fit Center  557 is at   2.010072 -0.514075 -2.071722
      ESP Fit Center  558 is at   2.010072 -1.781683 -2.071722
      ESP Fit Center  559 is at   2.741926 -1.781683 -2.071722
      ESP Fit Center  560 is at   2.375999 -1.147879 -2.187636
      ESP Fit Center  561 is at   3.236838 -0.071088  2.371373
      ESP Fit Center  562 is at   3.602765  0.562716  2.255459
      ESP Fit Center  563 is at   2.870911  0.562716  2.255459
      ESP Fit Center  564 is at   2.504984 -0.071088 -2.249369
      ESP Fit Center  565 is at   2.870911 -0.704892 -2.249369
      ESP Fit Center  566 is at   3.602765 -0.704892 -2.249369
      ESP Fit Center  567 is at   3.236838 -0.071088 -2.365283
      ESP Fit Center  568 is at   2.733853  1.209646  2.128366
      ESP Fit Center  569 is at   3.465707  1.209646  2.012452
      ESP Fit Center  570 is at   3.099780  1.843450  2.012452
      ESP Fit Center  571 is at   2.367926  1.843450  2.012452
      ESP Fit Center  572 is at   2.001999  1.209646  2.012452
      ESP Fit Center  573 is at   3.904935  1.962255  1.676056
      ESP Fit Center  574 is at   3.312139  2.475916  1.676056
      ESP Fit Center  575 is at   2.535741  2.587545  1.676056
      ESP Fit Center  576 is at   2.733853  3.125664  1.152106
      ESP Fit Center  577 is at   4.125921  1.209646 -2.155980
      ESP Fit Center  578 is at   2.535741  2.587545 -2.155980
      ESP Fit Center  579 is at   3.465707  1.209646 -2.492376
      ESP Fit Center  580 is at   3.099780  1.843450 -2.492376
      ESP Fit Center  581 is at   2.367926  1.843450 -2.492376
      ESP Fit Center  582 is at   2.367926  0.575842 -2.492376
      ESP Fit Center  583 is at   3.099780  0.575842 -2.492376
      ESP Fit Center  584 is at   2.733853  1.209646 -2.608290
      ESP Fit Center  585 is at   1.360222  1.404319  2.063623
      ESP Fit Center  586 is at   1.726149  2.038123  1.947709
      ESP Fit Center  587 is at   0.994295  2.038123  1.947709
      ESP Fit Center  588 is at   1.726149  0.770515  1.947709
      ESP Fit Center  589 is at   1.938508  2.670589  1.611313
      ESP Fit Center  590 is at   1.162110  2.782218  1.611313
      ESP Fit Center  591 is at   0.448611  2.456374  1.611313
      ESP Fit Center  592 is at   2.093450  3.174489  1.087363
      ESP Fit Center  593 is at   1.938508  2.670589 -2.220723
      ESP Fit Center  594 is at   0.024542  1.796510 -2.220723
      ESP Fit Center  595 is at   1.938508  0.138049 -2.220723
      ESP Fit Center  596 is at   2.092076  1.404319 -2.557119
      ESP Fit Center  597 is at   1.726149  2.038123 -2.557119
      ESP Fit Center  598 is at   0.994295  2.038123 -2.557119
      ESP Fit Center  599 is at   0.628368  1.404319 -2.557119
      ESP Fit Center  600 is at   0.994295  0.770515 -2.557119
      ESP Fit Center  601 is at   1.726149  0.770515 -2.557119
      ESP Fit Center  602 is at   1.360222  1.404319 -2.673033
      ESP Fit Center  603 is at   0.479232  0.326254  2.239562
      ESP Fit Center  604 is at   1.211086  0.326254  2.123648
      ESP Fit Center  605 is at   0.845159  0.960058  2.123648
      ESP Fit Center  606 is at   0.113305  0.960058  2.123648
      ESP Fit Center  607 is at  -0.252622  0.326254  2.123648
      ESP Fit Center  608 is at   0.281120  1.704153  1.787252
      ESP Fit Center  609 is at   0.113305  0.960058 -2.381180
      ESP Fit Center  610 is at  -0.252622  0.326254 -2.381180
      ESP Fit Center  611 is at   0.113305 -0.307550 -2.381180
      ESP Fit Center  612 is at   0.845159 -0.307550 -2.381180
      ESP Fit Center  613 is at   0.479232  0.326254 -2.497094
      ESP Fit Center  614 is at  -0.846894  0.628456  1.992002
      ESP Fit Center  615 is at  -0.468887  1.283184  1.858696
      ESP Fit Center  616 is at  -1.224901  1.283184  1.858696
      ESP Fit Center  617 is at  -0.846894  2.049299  1.474857
      ESP Fit Center  618 is at  -0.846894  2.542753  0.886782
      ESP Fit Center  619 is at  -1.579464  2.397036  0.886782
      ESP Fit Center  620 is at  -1.224901  2.772243  0.165401
      ESP Fit Center  621 is at  -1.935323  2.513670  0.165401
      ESP Fit Center  622 is at  -1.224901  2.772243 -0.602277
      ESP Fit Center  623 is at  -1.935323  2.513670 -0.602277
      ESP Fit Center  624 is at  -0.846894  2.542753 -1.323658
      ESP Fit Center  625 is at  -1.579464  2.397036 -1.323658
[...]
 2477 Fit      -0.011323
 2478 Fit      -0.009304
 2479 Fit      -0.007710
 2480 Fit      -0.008061
 2481 Fit      -0.010037
 2482 Fit      -0.004018
 2483 Fit      -0.004569
 2484 Fit      -0.000811
 2485 Fit       0.002365
 2486 Fit      -0.006282
 2487 Fit      -0.000580
 2488 Fit      -0.009306
 2489 Fit      -0.006160
 2490 Fit      -0.004145
 2491 Fit      -0.003968
 2492 Fit      -0.012102
 2493 Fit      -0.008945
 2494 Fit      -0.006905
 2495 Fit      -0.007591
 2496 Fit      -0.010961
 2497 Fit      -0.010820
 2498 Fit      -0.009217
 2499 Fit      -0.016286
 2500 Fit      -0.015077
 2501 Fit      -0.016024
 2502 Fit      -0.016927
 2503 Fit      -0.012847
 2504 Fit      -0.013301
 2505 Fit      -0.015679
 2506 Fit      -0.019059
 2507 Fit      -0.010091
 2508 Fit      -0.012248
 2509 Fit      -0.016436
 2510 Fit      -0.022529
 2511 Fit      -0.005539
 2512 Fit      -0.006532
 2513 Fit      -0.008716
 2514 Fit      -0.012956
 2515 Fit      -0.020305
 2516 Fit      -0.001483
 2517 Fit       0.001985
 2518 Fit      -0.001353
 2519 Fit      -0.001155
 2520 Fit      -0.007230
 2521 Fit      -0.004552
 2522 Fit      -0.004057
 2523 Fit      -0.004984
 2524 Fit      -0.006780
 2525 Fit      -0.007883
 2526 Fit      -0.010133
 2527 Fit      -0.009005
 2528 Fit      -0.006856
 2529 Fit      -0.006628
 2530 Fit      -0.007682
 2531 Fit      -0.008682
 2532 Fit      -0.009952
 2533 Fit      -0.008249
 2534 Fit      -0.013442
 2535 Fit      -0.015735
 2536 Fit      -0.016137
 2537 Fit      -0.013216
 2538 Fit      -0.017745
 2539 Fit      -0.020105
 2540 Fit      -0.021236
 2541 Fit       0.001144
 2542 Fit      -0.011295
 2543 Fit      -0.007571
 2544 Fit      -0.004704
 2545 Fit      -0.003611
 2546 Fit      -0.007049
 2547 Fit      -0.006991
 2548 Fit      -0.027684
 2549 Fit      -0.025638
 2550 Fit      -0.027860
 2551 Fit      -0.020498
 2552 Fit      -0.016085
 2553 Fit      -0.020167
 2554 Fit      -0.013964
 2555 Fit      -0.011298
 2556 Fit      -0.009696
 2557 Fit      -0.008703
 2558 Fit      -0.006801
 2559 Fit      -0.007563
 2560 Fit      -0.005409
 2561 Fit      -0.000310
 2562 Fit      -0.003894
 2563 Fit       0.023766
 2564 Fit       0.001999
 2565 Fit       0.012511
 2566 Fit      -0.015222
 2567 Fit      -0.012761
 2568 Fit      -0.009533
 2569 Fit      -0.006985
 2570 Fit      -0.005432
 2571 Fit      -0.006623
 2572 Fit      -0.010465
 2573 Fit      -0.007401
 2574 Fit      -0.005331
 2575 Fit      -0.004024
 2576 Fit      -0.003952
 2577 Fit      -0.006232
 2578 Fit      -0.006464
 2579 Fit      -0.004258
 2580 Fit      -0.002664
 2581 Fit      -0.001853
 2582 Fit      -0.002227
 2583 Fit      -0.003993
 2584 Fit       0.000433
 2585 Fit      -0.001759
 2586 Fit      -0.001124
 2587 Fit      -0.000122
 2588 Fit       0.000345
 2589 Fit       0.000654
 2590 Fit       0.003395
 2591 Fit       0.006618
 2592 Fit       0.003634
 2593 Fit       0.001878
 2594 Fit       0.002435
 2595 Fit       0.004287
 2596 Fit       0.007867
 2597 Fit       0.007736
 2598 Fit       0.004822
 2599 Fit       0.027455
 2600 Fit       0.025687
 2601 Fit       0.023214
 2602 Fit       0.022315
 2603 Fit       0.022633
 2604 Fit       0.024086
 2605 Fit       0.025380
 2606 Fit       0.022960
 2607 Fit       0.021997
 2608 Fit       0.022191
 2609 Fit       0.023433
 2610 Fit       0.024530
 2611 Fit       0.001393
 2612 Fit       0.008745
 2613 Fit       0.010771
 2614 Fit       0.007613
 2615 Fit       0.011630
 2616 Fit       0.006718
 2617 Fit       0.011440
 2618 Fit       0.003409
 2619 Fit       0.007085
 2620 Fit      -0.000277
 2621 Fit       0.000614
 2622 Fit       0.004447
 2623 Fit       0.010665
 2624 Fit      -0.003793
 2625 Fit      -0.002820
 2626 Fit       0.000632
 2627 Fit       0.006327
 2628 Fit      -0.006467
 2629 Fit      -0.006703
 2630 Fit      -0.005036
 2631 Fit      -0.001298
 2632 Fit       0.004395
 2633 Fit      -0.007842
 2634 Fit      -0.008692
 2635 Fit      -0.007985
 2636 Fit      -0.005442
 2637 Fit      -0.001065
 2638 Fit       0.004935
 2639 Fit      -0.007705
 2640 Fit      -0.009121
 2641 Fit      -0.008512
 2642 Fit      -0.005883
 2643 Fit      -0.001394
 2644 Fit       0.004539
 2645 Fit      -0.006716
 2646 Fit      -0.008287
 2647 Fit      -0.007263
 2648 Fit      -0.003937
 2649 Fit       0.001120
 2650 Fit       0.006916
 2651 Fit       0.012135
 2652 Fit       0.015755
 2653 Fit      -0.005405
 2654 Fit      -0.005986
 2655 Fit      -0.003340
 2656 Fit       0.001420
 2657 Fit       0.006517
 2658 Fit       0.010483
 2659 Fit      -0.000418
 2660 Fit      -0.002751
 2661 Fit       0.000610
 2662 Fit       0.005541
 2663 Fit       0.001882
 2664 Fit      -0.015975
 2665 Fit      -0.019274
 2666 Fit      -0.019139
 2667 Fit      -0.014775
 2668 Fit      -0.011426
 2669 Fit      -0.012207
 2670 Fit      -0.015575
 2671 Fit      -0.021347
 2672 Fit      -0.023168
 2673 Fit      -0.021831
 2674 Fit      -0.017851
 2675 Fit      -0.012546
 2676 Fit      -0.007942
 2677 Fit      -0.005798
 2678 Fit      -0.006068
 2679 Fit      -0.007604
 2680 Fit      -0.009820
 2681 Fit      -0.012924
 2682 Fit      -0.017200
 2683 Fit      -0.022433
 2684 Fit      -0.025536
 2685 Fit      -0.025762
 2686 Fit      -0.023566
 2687 Fit      -0.019423
 2688 Fit      -0.013872
 2689 Fit      -0.007845
 2690 Fit      -0.000370
 2691 Fit      -0.001427
 2692 Fit      -0.002690
 2693 Fit      -0.004291
 2694 Fit      -0.016863
 2695 Fit      -0.023092
 2696 Fit      -0.027504
 2697 Fit      -0.028476
 2698 Fit      -0.027126
 2699 Fit      -0.024103
 2700 Fit      -0.019584
 2701 Fit      -0.013766
 2702 Fit      -0.007151
 2703 Fit       0.005609
 2704 Fit      -0.029546
 2705 Fit      -0.026868
 2706 Fit      -0.023123
 2707 Fit      -0.018153
 2708 Fit      -0.012003
 2709 Fit      -0.027681
 2710 Fit      -0.023910
 2711 Fit      -0.019153
 2712 Fit      -0.013232
 2713 Fit      -0.027137
 2714 Fit      -0.023001
 2715 Fit      -0.018283
 2716 Fit      -0.012607
 2717 Fit      -0.024891
 2718 Fit      -0.020200
 2719 Fit      -0.015456
 2720 Fit      -0.010195
 2721 Fit      -0.014106
 2722 Fit      -0.009591
 2723 Fit      -0.005822
 2724 Fit      -0.012794
 2725 Fit      -0.012760
 2726 Fit      -0.013193
 2727 Fit      -0.013274
 2728 Fit      -0.012687
 2729 Fit      -0.011761
 2730 Fit      -0.012111
 2731 Fit      -0.012348
 2732 Fit      -0.012810
 2733 Fit      -0.013091
 2734 Fit      -0.013183
 2735 Fit      -0.013490
 2736 Fit      -0.013804
 2737 Fit      -0.012965
 2738 Fit      -0.010994
 2739 Fit      -0.009887
 2740 Fit      -0.010389
 2741 Fit      -0.011286
 2742 Fit      -0.011884
 2743 Fit      -0.011542
 2744 Fit      -0.012015
 2745 Fit      -0.012445
 2746 Fit      -0.012596
 2747 Fit      -0.012466
 2748 Fit      -0.012501
 2749 Fit      -0.013335
 2750 Fit      -0.014810
 2751 Fit      -0.006813
 2752 Fit      -0.007816
 2753 Fit      -0.009337
 2754 Fit      -0.010402
 2755 Fit      -0.010920
 2756 Fit      -0.011200
 2757 Fit      -0.010485
 2758 Fit      -0.010980
 2759 Fit      -0.011524
 2760 Fit      -0.011858
 2761 Fit      -0.011761
 2762 Fit      -0.011242
 2763 Fit      -0.010749
 2764 Fit      -0.011224
 2765 Fit      -0.003218
 2766 Fit      -0.005960
 2767 Fit      -0.008161
 2768 Fit      -0.009433
 2769 Fit      -0.009956
 2770 Fit      -0.010095
 2771 Fit      -0.010199
 2772 Fit      -0.009405
 2773 Fit      -0.009937
 2774 Fit      -0.010574
 2775 Fit      -0.011035
 2776 Fit      -0.011008
 2777 Fit      -0.010282
 2778 Fit      -0.008929
 2779 Fit      -0.007632
 2780 Fit      -0.002675
 2781 Fit      -0.006223
 2782 Fit      -0.008215
 2783 Fit      -0.009066
 2784 Fit      -0.009235
 2785 Fit      -0.009149
 2786 Fit      -0.009144
 2787 Fit      -0.008542
 2788 Fit      -0.009067
 2789 Fit      -0.009727
 2790 Fit      -0.010262
 2791 Fit      -0.010348
 2792 Fit      -0.009663
 2793 Fit      -0.007952
 2794 Fit      -0.005175
 2795 Fit      -0.004281
 2796 Fit      -0.007044
 2797 Fit      -0.008338
 2798 Fit      -0.008704
 2799 Fit      -0.008591
 2800 Fit      -0.008368
 2801 Fit      -0.008306
 2802 Fit      -0.008086
 2803 Fit      -0.008596
 2804 Fit      -0.009248
 2805 Fit      -0.009768
 2806 Fit      -0.009805
 2807 Fit      -0.008958
 2808 Fit      -0.006773
 2809 Fit      -0.004859
 2810 Fit      -0.007291
 2811 Fit      -0.008331
 2812 Fit      -0.008516
 2813 Fit      -0.008281
 2814 Fit      -0.007983
 2815 Fit      -0.007876
 2816 Fit      -0.008130
 2817 Fit      -0.008591
 2818 Fit      -0.009174
 2819 Fit      -0.009593
 2820 Fit      -0.009475
 2821 Fit      -0.008364
 2822 Fit      -0.005664
 2823 Fit      -0.001299
 2824 Fit      -0.005375
 2825 Fit      -0.007589
 2826 Fit      -0.008533
 2827 Fit      -0.008671
 2828 Fit      -0.008409
 2829 Fit      -0.008087
 2830 Fit      -0.007954
 2831 Fit      -0.008646
 2832 Fit      -0.009023
 2833 Fit      -0.009475
 2834 Fit      -0.009706
 2835 Fit      -0.009325
 2836 Fit      -0.007853
 2837 Fit      -0.004641
 2838 Fit      -0.002436
 2839 Fit      -0.005848
 2840 Fit      -0.007939
 2841 Fit      -0.008929
 2842 Fit      -0.009147
 2843 Fit      -0.008948
 2844 Fit      -0.008656
 2845 Fit      -0.008515
 2846 Fit      -0.009493
 2847 Fit      -0.009766
 2848 Fit      -0.010031
 2849 Fit      -0.009939
 2850 Fit      -0.009051
 2851 Fit      -0.006872
 2852 Fit      -0.003333
 2853 Fit      -0.005748
 2854 Fit      -0.007905
 2855 Fit      -0.009240
 2856 Fit      -0.009774
 2857 Fit      -0.009769
 2858 Fit      -0.009556
 2859 Fit      -0.009414
 2860 Fit      -0.010451
 2861 Fit      -0.010577
 2862 Fit      -0.010590
 2863 Fit      -0.010144
 2864 Fit      -0.008873
 2865 Fit      -0.006585
 2866 Fit      -0.006987
 2867 Fit      -0.008262
 2868 Fit      -0.009549
 2869 Fit      -0.010326
 2870 Fit      -0.010574
 2871 Fit      -0.010518
 2872 Fit      -0.010424
 2873 Fit      -0.011277
 2874 Fit      -0.011235
 2875 Fit      -0.010914
 2876 Fit      -0.009996
 2877 Fit      -0.008488
 2878 Fit      -0.007277
 2879 Fit      -0.010385
 2880 Fit      -0.009277
 2881 Fit      -0.009603
 2882 Fit      -0.010450
 2883 Fit      -0.011068
 2884 Fit      -0.011287
 2885 Fit      -0.011291
 2886 Fit      -0.011776
 2887 Fit      -0.011521
 2888 Fit      -0.010811
 2889 Fit      -0.009928
 2890 Fit      -0.010150
 2891 Fit      -0.011643
 2892 Fit      -0.012216
 2893 Fit      -0.011406
 2894 Fit      -0.010757
 2895 Fit      -0.011039
 2896 Fit      -0.011561
 2897 Fit      -0.011791
 2898 Fit      -0.011874
 2899 Fit      -0.011420
 2900 Fit      -0.011186
 2901 Fit      -0.011583
 2902 Fit      -0.011502
 2903 Fit      -0.011790
 2904 Fit      -0.011686
 2905 Fit       0.012617
 2906 Fit       0.010596
 2907 Fit       0.017411
 2908 Fit       0.015007
 2909 Fit       0.013020
 2910 Fit       0.011540
 2911 Fit       0.019321
 2912 Fit       0.016775
 2913 Fit       0.014964
 2914 Fit       0.014122
 2915 Fit       0.023718
 2916 Fit       0.019931
 2917 Fit       0.017230
 2918 Fit       0.015499
 2919 Fit       0.020396
 2920 Fit       0.017301
 2921 Fit       0.015231
 2922 Fit       0.014475
 2923 Fit       0.021190
 2924 Fit       0.017306
 2925 Fit       0.014484
 2926 Fit       0.012510
 2927 Fit       0.016278
 2928 Fit       0.012415
 2929 Fit       0.004726
 2930 Fit       0.002153
 2931 Fit      -0.002225
 2932 Fit       0.008683
 2933 Fit       0.006756
 2934 Fit       0.004118
 2935 Fit       0.000310
 2936 Fit       0.012902
 2937 Fit       0.010488
 2938 Fit       0.008311
 2939 Fit       0.005848
 2940 Fit       0.002609
 2941 Fit       0.013492
 2942 Fit       0.010710
 2943 Fit       0.008313
 2944 Fit       0.005619
 2945 Fit       0.002037
 2946 Fit       0.013233
 2947 Fit       0.010396
 2948 Fit       0.007959
 2949 Fit       0.005213
 2950 Fit       0.001534
 2951 Fit       0.009543
 2952 Fit       0.007265
 2953 Fit       0.004672
 2954 Fit       0.001196
 2955 Fit       0.004964
 2956 Fit       0.002111
 2957 Fit      -0.003232
 2958 Fit      -0.001444
 2959 Fit      -0.001181
 2960 Fit      -0.002727
 2961 Fit      -0.000173
 2962 Fit       0.001100
 2963 Fit       0.001531
 2964 Fit      -0.001747
 2965 Fit       0.000974
 2966 Fit       0.002479
 2967 Fit       0.003260
 2968 Fit       0.003823
 2969 Fit      -0.000919
 2970 Fit       0.001700
 2971 Fit       0.003221
 2972 Fit       0.004120
 2973 Fit       0.004959
 2974 Fit      -0.000334
 2975 Fit       0.001986
 2976 Fit       0.003357
 2977 Fit       0.004197
 2978 Fit       0.005044
 2979 Fit      -0.002705
 2980 Fit       0.000416
 2981 Fit       0.002197
 2982 Fit       0.003069
 2983 Fit      -0.001859
 2984 Fit       0.000395
 2985 Fit       0.000972
 2986 Fit      -0.004655
 2987 Fit      -0.007845
 2988 Fit      -0.013715
 2989 Fit       0.000004
 2990 Fit      -0.001717
 2991 Fit      -0.004297
 2992 Fit      -0.008554
 2993 Fit      -0.015770
 2994 Fit       0.002524
 2995 Fit       0.000791
 2996 Fit      -0.001341
 2997 Fit      -0.004610
 2998 Fit      -0.009928
 2999 Fit       0.003512
 3000 Fit       0.001885
 3001 Fit      -0.000030
 3002 Fit      -0.002859
 3003 Fit      -0.007261
 3004 Fit       0.004540
 3005 Fit       0.003059
 3006 Fit       0.001697
 3007 Fit      -0.000119
 3008 Fit      -0.002829
 3009 Fit      -0.006866
 3010 Fit       0.002102
 3011 Fit       0.001055
 3012 Fit      -0.000713
 3013 Fit      -0.003531
 3014 Fit      -0.007641
 3015 Fit      -0.000031
 3016 Fit      -0.000770
 3017 Fit      -0.002950
 3018 Fit      -0.006397
 3019 Fit      -0.003665
 3020 Fit      -0.002903
 3021 Fit      -0.009291
 3022 Fit      -0.012448
 3023 Fit      -0.005230
 3024 Fit       0.002016
 3025 Fit       0.002089
 3026 Fit      -0.003390
 3027 Fit      -0.009257
 3028 Fit      -0.016031
 3029 Fit      -0.000463
 3030 Fit       0.006723
 3031 Fit       0.008413
 3032 Fit       0.007036
 3033 Fit       0.002787
 3034 Fit       0.013586
 3035 Fit       0.013075
 3036 Fit       0.011688
 3037 Fit       0.018406
 3038 Fit       0.017372
 3039 Fit       0.022118
 3040 Fit       0.021271
 3041 Fit       0.024290
 3042 Fit       0.022844
 3043 Fit       0.022739
 3044 Fit       0.020702
 3045 Fit       0.021843
 3046 Fit       0.019221
 3047 Fit       0.016939
 3048 Fit       0.020333
 3049 Fit       0.017317
 3050 Fit       0.014264
 3051 Fit       0.010117
 3052 Fit       0.003480
 3053 Fit       0.016116
 3054 Fit       0.012594
 3055 Fit       0.008085
 3056 Fit       0.007149
 3057 Fit       0.006121
 3058 Fit       0.010097
 3059 Fit       0.014406
 3060 Fit       0.014481
 3061 Fit       0.011182
 3062 Fit       0.010587
 3063 Fit       0.006007
 3064 Fit       0.004700
 3065 Fit       0.009279
 3066 Fit       0.011616
 3067 Fit       0.010295
 3068 Fit       0.011381
 3069 Fit       0.015333
 3070 Fit       0.015797
 3071 Fit       0.015133
 3072 Fit       0.014265
 3073 Fit       0.012593
 3074 Fit       0.021544
 3075 Fit       0.019885
 3076 Fit       0.018338
 3077 Fit       0.017457
 3078 Fit       0.017213
 3079 Fit       0.017459
 3080 Fit       0.025852
 3081 Fit       0.022261
 3082 Fit       0.020191
 3083 Fit       0.019282
 3084 Fit       0.019312
 3085 Fit       0.020267
 3086 Fit       0.028346
 3087 Fit       0.023606
 3088 Fit       0.021330
 3089 Fit       0.020616
 3090 Fit       0.021158
 3091 Fit       0.023061
 3092 Fit       0.022569
 3093 Fit       0.021827
 3094 Fit       0.022626
 3095 Fit       0.025089
 3096 Fit       0.022230
 3097 Fit       0.020896
 3098 Fit       0.020687
 3099 Fit       0.021500
 3100 Fit       0.020307
 3101 Fit       0.019694
 3102 Fit       0.019151
 3103 Fit       0.019068
 3104 Fit       0.019531
 3105 Fit       0.020588
 3106 Fit       0.010834
 3107 Fit       0.015228
 3108 Fit       0.016818
 3109 Fit       0.017258
 3110 Fit       0.017528
 3111 Fit       0.017961
 3112 Fit       0.018542
 3113 Fit       0.015022
 3114 Fit       0.012845
 3115 Fit       0.010332
 3116 Fit       0.007185
 3117 Fit       0.005612
 3118 Fit       0.008330
 3119 Fit       0.012423
 3120 Fit       0.014785
 3121 Fit       0.015764
 3122 Fit       0.016198
 3123 Fit       0.016142
 3124 Fit       0.013383
 3125 Fit       0.011152
 3126 Fit       0.009507
 3127 Fit       0.011162
 3128 Fit       0.013549
 3129 Fit       0.014303
 3130 Fit       0.012166
 3131 Fit       0.016403
 3132 Fit       0.019399
 3133 Fit       0.016006
 3134 Fit       0.020549
 3135 Fit       0.023278
 3136 Fit       0.024184
 3137 Fit       0.015168
 3138 Fit       0.019908
 3139 Fit       0.023442
 3140 Fit       0.025790
 3141 Fit       0.027127
 3142 Fit       0.027785
 3143 Fit       0.016142
 3144 Fit       0.020573
 3145 Fit       0.023972
 3146 Fit       0.026433
 3147 Fit       0.028095
 3148 Fit       0.029148
 3149 Fit       0.029891
 3150 Fit       0.012920
 3151 Fit       0.018212
 3152 Fit       0.022317
 3153 Fit       0.025384
 3154 Fit       0.027567
 3155 Fit       0.029038
 3156 Fit       0.030011
 3157 Fit       0.011366
 3158 Fit       0.017035
 3159 Fit       0.021371
 3160 Fit       0.024589
 3161 Fit       0.026877
 3162 Fit       0.028429
 3163 Fit       0.029467
 3164 Fit       0.012082
 3165 Fit       0.017414
 3166 Fit       0.021380
 3167 Fit       0.024223
 3168 Fit       0.026168
 3169 Fit       0.027456
 3170 Fit       0.014621
 3171 Fit       0.019228
 3172 Fit       0.022277
 3173 Fit       0.024155
 3174 Fit       0.014216
 3175 Fit       0.018316
 3176 Fit      -0.001388
 3177 Fit       0.001999
 3178 Fit       0.002764
 3179 Fit      -0.002689
 3180 Fit       0.001924
 3181 Fit       0.004460
 3182 Fit       0.005758
 3183 Fit       0.006536
 3184 Fit      -0.002859
 3185 Fit       0.001596
 3186 Fit       0.004110
 3187 Fit       0.005310
 3188 Fit      -0.004193
 3189 Fit       0.000467
 3190 Fit       0.002810
 3191 Fit       0.003336
 3192 Fit      -0.004298
 3193 Fit      -0.000501
 3194 Fit       0.000609
 3195 Fit      -0.003764
 3196 Fit      -0.002360
 3197 Fit      -0.004887
 -----------------------------------------------------------------
 Leave Link  602 at Thu Jan 16 21:48:44 2014, MaxMem=   235929600 cpu:         1.0

 Test job not archived.
 1\1\GINC-G30\SP\RHF\Gen\C9H11Cl1O3\KOLAR\16-Jan-2014\0\\# hf/gen pop=m
 k iop(6/33=2,6/41=5,6/42=2)\\na resp\\0,1\C,0,0.993085,-0.952843,0.115
 147\C,0,2.375999,-1.147879,0.180692\C,0,3.236838,-0.071088,0.003045\C,
 0,2.733853,1.209646,-0.239962\C,0,1.360222,1.404319,-0.304705\C,0,0.47
 9232,0.326254,-0.128766\O,0,-0.846894,0.628456,-0.218438\C,0,-1.796973
 ,-0.413586,-0.037802\C,0,-3.186358,0.194167,-0.133245\H,0,-3.218714,0.
 846309,-1.021529\C,0,-4.256884,-0.886342,-0.295004\O,0,-5.507469,-0.19
 8929,-0.262561\O,0,-3.431993,0.938317,1.04624\Cl,0,4.978965,-0.321215,
 0.084674\H,0,0.336245,-1.803089,0.257018\H,0,2.775776,-2.138506,0.3700
 69\H,0,3.413247,2.044401,-0.37586\H,0,0.944079,2.389362,-0.489781\H,0,
 -1.673467,-0.879779,0.948946\H,0,-1.663962,-1.182678,-0.813957\H,0,-4.
 180692,-1.606314,0.533931\H,0,-4.123391,-1.427007,-1.244205\H,0,-6.211
 861,-0.844266,-0.105612\H,0,-4.382906,1.143578,1.023198\\Version=AM64L
 -G09RevD.01\State=1-A\HF=-1031.2456569\RMSD=5.457e-09\Dipole=-1.635773
 4,-1.2198978,-0.328784\Quadrupole=2.0245825,3.3780587,-5.4026412,10.43
 71179,0.1745084,-1.6529486\PG=C01 [X(C9H11Cl1O3)]\\@


 "WOULD YOU TELL ME PLEASE, WHICH WAY I OUGHT TO WALK FROM HERE?"
 "THAT DEPENDS A GREAT DEAL ON WHERE YOU WANT TO GO," SAID THE CAT.
 "I DON'T MUCH CARE WHERE -- ", SAID ALICE.
 "THEN IT DOESN'T MATTER WHICH WAY YOU WALK," SAID THE CAT.

                                      -- LEWIS CARROLL
 Job cpu time:       0 days  0 hours  1 minutes 52.3 seconds.
 File lengths (MBytes):  RWF=     25 Int=      0 D2E=      0 Chk=      3 Scr=      1
 Normal termination of Gaussian 09 at Thu Jan 16 21:48:44 2014.
111.93user 0.39system 1:57.74elapsed 95%CPU (0avgtext+0avgdata 603392maxresident)k
11328inputs+91136outputs (3major+169695minor)pagefaults 0swaps
